default_name
 24150
  22.6700000  13.1810000  19.9300000  23.3520000  14.1300000  19.2070000
  22.2330000  12.0410000  19.2180000  23.8590000  15.1860000  19.9430000
  23.5500000  14.0860000  17.8380000  21.5570000  12.3070000  18.5590000
  22.9950000  11.6320000  18.7590000  21.8430000  11.3950000  19.8440000
  24.5650000  16.1970000  19.3250000  23.7200000  15.2160000  20.8820000
  24.2780000  15.1000000  17.2190000  23.1920000  13.3710000  17.3250000
  24.7840000  16.1640000  17.9490000  24.9040000  16.9200000  19.8400000
  24.4300000  15.0620000  16.2820000  25.5320000  17.1990000  17.3180000
  25.0450000  17.8490000  16.1700000  26.7590000  17.5850000  17.9420000
  25.9250000  18.4840000  15.2810000  23.6680000  17.8690000  15.9010000
  26.9690000  18.8670000  18.4130000  27.7490000  16.6220000  18.1530000
  25.4080000  19.1050000  14.1610000  26.8600000  18.4860000  15.4470000
  23.1660000  18.5030000  14.7820000  23.0690000  17.4390000  16.5000000
  28.1380000  19.2010000  19.1020000  26.3080000  19.5320000  18.2660000
  28.9030000  16.9410000  18.8320000  27.6250000  15.7390000  17.8240000
  24.0350000  19.1250000  13.8930000  26.1770000  19.8050000  13.0380000
  22.2300000  18.5130000  14.6190000  29.1030000  18.2270000  19.3150000
  28.2700000  20.0860000  19.4220000  29.5680000  16.2770000  18.9720000
  23.8040000  19.8650000  12.6500000  25.0370000  20.2910000  12.1470000
  27.1330000  20.8880000  13.5150000  27.1390000  18.8580000  12.3320000
  30.2730000  18.4130000  20.0030000  22.6370000  20.2260000  11.9830000
  25.1290000  21.0470000  10.9980000  26.7940000  22.0990000  14.0910000
  28.4600000  20.5390000  13.2470000  26.7940000  17.7730000  11.5600000
  28.4690000  19.2580000  12.5190000  30.5730000  19.7190000  20.4720000
  22.7150000  21.0110000  10.8430000  21.7920000  19.9370000  12.3080000
  23.9540000  21.4250000  10.3370000  25.9770000  21.3080000  10.6600000
  27.8110000  22.9900000  14.4400000  25.8840000  22.3210000  14.2480000
  29.4720000  21.4230000  13.6080000  25.8850000  17.5090000  11.4810000
  27.8000000  17.0610000  10.8890000  29.4740000  18.4880000  11.9410000
  30.6140000  20.3380000  19.7120000  29.8760000  20.0110000  21.0940000
  31.4380000  19.7100000  20.9330000  21.9170000  21.2720000  10.3980000
  24.0510000  22.2730000   9.1980000  27.5010000  24.2470000  15.0240000
  29.1450000  22.6280000  14.2080000  30.3820000  21.2010000  13.4440000
  27.4280000  16.0470000   9.9880000  29.1410000  17.4090000  11.1220000
  30.3860000  18.6980000  12.1040000  25.0650000  23.2830000   9.2340000
  23.1900000  22.1640000   8.0860000  28.2070000  25.4190000  14.6080000
  26.2040000  24.4450000  15.5960000  29.8400000  23.2220000  14.4670000
  26.1530000  16.1190000   9.3420000  28.3560000  15.0900000   9.4760000
  29.8320000  16.9000000  10.7160000  25.1250000  24.1680000  10.3070000
  26.0230000  23.3730000   8.2350000  23.0270000  23.2310000   7.2070000
  22.4870000  20.9830000   7.8120000  28.5710000  25.6230000  13.2820000
  28.4960000  26.4030000  15.5450000  25.3210000  25.3880000  15.1070000
  25.7970000  23.6600000  16.6770000  25.6760000  17.2970000   8.7860000
  25.3670000  14.9720000   9.2630000  29.1300000  14.3030000  10.3310000
  28.4610000  14.8880000   8.1080000  26.1410000  25.1000000  10.3910000
  24.4610000  24.1310000  10.9860000  27.0360000  24.3230000   8.2990000
  25.9860000  22.7780000   7.4960000  23.5080000  24.0360000   7.3590000
  22.1740000  23.1460000   6.1110000  22.6110000  20.2240000   8.3690000
  21.6170000  20.9090000   6.7450000  29.2110000  26.7890000  12.8990000
  28.3780000  24.9570000  12.6330000  29.1240000  27.5840000  15.1660000
  28.2610000  26.2670000  16.4560000  24.0460000  25.5520000  15.6950000
  25.5730000  25.9300000  14.3690000  24.5440000  23.8080000  17.2430000
  26.3940000  23.0110000  17.0320000  24.4340000  17.3440000   8.1670000
  26.2070000  18.0830000   8.8300000  24.1520000  14.9980000   8.6210000
  25.6740000  14.1630000   9.6570000  29.9850000  13.3450000   9.8140000
  29.0700000  14.4250000  11.2710000  29.3010000  13.9140000   7.5800000
  27.9470000  15.4280000   7.5190000  27.1090000  25.1720000   9.3920000
  26.1800000  25.6930000  11.1320000  27.6730000  24.3900000   7.5980000
  21.4470000  21.9910000   5.8930000  22.0910000  23.8800000   5.5140000
  21.1290000  20.1080000   6.5910000  29.4660000  26.9140000  11.9930000
  29.4830000  27.7800000  13.8410000  29.3080000  28.2540000  15.8130000
  23.6770000  24.7560000  16.7450000  23.4480000  26.2120000  15.3630000
  24.2820000  23.2570000  17.9710000  23.6750000  16.1830000   8.0730000
  24.1060000  18.1610000   7.8100000  23.6360000  14.2040000   8.5530000
  30.0660000  13.1420000   8.4360000  30.5200000  12.8240000  10.4000000
  29.3490000  13.7800000   6.6400000  28.1060000  26.0950000   9.5880000
  20.5400000  21.7970000   4.8720000  30.0860000  28.9100000  13.3560000
  22.4570000  24.8250000  17.3950000  22.4480000  16.1020000   7.4580000
  30.9070000  12.1410000   8.0290000  29.1030000  26.2020000   8.5680000
  20.3000000  22.8840000   4.0190000  30.2920000  29.9880000  14.2710000
  21.4980000  25.7030000  16.8660000  21.9640000  17.2690000   6.8010000
  30.9960000  11.8850000   6.6290000  28.6860000  26.5020000   7.7340000
  29.7840000  26.8500000   8.8440000  29.5210000  25.3260000   8.4280000
  19.6160000  22.6380000   3.3610000  19.9870000  23.6490000   4.5460000
  21.1290000  23.1250000   3.5540000  30.6980000  30.7450000  13.7990000
  29.4310000  30.2640000  14.6500000  30.8890000  29.6960000  14.9920000
  21.3200000  25.4680000  15.9320000  20.6690000  25.6310000  17.3850000
  21.8350000  26.6220000  16.9140000  21.7800000  17.9660000   7.4650000
  22.6390000  17.5910000   6.1690000  21.1390000  17.0530000   6.3170000
  31.2910000  12.6960000   6.1670000  31.6400000  11.1650000   6.4690000
  30.1170000  11.6180000   6.2900000  25.2240000  27.6770000  19.9300000
  25.9060000  28.6270000  19.2070000  24.7870000  26.5370000  19.2180000
  26.4130000  29.6830000  19.9430000  26.1040000  28.5820000  17.8380000
  24.1110000  26.8030000  18.5590000  24.3970000  25.8910000  19.8440000
  25.5500000  26.1280000  18.7590000  27.1200000  30.6930000  19.3250000
  26.2740000  29.7120000  20.8820000  26.8320000  29.5960000  17.2190000
  25.7470000  27.8670000  17.3250000  27.3390000  30.6600000  17.9490000
  27.4580000  31.4160000  19.8400000  26.9840000  29.5580000  16.2820000
  28.0870000  31.6950000  17.3180000  27.5990000  32.3450000  16.1700000
  29.3130000  32.0810000  17.9420000  28.4790000  32.9800000  15.2810000
  26.2220000  32.3660000  15.9010000  29.5240000  33.3630000  18.4130000
  30.3030000  31.1180000  18.1530000  27.9630000  33.6020000  14.1610000
  29.4150000  32.9820000  15.4470000  25.7200000  32.9990000  14.7820000
  25.6230000  31.9360000  16.5000000  31.4580000  31.4370000  18.8320000
  28.8620000  34.0280000  18.2660000  30.6920000  33.6980000  19.1020000
  30.1790000  30.2350000  17.8240000  26.5890000  33.6210000  13.8930000
  28.7310000  34.3010000  13.0380000  24.7840000  33.0090000  14.6190000
  31.6570000  32.7230000  19.3150000  30.8240000  34.5830000  19.4220000
  32.1220000  30.7730000  18.9720000  26.3580000  34.3610000  12.6500000
  27.5910000  34.7870000  12.1470000  29.6870000  35.3850000  13.5150000
  29.6930000  33.3550000  12.3320000  32.8280000  32.9100000  20.0030000
  25.1910000  34.7220000  11.9830000  27.6830000  35.5430000  10.9980000
  29.3480000  36.5950000  14.0910000  31.0140000  35.0350000  13.2470000
  29.3480000  32.2690000  11.5600000  31.0230000  33.7540000  12.5190000
  33.1280000  34.2150000  20.4720000  25.2690000  35.5080000  10.8430000
  24.3460000  34.4340000  12.3080000  26.5090000  35.9210000  10.3370000
  28.5310000  35.8040000  10.6600000  30.3650000  37.4860000  14.4400000
  28.4380000  36.8170000  14.2480000  32.0270000  35.9190000  13.6080000
  28.4390000  32.0050000  11.4810000  30.3550000  31.5570000  10.8890000
  32.0280000  32.9850000  11.9410000  32.4300000  34.5070000  21.0940000
  33.1680000  34.8340000  19.7120000  33.9930000  34.2060000  20.9330000
  31.6240000  28.9210000  11.2710000  26.6050000  36.7690000   9.1980000
  30.0550000  38.7440000  15.0240000  31.6990000  37.1240000  14.2080000
  32.9360000  35.6980000  13.4440000  29.9820000  30.5430000   9.9880000
  31.6950000  31.9050000  11.1220000  32.9400000  33.1940000  12.1040000
  27.6190000  37.7790000   9.2340000  25.7450000  36.6600000   8.0860000
  30.7610000  39.9150000  14.6080000  28.7580000  38.9410000  15.5960000
  32.3940000  37.7180000  14.4670000  28.7070000  30.6150000   9.3420000
  30.9110000  29.5860000   9.4760000  32.3870000  31.3960000  10.7160000
  27.6790000  38.6640000  10.3070000  28.5770000  37.8700000   8.2350000
  25.5810000  37.7270000   7.2070000  25.0410000  35.4790000   7.8120000
  31.1250000  40.1190000  13.2820000  31.0500000  40.8990000  15.5450000
  27.8750000  39.8840000  15.1070000  28.3510000  38.1560000  16.6770000
  28.2300000  31.7930000   8.7860000  27.9210000  29.4680000   9.2630000
  31.6850000  28.7990000  10.3310000  31.0150000  29.3840000   8.1080000
  28.6960000  39.5960000  10.3910000  27.0160000  38.6270000  10.9860000
  29.5900000  38.8190000   8.2990000  28.5400000  37.2740000   7.4960000
  26.0620000  38.5320000   7.3590000  24.7280000  37.6420000   6.1110000
  24.4710000  35.7680000  10.3980000  24.1710000  35.4050000   6.7450000
  31.7650000  41.2850000  12.8990000  30.9330000  39.4530000  12.6330000
  31.6790000  42.0800000  15.1660000  30.8150000  40.7640000  16.4560000
  27.0980000  38.3040000  17.2430000  28.1270000  40.4270000  14.3690000
  26.6000000  40.0490000  15.6950000  28.9480000  37.5080000  17.0320000
  26.9880000  31.8400000   8.1670000  25.1650000  34.7200000   8.3690000
  26.7060000  29.4950000   8.6210000  28.2280000  28.6590000   9.6570000
  31.8550000  28.4100000   7.5800000  30.5020000  29.9240000   7.5190000
  32.5400000  27.8410000   9.8140000  28.7610000  32.5790000   8.8300000
  29.6640000  39.6680000   9.3920000  28.7350000  40.1900000  11.1320000
  30.2280000  38.8860000   7.5980000  24.0010000  36.4870000   5.8930000
  24.6450000  38.3760000   5.5140000  23.6830000  34.6040000   6.5910000
  32.0200000  41.4100000  11.9930000  32.0370000  42.2760000  13.8410000
  31.8620000  42.7510000  15.8130000  26.2310000  39.2520000  16.7450000
  26.0020000  40.7080000  15.3630000  26.8360000  37.7540000  17.9710000
  26.2290000  30.6800000   8.0730000  26.6600000  32.6570000   7.8100000
  26.1900000  28.7000000   8.5530000  32.6210000  27.6380000   8.4360000
  33.0750000  27.3200000  10.4000000  31.9030000  28.2760000   6.6400000
  30.6600000  40.5910000   9.5880000  23.0940000  36.2930000   4.8720000
  32.6410000  43.4060000  13.3560000  25.0110000  39.3210000  17.3950000
  25.0030000  30.5980000   7.4580000  33.4620000  26.6370000   8.0290000
  31.6570000  40.6980000   8.5680000  22.8540000  37.3800000   4.0190000
  32.8460000  44.4840000  14.2710000  24.0520000  40.1990000  16.8660000
  24.5180000  31.7650000   6.8010000  33.5500000  26.3810000   6.6290000
  31.2400000  40.9980000   7.7340000  32.3380000  41.3460000   8.8440000
  32.0750000  39.8230000   8.4280000  22.5410000  38.1450000   4.5460000
  23.6830000  37.6210000   3.5540000  22.1710000  37.1350000   3.3610000
  33.2520000  45.2410000  13.7990000  31.9860000  44.7600000  14.6500000
  33.4430000  44.1920000  14.9920000  23.8750000  39.9640000  15.9320000
  23.2230000  40.1280000  17.3850000  24.3890000  41.1180000  16.9140000
  23.6930000  31.5490000   6.3170000  24.3340000  32.4620000   7.4650000
  25.1930000  32.0880000   6.1690000  34.1950000  25.6610000   6.4690000
  33.8460000  27.1920000   6.1670000  32.6710000  26.1140000   6.2900000
  27.5320000  14.4140000  13.3560000  26.9290000  13.2840000  13.8410000
  27.7380000  15.4920000  14.2710000  26.6570000  12.2920000  12.8990000
  26.5700000  13.0880000  15.1660000  28.1430000  16.2490000  13.7990000
  28.3340000  15.2000000  14.9920000  26.8770000  15.7680000  14.6500000
  23.4690000   8.8770000   8.2350000  26.9120000  12.4170000  11.9930000
  26.0170000  11.1270000  13.2820000  26.7540000  13.7580000  15.8130000
  25.6530000  10.9220000  14.6080000  21.9070000   9.6350000  10.9860000
  27.2850000   8.7260000  14.4670000  21.4960000   7.7760000   9.1980000
  25.2560000   8.4940000  14.4400000  22.5110000   8.7860000   9.2340000
  22.5740000   6.5510000  10.9980000  26.5910000   8.1320000  14.2080000
  22.5700000   9.6720000  10.3070000  20.4720000   8.7350000   7.2070000
  24.5790000   6.3920000  13.5150000  23.4230000   6.8120000  10.6600000
  26.9180000   6.9270000  13.6080000  25.8240000  10.4610000  12.6330000
  23.5870000  10.6040000  10.3910000  23.0180000  11.4340000  14.3690000
  24.4810000   9.8270000   8.2990000  23.4320000   8.2820000   7.4960000
  21.2500000   5.3680000  12.6500000  23.6230000   5.3090000  13.0380000
  27.8270000   6.7050000  13.4440000  24.5550000  10.6750000   9.3920000
  23.6260000  11.1970000  11.1320000  25.1190000   9.8940000   7.5980000
  25.9060000   6.0430000  13.2470000  22.8540000   4.6090000  14.1610000
  22.4830000   5.7940000  12.1470000  24.5840000   4.3620000  12.3320000
  25.5520000  11.5990000   9.5880000  20.6120000   4.0060000  14.7820000
  24.2400000   7.6030000  14.0910000  24.2400000   3.2770000  11.5600000
  21.4810000   4.6290000  13.8930000  23.3710000   3.9880000  15.2810000
  25.9150000   4.7620000  12.5190000  19.4100000   2.7730000   6.8010000
  21.1130000   3.3730000  15.9010000  27.8320000   4.2010000  12.1040000
  22.4910000   3.3530000  16.1700000  24.3060000   3.9900000  15.4470000
  21.4000000   6.9290000  10.3370000  23.3300000   7.8250000  14.2480000
  20.0820000   5.7300000  11.9830000  23.3310000   3.0130000  11.4810000
  25.2460000   2.5650000  10.8890000  26.9200000   3.9920000  11.9410000
  19.2260000   3.4700000   7.4650000  17.0620000   8.1420000   3.3610000
  20.0850000   3.0950000   6.1690000  25.7070000  11.7710000  16.4560000
  24.9460000   9.7510000  15.0240000  24.8730000   1.5510000   9.9880000
  20.1610000   6.5150000  10.8430000  19.6760000   4.0170000  14.6190000
  22.9780000   2.7030000  17.3180000  26.5860000   2.9130000  11.1220000
  19.2370000   5.4410000  12.3080000  22.2300000   1.6680000  17.9490000
  24.2040000   3.0890000  17.9420000  25.8020000   0.5940000   9.4760000
  20.6360000   7.6680000   8.0860000  20.0570000   5.7280000   8.3690000
  23.6500000   9.9490000  15.5960000  23.5990000   1.6220000   9.3420000
  23.1190000  -0.3330000   9.6570000  21.7240000   0.6040000  17.2190000
  25.1950000   2.1260000  18.1530000  22.0110000   1.7010000  19.3250000
  24.4150000   4.3700000  18.4130000  22.8130000   0.4760000   9.2630000
  25.9070000   0.3920000   8.1080000  22.7670000  10.8920000  15.1070000
  19.9330000   6.4870000   7.8120000  23.2430000   9.1640000  16.6770000
  25.9410000  11.9070000  15.5450000  23.1220000   2.8000000   8.7860000
  26.5760000  -0.1930000  10.3310000  19.0630000   6.4120000   6.7450000
  20.5150000   2.9430000  16.5000000  20.9950000  -0.4100000  17.8380000
  21.8760000   0.5650000  16.2820000  22.3500000   2.4240000  19.8400000
  21.3050000   0.6900000  19.9430000  23.8390000   8.5150000  17.0320000
  26.3490000   2.4450000  18.8320000  21.5970000   0.5020000   8.6210000
  26.5160000  -0.0720000  11.2710000  21.8790000   2.8470000   8.1670000
  20.9540000   9.5400000   7.3590000  21.9900000   9.3120000  17.2430000
  23.7540000   5.0360000  18.2660000  21.4910000  11.0560000  15.6950000
  19.3630000   6.7760000  10.3980000  25.5830000   4.7050000  19.1020000
  25.0700000   1.2430000  17.8240000  27.4310000  -1.1510000   9.8140000
  25.3930000   0.9310000   7.5190000  19.6200000   8.6490000   6.1110000
  23.6520000   3.5870000   8.8300000  26.7470000  -0.5820000   7.5800000
  27.2780000   2.4040000  10.7160000  20.7970000  -0.3660000  19.2070000
  21.5520000   3.6650000   7.8100000  20.6380000  -1.1250000  17.3250000
  26.5490000   3.7310000  19.3150000  21.1660000   0.7190000  20.8820000
  27.0140000   1.7810000  18.9720000  21.0810000  -0.2920000   8.5530000
  21.1210000   1.6870000   8.0730000  18.5740000   5.6120000   6.5910000
  21.1220000  10.2600000  16.7450000  21.7280000   8.7610000  17.9710000
  20.8940000  11.7160000  15.3630000  27.5120000  -1.3540000   8.4360000
  25.7160000   5.5900000  19.4220000  26.7940000  -0.7160000   6.6400000
  18.8930000   7.4950000   5.8930000  19.5370000   9.3840000   5.5140000
  27.9660000  -1.6730000  10.4000000  20.1160000  -1.3150000  19.9300000
  27.7190000   3.9170000  20.0030000  19.8940000   1.6050000   7.4580000
  19.9020000  10.3290000  17.3950000  28.3530000  -2.3550000   8.0290000
  17.9860000   7.3000000   4.8720000  19.6790000  -2.4550000  19.2180000
  26.5490000  11.7060000   8.5680000  17.7460000   8.3880000   4.0190000
  18.9430000  11.2070000  16.8660000  28.0190000   5.2230000  20.4720000
  28.4420000  -2.6110000   6.6290000  19.0030000  -2.1900000  18.5590000
  19.2890000  -3.1010000  19.8440000  20.4410000  -2.8640000  18.7590000
  26.9670000  10.8300000   8.4280000  26.1320000  12.0060000   7.7340000
  27.2300000  12.3540000   8.8440000  18.5740000   8.6290000   3.5540000
  17.4320000   9.1530000   4.5460000  18.5850000   2.5560000   6.3170000
  18.7660000  10.9720000  15.9320000  18.1150000  11.1350000  17.3850000
  19.2810000  12.1260000  16.9140000  28.0590000   5.8410000  19.7120000
  28.8840000   5.2140000  20.9330000  27.3210000   5.5150000  21.0940000
  28.7370000  -1.8000000   6.1670000  29.0860000  -3.3310000   6.4690000
  27.5630000  -2.8780000   6.2900000  28.8680000  13.2420000  36.0570000
  29.5490000  14.1910000  35.3340000  28.4310000  12.1020000  35.3450000
  30.0570000  15.2480000  36.0700000  29.7470000  14.1470000  33.9650000
  27.7550000  12.3680000  34.6860000  29.1930000  11.6930000  34.8860000
  28.0410000  11.4560000  35.9710000  30.7630000  16.2580000  35.4520000
  29.9180000  15.2770000  37.0090000  30.4760000  15.1610000  33.3460000
  29.3900000  13.4320000  33.4520000  30.9820000  16.2250000  34.0760000
  31.1020000  16.9810000  35.9670000  30.6270000  15.1230000  32.4090000
  31.7300000  17.2600000  33.4450000  31.2430000  17.9100000  32.2970000
  32.9560000  17.6460000  34.0690000  32.1230000  18.5450000  31.4080000
  29.8650000  17.9310000  32.0280000  33.1670000  18.9280000  34.5400000
  33.9470000  16.6830000  34.2800000  31.6060000  19.1670000  30.2880000
  33.0580000  18.5470000  31.5740000  29.3640000  18.5640000  30.9080000
  29.2670000  17.5010000  32.6270000  34.3350000  19.2630000  35.2290000
  32.5050000  19.5930000  34.3930000  35.1010000  17.0020000  34.9590000
  33.8220000  15.8000000  33.9510000  30.2320000  19.1860000  30.0200000
  32.3750000  19.8660000  29.1650000  28.4280000  18.5740000  30.7460000
  35.3010000  18.2880000  35.4420000  34.4680000  20.1470000  35.5490000
  35.7660000  16.3380000  35.0990000  30.0010000  19.9260000  28.7770000
  31.2350000  20.3520000  28.2740000  33.3300000  20.9500000  29.6420000
  33.3360000  18.9200000  28.4590000  36.4710000  18.4750000  36.1300000
  28.8340000  20.2870000  28.1100000  31.3260000  21.1080000  27.1250000
  32.9920000  22.1600000  30.2180000  34.6580000  20.6000000  29.3740000
  32.9920000  17.8340000  27.6870000  34.6670000  19.3190000  28.6460000
  36.7710000  19.7800000  36.5990000  28.9130000  21.0730000  26.9700000
  27.9890000  19.9990000  28.4350000  30.1520000  21.4860000  26.4640000
  32.1750000  21.3690000  26.7870000  34.0080000  23.0510000  30.5670000
  32.0810000  22.3820000  30.3750000  35.6700000  21.4840000  29.7350000
  32.0830000  17.5700000  27.6080000  33.9980000  17.1220000  27.0160000
  35.6720000  18.5490000  28.0680000  36.8110000  20.3990000  35.8390000
  37.6360000  19.7710000  37.0600000  36.0730000  20.0720000  37.2210000
  28.1150000  21.3330000  26.5250000  30.2480000  22.3340000  25.3250000
  33.6980000  24.3080000  31.1510000  35.3430000  22.6890000  30.3350000
  36.5790000  21.2620000  29.5710000  33.6250000  16.1080000  26.1150000
  35.3380000  17.4700000  27.2490000  36.5840000  18.7590000  28.2310000
  31.2630000  23.3440000  25.3610000  29.3880000  22.2250000  24.2130000
  34.4050000  25.4800000  30.7350000  32.4020000  24.5060000  31.7230000
  36.0370000  23.2830000  30.5940000  32.3510000  16.1800000  25.4690000
  34.5540000  15.1510000  25.6030000  36.0300000  16.9610000  26.8430000
  31.3220000  24.2290000  26.4340000  32.2210000  23.4350000  24.3620000
  29.2240000  23.2920000  23.3340000  28.6850000  21.0440000  23.9390000
  34.7690000  25.6840000  29.4090000  34.6930000  26.4640000  31.6720000
  31.5190000  25.4490000  31.2340000  31.9950000  23.7210000  32.8040000
  31.8730000  17.3580000  24.9130000  31.5650000  15.0330000  25.3900000
  34.6590000  14.9490000  24.2350000  35.3280000  14.3640000  26.4580000
  32.3390000  25.1610000  26.5180000  30.6590000  24.1920000  27.1130000
  33.2330000  24.3840000  24.4260000  32.1840000  22.8390000  23.6230000
  29.7060000  24.0970000  23.4860000  28.3720000  23.2070000  22.2380000
  28.8090000  20.2850000  24.4960000  27.8150000  20.9700000  22.8720000
  35.4090000  26.8500000  29.0260000  34.5760000  25.0180000  28.7600000
  35.3220000  27.6450000  31.2930000  34.4590000  26.3290000  32.5830000
  30.2430000  25.6140000  31.8220000  31.7700000  25.9920000  30.4960000
  30.7420000  23.8690000  33.3700000  32.5910000  23.0720000  33.1590000
  30.6310000  17.4050000  24.2940000  32.4040000  18.1440000  24.9570000
  30.3490000  15.0600000  24.7480000  31.8710000  14.2240000  25.7840000
  36.1830000  13.4060000  25.9410000  35.2680000  14.4860000  27.3980000
  35.4990000  13.9750000  23.7070000  34.1450000  15.4890000  23.6460000
  33.3070000  25.2330000  25.5190000  32.3780000  25.7540000  27.2590000
  33.8710000  24.4510000  23.7250000  27.6450000  22.0520000  22.0200000
  28.2890000  23.9410000  21.6410000  27.3260000  20.1690000  22.7180000
  35.6640000  26.9750000  28.1200000  35.6810000  27.8410000  29.9680000
  35.5050000  28.3160000  31.9400000  29.8740000  24.8170000  32.8720000
  29.6460000  26.2730000  31.4900000  30.4800000  23.3190000  34.0980000
  29.8730000  16.2450000  24.2000000  30.3040000  18.2220000  23.9370000
  29.8330000  14.2650000  24.6800000  36.2640000  13.2030000  24.5630000
  36.7180000  12.8850000  26.5270000  35.5460000  13.8410000  22.7670000
  34.3030000  26.1560000  25.7150000  26.7370000  21.8580000  20.9990000
  36.2840000  28.9710000  29.4830000  28.6540000  24.8860000  33.5220000
  28.6460000  16.1630000  23.5850000  37.1050000  12.2020000  24.1560000
  35.3010000  26.2630000  24.6950000  26.4980000  22.9450000  20.1460000
  36.4900000  30.0490000  30.3980000  27.6950000  25.7640000  32.9930000
  28.1610000  17.3300000  22.9280000  37.1940000  11.9460000  22.7560000
  34.8830000  26.5630000  23.8610000  35.9820000  26.9110000  24.9710000
  35.7190000  25.3870000  24.5550000  26.1840000  23.7100000  20.6730000
  25.8140000  22.7000000  19.4880000  27.3260000  23.1860000  19.6810000
  37.0860000  29.7570000  31.1190000  35.6290000  30.3250000  30.7770000
  36.8950000  30.8060000  29.9260000  28.0330000  26.6830000  33.0410000
  26.8670000  25.6930000  33.5120000  27.5180000  25.5290000  32.0590000
  28.8370000  17.6520000  22.2960000  27.9780000  18.0270000  23.5920000
  27.3370000  17.1140000  22.4440000  37.4890000  12.7570000  22.2940000
  36.3150000  11.6790000  22.4170000  37.8380000  11.2260000  22.5960000
  38.8380000  43.4670000  29.4830000  38.2350000  42.3380000  29.9680000
  39.3250000  34.2760000  36.5990000  37.8760000  42.1410000  31.2930000
  36.8900000  33.7590000  35.2290000  39.3660000  34.8950000  35.8390000
  38.6280000  34.5680000  37.2210000  40.1900000  34.2670000  37.0600000
  37.2480000  40.9600000  31.6720000  34.9320000  40.2510000  27.2590000
  37.2130000  29.4450000  24.2350000  37.0220000  34.6440000  35.5490000
  34.9560000  39.0020000  31.7230000  37.0130000  40.8250000  32.5830000
  38.5920000  37.7800000  30.5940000  36.2530000  38.8050000  31.1510000
  36.5630000  37.5470000  30.5670000  36.9590000  39.9760000  30.7350000
  35.5460000  36.6560000  30.2180000  37.8970000  37.1860000  30.3350000
  33.8770000  38.7250000  26.4340000  37.3230000  40.1810000  29.4090000
  35.8850000  35.4460000  29.6420000  34.7290000  35.8650000  26.7870000
  38.2240000  35.9800000  29.7350000  35.1450000  37.5690000  33.1590000
  34.8930000  39.6570000  26.5180000  37.1300000  39.5140000  28.7600000
  37.9630000  41.3460000  29.0260000  37.8220000  28.9820000  27.3980000
  37.2120000  35.0960000  29.3740000  34.9290000  34.3620000  29.1650000
  39.1340000  35.7590000  29.5710000  35.8610000  39.7290000  25.5190000
  32.2000000  40.7700000  31.4900000  38.2180000  41.4710000  28.1200000
  32.7870000  33.6820000  30.0200000  34.1600000  33.6630000  30.2880000
  33.7890000  34.8480000  28.2740000  35.8910000  33.4160000  28.4590000
  36.8580000  40.6530000  25.7150000  31.9180000  33.0600000  30.9080000
  34.6770000  33.0410000  31.4080000  33.8810000  35.6040000  27.1250000
  32.5560000  34.4220000  28.7770000  35.5460000  32.3310000  27.6870000
  37.2210000  33.8150000  28.6460000  39.0440000  44.5460000  30.3980000
  32.4200000  32.4270000  32.0280000  30.9820000  33.0700000  30.7460000
  33.7970000  32.4060000  32.2970000  34.6370000  32.0660000  27.6080000
  32.7060000  35.9830000  26.4640000  34.6360000  36.8780000  30.3750000
  31.3880000  34.7840000  28.1100000  35.6120000  33.0430000  31.5740000
  36.5520000  31.6190000  27.0160000  38.2260000  33.0460000  28.0680000
  39.6400000  44.2530000  31.1190000  39.4500000  45.3020000  29.9260000
  38.1830000  44.8210000  30.7770000  31.8210000  31.9970000  32.6270000
  34.2840000  31.7570000  33.4450000  32.8020000  36.8300000  25.3250000
  31.4670000  35.5690000  26.9700000  30.5440000  34.4950000  28.4350000
  36.1800000  30.6040000  26.1150000  37.8920000  31.9660000  27.2490000
  39.1380000  33.2550000  28.2310000  35.5110000  32.1420000  34.0690000
  33.5360000  30.7210000  34.0760000  33.8170000  37.8400000  25.3610000
  31.9420000  36.7210000  24.2130000  34.7380000  37.3350000  23.6230000
  34.9050000  30.6760000  25.4690000  37.1080000  29.6470000  25.6030000
  32.2600000  38.5930000  23.4860000  35.7210000  33.4240000  34.5400000
  33.0300000  29.6570000  33.3460000  36.5010000  31.1790000  34.2800000
  33.3170000  30.7540000  35.4520000  31.7790000  37.7880000  23.3340000
  31.2390000  35.5410000  23.9390000  34.5490000  38.2170000  32.8040000
  34.0730000  39.9450000  31.2340000  34.4280000  31.8540000  24.9130000
  37.8820000  28.8600000  26.4580000  34.7750000  37.9310000  24.3620000
  34.1190000  29.5290000  25.3900000  33.1850000  31.9010000  24.2940000
  33.6560000  31.4770000  35.9670000  32.9040000  29.5560000  24.7480000
  31.3630000  34.7810000  24.4960000  36.6990000  29.9850000  23.6460000
  32.3020000  28.6430000  33.9650000  33.1820000  29.6190000  32.4090000
  32.6110000  29.7440000  36.0700000  30.3690000  35.4660000  22.8720000
  30.6690000  35.8300000  26.5250000  30.9260000  37.7030000  22.2380000
  33.2130000  38.6880000  27.1130000  32.7980000  40.1100000  31.8220000
  35.0600000  34.0900000  34.3930000  33.2960000  38.3650000  33.3700000
  34.3250000  40.4880000  30.4960000  37.6550000  31.4990000  34.9590000
  36.3770000  30.2970000  33.9510000  38.7370000  27.9030000  25.9410000
  38.5840000  31.4580000  26.8430000  35.7880000  38.8810000  24.4260000
  34.9590000  32.6400000  24.9570000  38.0530000  28.4710000  23.7070000
  34.4260000  28.7210000  25.7840000  32.4270000  30.7410000  24.2000000
  32.8580000  32.7180000  23.9370000  32.3880000  28.7610000  24.6800000
  32.1040000  28.6880000  35.3340000  31.9440000  27.9280000  33.4520000
  32.4720000  29.7730000  37.0090000  29.8810000  34.6660000  22.7180000
  30.1990000  36.5480000  22.0200000  30.8430000  38.4370000  21.6410000
  32.4290000  39.3140000  32.8720000  38.0600000  42.8120000  31.9400000
  33.0340000  37.8150000  34.0980000  37.8550000  32.7850000  35.4420000
  39.2720000  27.3810000  26.5270000  38.3200000  30.8340000  35.0990000
  38.8180000  27.6990000  24.5630000  36.4250000  38.9480000  23.7250000
  38.1010000  28.3370000  22.7670000  31.2000000  30.6590000  23.5850000
  31.4220000  27.7380000  36.0570000  29.2920000  36.3540000  20.9990000
  31.2090000  39.3820000  33.5220000  39.0250000  32.9710000  36.1300000
  39.6590000  26.6980000  24.1560000  29.0520000  37.4420000  20.1460000
  30.9850000  26.5980000  35.3450000  30.7160000  31.8260000  22.9280000
  30.2500000  40.2600000  32.9930000  37.8550000  40.7590000  24.6950000
  39.7480000  26.4420000  22.7560000  29.8810000  37.6820000  19.6810000
  29.8910000  31.6100000  22.4440000  31.3910000  32.1490000  22.2960000
  31.7470000  26.1890000  34.8860000  30.3090000  26.8640000  34.6860000
  30.5950000  25.9530000  35.9710000  28.7390000  38.2060000  20.6730000
  30.5320000  32.5230000  23.5920000  28.3680000  37.1960000  19.4880000
  30.5870000  41.1790000  33.0410000  29.4210000  40.1890000  33.5120000
  30.0720000  40.0250000  32.0590000  37.4380000  41.0600000  23.8610000
  38.5360000  41.4070000  24.9710000  38.2730000  39.8840000  24.5550000
  40.0430000  27.2530000  22.2940000  38.8690000  26.1750000  22.4170000
  40.3920000  25.7220000  22.5960000  41.3930000  57.9630000  29.4830000
  40.7890000  56.8340000  29.9680000  41.8800000  48.7720000  36.5990000
  40.4310000  56.6370000  31.2930000  39.4440000  48.2550000  35.2290000
  41.9200000  49.3910000  35.8390000  41.1820000  49.0640000  37.2210000
  42.7450000  48.7640000  37.0600000  39.8020000  55.4560000  31.6720000
  37.4860000  54.7470000  27.2590000  39.7670000  43.9420000  24.2350000
  39.5760000  49.1400000  35.5490000  37.5100000  53.4980000  31.7230000
  39.5670000  55.3210000  32.5830000  41.1460000  52.2760000  30.5940000
  38.8070000  53.3010000  31.1510000  39.1170000  52.0440000  30.5670000
  39.5130000  54.4720000  30.7350000  38.1000000  51.1520000  30.2180000
  40.4510000  51.6820000  30.3350000  36.4310000  53.2210000  26.4340000
  39.8770000  54.6770000  29.4090000  38.4390000  49.9420000  29.6420000
  37.2830000  50.3620000  26.7870000  40.7790000  50.4760000  29.7350000
  37.7000000  52.0650000  33.1590000  37.4480000  54.1540000  26.5180000
  39.6850000  54.0110000  28.7600000  40.5170000  55.8420000  29.0260000
  40.3760000  43.4780000  27.3980000  39.7660000  49.5920000  29.3740000
  37.4830000  48.8580000  29.1650000  41.6880000  50.2550000  29.5710000
  38.4160000  54.2250000  25.5190000  34.7540000  55.2660000  31.4900000
  40.7720000  55.9670000  28.1200000  35.3410000  48.1780000  30.0200000
  36.7150000  48.1590000  30.2880000  36.3430000  49.3440000  28.2740000
  38.4450000  47.9120000  28.4590000  39.4120000  55.1490000  25.7150000
  34.4720000  47.5560000  30.9080000  37.2310000  47.5370000  31.4080000
  36.4350000  50.1000000  27.1250000  35.1100000  48.9180000  28.7770000
  38.1000000  46.8270000  27.6870000  39.7750000  48.3120000  28.6460000
  41.5980000  59.0420000  30.3980000  34.9740000  46.9230000  32.0280000
  33.5360000  47.5670000  30.7460000  36.3510000  46.9030000  32.2970000
  37.1910000  46.5620000  27.6080000  35.2610000  50.4790000  26.4640000
  37.1900000  51.3740000  30.3750000  33.9430000  49.2800000  28.1100000
  38.1670000  47.5400000  31.5740000  39.1070000  46.1150000  27.0160000
  40.7800000  47.5420000  28.0680000  42.1950000  58.7490000  31.1190000
  42.0040000  59.7990000  29.9260000  40.7380000  59.3180000  30.7770000
  34.3750000  46.4930000  32.6270000  36.8390000  46.2530000  33.4450000
  35.3570000  51.3260000  25.3250000  34.0210000  50.0650000  26.9700000
  33.0980000  48.9910000  28.4350000  38.7340000  45.1000000  26.1150000
  40.4470000  46.4620000  27.2490000  41.6920000  47.7510000  28.2310000
  38.0650000  46.6380000  34.0690000  36.0900000  45.2170000  34.0760000
  36.3710000  52.3360000  25.3610000  34.4970000  51.2170000  24.2130000
  37.2920000  51.8310000  23.6230000  37.4590000  45.1720000  25.4690000
  39.6630000  44.1440000  25.6030000  34.8140000  53.0890000  23.4860000
  38.2750000  47.9200000  34.5400000  35.5840000  44.1530000  33.3460000
  39.0550000  45.6750000  34.2800000  35.8710000  45.2510000  35.4520000
  34.3330000  52.2840000  23.3340000  33.7930000  50.0370000  23.9390000
  37.1030000  52.7140000  32.8040000  36.6270000  54.4410000  31.2340000
  36.9820000  46.3500000  24.9130000  40.4370000  43.3560000  26.4580000
  37.3290000  52.4270000  24.3620000  36.6730000  44.0250000  25.3900000
  35.7400000  46.3970000  24.2940000  36.2100000  45.9730000  35.9670000
  35.4580000  44.0520000  24.7480000  33.9170000  49.2770000  24.4960000
  39.2540000  44.4810000  23.6460000  34.8560000  43.1400000  33.9650000
  35.7360000  44.1150000  32.4090000  35.1650000  44.2400000  36.0700000
  32.9230000  49.9620000  22.8720000  33.2230000  50.3260000  26.5250000
  33.4800000  52.1990000  22.2380000  35.7680000  53.1840000  27.1130000
  35.3520000  54.6060000  31.8220000  37.6140000  48.5860000  34.3930000
  35.8500000  52.8610000  33.3700000  36.8790000  54.9840000  30.4960000
  40.2100000  45.9950000  34.9590000  38.9310000  44.7930000  33.9510000
  41.2920000  42.3990000  25.9410000  41.1380000  45.9540000  26.8430000
  38.3420000  53.3770000  24.4260000  37.5130000  47.1360000  24.9570000
  40.6070000  42.9670000  23.7070000  36.9800000  43.2170000  25.7840000
  34.9810000  45.2370000  24.2000000  35.4120000  47.2150000  23.9370000
  34.9420000  43.2570000  24.6800000  34.6580000  43.1840000  35.3340000
  34.4990000  42.4250000  33.4520000  35.0260000  44.2690000  37.0090000
  32.4350000  49.1620000  22.7180000  32.7530000  51.0440000  22.0200000
  33.3970000  52.9330000  21.6410000  34.9830000  53.8100000  32.8720000
  40.6140000  57.3080000  31.9400000  35.5880000  52.3110000  34.0980000
  40.4090000  47.2810000  35.4420000  41.8270000  41.8770000  26.5270000
  40.8740000  45.3300000  35.0990000  41.3730000  42.1950000  24.5630000
  38.9800000  53.4440000  23.7250000  40.6550000  42.8330000  22.7670000
  33.7550000  45.1550000  23.5850000  33.9760000  42.2350000  36.0570000
  31.8460000  50.8500000  20.9990000  33.7630000  53.8780000  33.5220000
  41.5800000  47.4670000  36.1300000  42.2130000  41.1940000  24.1560000
  31.6060000  51.9380000  20.1460000  33.5390000  41.0950000  35.3450000
  33.2700000  46.3230000  22.9280000  32.8040000  54.7560000  32.9930000
  40.4090000  55.2550000  24.6950000  42.3020000  40.9380000  22.7560000
  32.4350000  52.1780000  19.6810000  32.4450000  46.1060000  22.4440000
  33.9450000  46.6450000  22.2960000  34.3020000  40.6850000  34.8860000
  32.8630000  41.3600000  34.6860000  33.1490000  40.4490000  35.9710000
  31.2930000  52.7020000  20.6730000  33.0860000  47.0190000  23.5920000
  30.9230000  51.6920000  19.4880000  33.1410000  55.6750000  33.0410000
  31.9750000  54.6850000  33.5120000  32.6270000  54.5210000  32.0590000
  39.9920000  55.5560000  23.8610000  41.0900000  55.9040000  24.9710000
  40.8270000  54.3800000  24.5550000  42.5980000  41.7490000  22.2940000
  41.4230000  40.6710000  22.4170000  42.9470000  40.2180000  22.5960000
  47.5900000  58.0250000  45.6100000  46.9870000  56.8950000  46.0950000
  48.0770000  48.8330000  52.7260000  46.6280000  56.6980000  47.4200000
  45.6420000  48.3160000  51.3560000  48.1170000  49.4520000  51.9660000
  47.3800000  49.1250000  53.3480000  48.9420000  48.8250000  53.1870000
  46.0000000  55.5170000  47.7990000  43.6840000  54.8080000  43.3860000
  45.9650000  44.0030000  40.3620000  45.7740000  49.2010000  51.6760000
  43.7080000  53.5600000  47.8500000  45.7650000  55.3820000  48.7100000
  47.3430000  52.3370000  46.7210000  45.0050000  53.3620000  47.2780000
  45.3150000  52.1050000  46.6940000  45.7110000  54.5330000  46.8620000
  44.2980000  51.2140000  46.3450000  46.6490000  51.7430000  46.4620000
  42.6290000  53.2820000  42.5610000  46.0750000  54.7380000  45.5360000
  44.6370000  50.0030000  45.7690000  43.4810000  50.4230000  42.9140000
  46.9760000  50.5370000  45.8620000  43.8970000  52.1260000  49.2850000
  43.6450000  54.2150000  42.6450000  45.8820000  54.0720000  44.8870000
  46.7150000  55.9030000  45.1530000  46.5740000  43.5390000  43.5250000
  45.9640000  49.6540000  45.5010000  43.6810000  48.9190000  45.2920000
  47.8860000  50.3160000  45.6980000  44.6130000  54.2860000  41.6460000
  40.9520000  55.3270000  47.6170000  46.9700000  56.0280000  44.2470000
  41.5390000  48.2400000  46.1470000  42.9120000  48.2200000  46.4150000
  42.5410000  49.4050000  44.4010000  44.6430000  47.9730000  44.5860000
  45.6100000  55.2100000  41.8420000  40.6700000  47.6170000  47.0350000
  43.4290000  47.5980000  47.5350000  42.6330000  50.1620000  43.2520000
  41.3080000  48.9790000  44.9040000  44.2980000  46.8880000  43.8140000
  45.9730000  48.3730000  44.7730000  47.7960000  59.1030000  46.5250000
  41.1710000  46.9840000  48.1550000  39.7340000  47.6280000  46.8730000
  42.5490000  46.9640000  48.4240000  43.3890000  46.6230000  43.7350000
  41.4580000  50.5400000  42.5910000  43.3880000  51.4360000  46.5020000
  40.1400000  49.3410000  44.2370000  44.3640000  47.6010000  47.7010000
  45.3040000  46.1760000  43.1430000  46.9780000  47.6030000  44.1950000
  48.3920000  58.8100000  47.2460000  48.2020000  59.8600000  46.0530000
  46.9350000  59.3790000  46.9040000  40.5730000  46.5540000  48.7540000
  43.0360000  46.3140000  49.5720000  41.5540000  51.3870000  41.4520000
  40.2190000  50.1260000  43.0970000  39.2960000  49.0520000  44.5620000
  44.9310000  45.1620000  42.2420000  46.6440000  46.5240000  43.3760000
  47.8900000  47.8120000  44.3580000  44.2630000  46.6990000  50.1960000
  42.2880000  45.2790000  50.2030000  42.5690000  52.3970000  41.4880000
  40.6940000  51.2790000  40.3400000  43.4900000  51.8920000  39.7500000
  43.6570000  45.2330000  41.5950000  45.8600000  44.2050000  41.7300000
  41.0120000  53.1500000  39.6130000  44.4730000  47.9810000  50.6670000
  41.7820000  44.2150000  49.4730000  45.2530000  45.7370000  50.4070000
  42.0690000  45.3120000  51.5790000  40.5300000  52.3460000  39.4610000
  39.9910000  50.0980000  40.0660000  43.3010000  52.7750000  48.9310000
  42.8250000  54.5030000  47.3610000  43.1800000  46.4110000  41.0400000
  46.6340000  43.4170000  42.5850000  43.5270000  52.4880000  40.4890000
  42.8710000  44.0860000  41.5170000  41.9370000  46.4580000  40.4200000
  42.4080000  46.0350000  52.0940000  41.6560000  44.1130000  40.8750000
  40.1150000  49.3390000  40.6230000  45.4510000  44.5420000  39.7730000
  41.0540000  43.2010000  50.0920000  41.9340000  44.1760000  48.5360000
  41.3630000  44.3010000  52.1970000  39.1210000  50.0230000  38.9990000
  39.4210000  50.3870000  42.6520000  39.6780000  52.2600000  38.3650000
  41.9650000  53.2450000  43.2390000  41.5490000  54.6670000  47.9490000
  43.8120000  48.6470000  50.5200000  42.0480000  52.9220000  49.4970000
  43.0770000  55.0450000  46.6230000  46.4070000  46.0560000  51.0860000
  45.1290000  44.8540000  50.0780000  47.4890000  42.4600000  42.0680000
  47.3360000  46.0150000  42.9700000  44.5400000  53.4380000  40.5530000
  43.7110000  47.1980000  41.0840000  46.8050000  43.0290000  39.8340000
  43.1780000  43.2780000  41.9110000  41.1790000  45.2980000  40.3270000
  41.6100000  47.2760000  40.0640000  41.1390000  43.3190000  40.8070000
  40.8560000  43.2450000  51.4610000  40.6960000  42.4860000  49.5790000
  41.2240000  44.3300000  53.1360000  38.6330000  49.2230000  38.8450000
  38.9510000  51.1050000  38.1470000  39.5950000  52.9940000  37.7680000
  41.1810000  53.8710000  48.9990000  46.8120000  57.3690000  48.0670000
  41.7860000  52.3720000  50.2250000  46.6070000  47.3420000  51.5690000
  48.0240000  41.9380000  42.6540000  47.0720000  45.3910000  51.2260000
  47.5700000  42.2560000  40.6900000  45.1770000  53.5050000  39.8520000
  46.8530000  42.8940000  38.8940000  39.9520000  45.2160000  39.7120000
  40.1740000  42.2960000  52.1840000  38.0440000  50.9110000  37.1260000
  39.9610000  53.9390000  49.6490000  47.7770000  47.5280000  52.2570000
  48.4110000  41.2550000  40.2830000  37.8040000  51.9990000  36.2730000
  39.7370000  41.1560000  51.4720000  39.4680000  46.3840000  39.0550000
  39.0020000  54.8170000  49.1200000  46.6070000  55.3170000  40.8220000
  48.5000000  40.9990000  38.8830000  38.6330000  52.2390000  35.8080000
  38.6430000  46.1670000  38.5710000  40.1430000  46.7060000  38.4230000
  40.4990000  40.7460000  51.0130000  39.0610000  41.4210000  50.8130000
  39.3470000  40.5100000  52.0980000  37.4910000  52.7640000  36.8000000
  39.2840000  47.0810000  39.7190000  37.1200000  51.7530000  35.6150000
  39.3390000  55.7360000  49.1680000  38.1730000  54.7460000  49.6390000
  38.8240000  54.5830000  48.1860000  46.1900000  55.6170000  39.9880000
  47.2880000  55.9650000  41.0980000  47.0250000  54.4410000  40.6820000
  48.7950000  41.8110000  38.4210000  47.6210000  40.7330000  38.5440000
  49.1440000  40.2800000  38.7230000  27.7790000  42.1740000  19.9300000
  28.4600000  43.1230000  19.2070000  27.3410000  41.0330000  19.2180000
  28.9680000  44.1790000  19.9430000  28.6580000  43.0790000  17.8380000
  26.6650000  41.2990000  18.5590000  26.9510000  40.3880000  19.8440000
  28.1040000  40.6240000  18.7590000  29.6740000  45.1890000  19.3250000
  28.8280000  44.2080000  20.8820000  29.3860000  44.0920000  17.2190000
  28.3010000  42.3630000  17.3250000  29.8930000  45.1560000  17.9490000
  30.0130000  45.9120000  19.8400000  29.5380000  44.0540000  16.2820000
  30.6410000  46.1920000  17.3180000  30.1540000  46.8410000  16.1700000
  31.8670000  46.5770000  17.9420000  31.0340000  47.4760000  15.2810000
  28.7760000  46.8620000  15.9010000  32.0780000  47.8590000  18.4130000
  32.8570000  45.6140000  18.1530000  30.5170000  48.0980000  14.1610000
  31.9690000  47.4780000  15.4470000  28.2740000  47.4950000  14.7820000
  28.1780000  46.4320000  16.5000000  34.0120000  45.9340000  18.8320000
  31.4160000  48.5250000  18.2660000  33.2460000  48.1940000  19.1020000
  32.7330000  44.7320000  17.8240000  29.1430000  48.1170000  13.8930000
  31.2860000  48.7970000  13.0380000  27.3390000  47.5050000  14.6190000
  34.2110000  47.2200000  19.3150000  33.3790000  49.0790000  19.4220000
  34.6770000  45.2690000  18.9720000  28.9120000  48.8570000  12.6500000
  30.1460000  49.2830000  12.1470000  32.2410000  49.8810000  13.5150000
  32.2470000  47.8510000  12.3320000  35.3820000  47.4060000  20.0030000
  27.7450000  49.2190000  11.9830000  30.2370000  50.0390000  10.9980000
  31.9030000  51.0910000  14.0910000  33.5680000  49.5310000  13.2470000
  31.9020000  46.7660000  11.5600000  33.5770000  48.2500000  12.5190000
  35.6820000  48.7110000  20.4720000  27.8230000  50.0040000  10.8430000
  26.9000000  48.9300000  12.3080000  29.0630000  50.4180000  10.3370000
  31.0860000  50.3000000  10.6600000  32.9190000  51.9820000  14.4400000
  30.9920000  51.3130000  14.2480000  34.5810000  50.4150000  13.6080000
  30.9930000  46.5010000  11.4810000  32.9090000  46.0540000  10.8890000
  34.5820000  47.4810000  11.9410000  34.9840000  49.0030000  21.0940000
  35.7220000  49.3300000  19.7120000  36.5470000  48.7020000  20.9330000
  34.1780000  43.4170000  11.2710000  29.1590000  51.2650000   9.1980000
  32.6090000  53.2400000  15.0240000  34.2530000  51.6210000  14.2080000
  35.4900000  50.1940000  13.4440000  32.5360000  45.0390000   9.9880000
  34.2490000  46.4010000  11.1220000  35.4950000  47.6900000  12.1040000
  30.1740000  52.2750000   9.2340000  28.2990000  51.1560000   8.0860000
  33.3150000  54.4110000  14.6080000  31.3120000  53.4370000  15.5960000
  34.9480000  52.2150000  14.4670000  31.2610000  45.1110000   9.3420000
  33.4650000  44.0820000   9.4760000  34.9410000  45.8930000  10.7160000
  30.2330000  53.1600000  10.3070000  31.1310000  52.3660000   8.2350000
  28.1350000  52.2230000   7.2070000  27.5950000  49.9760000   7.8120000
  33.6790000  54.6160000  13.2820000  33.6040000  55.3950000  15.5450000
  30.4290000  54.3800000  15.1070000  30.9050000  52.6530000  16.6770000
  30.7840000  46.2890000   8.7860000  30.4750000  43.9640000   9.2630000
  34.2390000  43.2950000  10.3310000  33.5700000  43.8800000   8.1080000
  31.2500000  54.0920000  10.3910000  29.5700000  53.1230000  10.9860000
  32.1440000  53.3160000   8.2990000  31.0950000  51.7700000   7.4960000
  28.6170000  53.0280000   7.3590000  27.2820000  52.1380000   6.1110000
  27.0260000  50.2650000  10.3980000  26.7250000  49.9010000   6.7450000
  34.3200000  55.7810000  12.8990000  33.4870000  53.9490000  12.6330000
  34.2330000  56.5760000  15.1660000  33.3700000  55.2600000  16.4560000
  29.6530000  52.8000000  17.2430000  30.6810000  54.9230000  14.3690000
  29.1540000  54.5450000  15.6950000  31.5020000  52.0040000  17.0320000
  29.5420000  46.3360000   8.1670000  27.7200000  49.2160000   8.3690000
  29.2600000  43.9910000   8.6210000  30.7820000  43.1560000   9.6570000
  34.4090000  42.9060000   7.5800000  33.0560000  44.4200000   7.5190000
  35.0940000  42.3380000   9.8140000  31.3150000  47.0750000   8.8300000
  32.2180000  54.1640000   9.3920000  31.2890000  54.6860000  11.1320000
  32.7820000  53.3830000   7.5980000  26.5560000  50.9830000   5.8930000
  27.2000000  52.8720000   5.5140000  26.2370000  49.1010000   6.5910000
  34.5740000  55.9060000  11.9930000  34.5910000  56.7730000  13.8410000
  34.4160000  57.2470000  15.8130000  28.7850000  53.7490000  16.7450000
  28.5560000  55.2050000  15.3630000  29.3910000  52.2500000  17.9710000
  28.7830000  45.1760000   8.0730000  29.2140000  47.1530000   7.8100000
  28.7440000  43.1960000   8.5530000  35.1750000  42.1340000   8.4360000
  35.6290000  41.8160000  10.4000000  34.4570000  42.7720000   6.6400000
  33.2140000  55.0880000   9.5880000  25.6480000  50.7890000   4.8720000
  35.1950000  57.9020000  13.3560000  27.5650000  53.8170000  17.3950000
  27.5570000  45.0940000   7.4580000  36.0160000  41.1330000   8.0290000
  34.2110000  55.1940000   8.5680000  25.4080000  51.8770000   4.0190000
  35.4010000  58.9810000  14.2710000  26.6060000  54.6950000  16.8660000
  27.0720000  46.2610000   6.8010000  36.1040000  40.8770000   6.6290000
  33.7940000  55.4950000   7.7340000  34.8920000  55.8420000   8.8440000
  34.6300000  54.3190000   8.4280000  25.0950000  52.6410000   4.5460000
  26.2370000  52.1170000   3.5540000  24.7250000  51.6310000   3.3610000
  35.8060000  59.7370000  13.7990000  34.5400000  59.2570000  14.6500000
  35.9970000  58.6880000  14.9920000  26.4290000  54.4600000  15.9320000
  25.7780000  54.6240000  17.3850000  26.9430000  55.6140000  16.9140000
  26.2480000  46.0450000   6.3170000  26.8890000  46.9580000   7.4650000
  27.7470000  46.5840000   6.1690000  36.7490000  40.1570000   6.4690000
  36.4000000  41.6880000   6.1670000  35.2260000  40.6100000   6.2900000
  30.3330000  56.6700000  19.9300000  31.0140000  57.6190000  19.2070000
  29.8960000  55.5300000  19.2180000  31.5220000  58.6750000  19.9430000
  31.2120000  57.5750000  17.8380000  29.2200000  55.7950000  18.5590000
  29.5060000  54.8840000  19.8440000  30.6580000  55.1200000  18.7590000
  32.2280000  59.6860000  19.3250000  31.3830000  58.7040000  20.8820000
  31.9410000  58.5880000  17.2190000  30.8550000  56.8600000  17.3250000
  32.4470000  59.6520000  17.9490000  32.5670000  60.4080000  19.8400000
  32.0930000  58.5500000  16.2820000  33.1950000  60.6880000  17.3180000
  32.7080000  61.3380000  16.1700000  34.4210000  61.0730000  17.9420000
  33.5880000  61.9720000  15.2810000  31.3300000  61.3580000  15.9010000
  34.6320000  62.3550000  18.4130000  35.4120000  60.1100000  18.1530000
  33.0710000  62.5940000  14.1610000  34.5230000  61.9750000  15.4470000
  30.8290000  61.9910000  14.7820000  30.7320000  60.9280000  16.5000000
  36.5660000  60.4300000  18.8320000  33.9700000  63.0210000  18.2660000
  35.8000000  62.6900000  19.1020000  35.2870000  59.2280000  17.8240000
  31.6970000  62.6130000  13.8930000  33.8400000  63.2930000  13.0380000
  29.8930000  62.0020000  14.6190000  36.7660000  61.7160000  19.3150000
  35.9330000  63.5750000  19.4220000  37.2310000  59.7650000  18.9720000
  31.4670000  63.3530000  12.6500000  32.7000000  63.7790000  12.1470000
  34.7960000  64.3770000  13.5150000  34.8010000  62.3470000  12.3320000
  37.9360000  61.9020000  20.0030000  30.2990000  63.7150000  11.9830000
  32.7910000  64.5360000  10.9980000  34.4570000  65.5880000  14.0910000
  36.1230000  64.0270000  13.2470000  34.4570000  61.2620000  11.5600000
  36.1320000  62.7470000  12.5190000  38.2360000  63.2070000  20.4720000
  30.3780000  64.5000000  10.8430000  29.4540000  63.4260000  12.3080000
  31.6170000  64.9140000  10.3370000  33.6400000  64.7970000  10.6600000
  35.4730000  66.4790000  14.4400000  33.5460000  65.8090000  14.2480000
  37.1350000  64.9110000  13.6080000  33.5480000  60.9970000  11.4810000
  35.4630000  60.5500000  10.8890000  37.1370000  61.9770000  11.9410000
  37.5380000  63.4990000  21.0940000  38.2760000  63.8260000  19.7120000
  39.1010000  63.1990000  20.9330000  36.7330000  57.9130000  11.2710000
  31.7130000  65.7610000   9.1980000  35.1630000  67.7360000  15.0240000
  36.8080000  66.1170000  14.2080000  38.0440000  64.6900000  13.4440000
  35.0900000  59.5350000   9.9880000  36.8030000  60.8970000  11.1220000
  38.0490000  62.1860000  12.1040000  32.7280000  66.7710000   9.2340000
  30.8530000  65.6520000   8.0860000  35.8700000  68.9070000  14.6080000
  33.8670000  67.9330000  15.5960000  37.5020000  66.7110000  14.4670000
  33.8160000  59.6070000   9.3420000  36.0190000  58.5790000   9.4760000
  37.4950000  60.3890000  10.7160000  32.7870000  67.6560000  10.3070000
  33.6860000  66.8620000   8.2350000  30.6890000  66.7200000   7.2070000
  30.1500000  64.4720000   7.8120000  36.2340000  69.1120000  13.2820000
  36.1580000  69.8910000  15.5450000  32.9840000  68.8760000  15.1070000
  33.4600000  67.1490000  16.6770000  33.3390000  60.7850000   8.7860000
  33.0300000  58.4600000   9.2630000  36.7930000  57.7910000  10.3310000
  36.1240000  58.3770000   8.1080000  33.8040000  68.5890000  10.3910000
  32.1240000  67.6190000  10.9860000  34.6980000  67.8120000   8.2990000
  33.6490000  66.2660000   7.4960000  31.1710000  67.5240000   7.3590000
  29.8370000  66.6340000   6.1110000  29.5800000  64.7610000  10.3980000
  29.2800000  64.3970000   6.7450000  36.8740000  70.2770000  12.8990000
  36.0410000  68.4460000  12.6330000  36.7870000  71.0720000  15.1660000
  35.9240000  69.7560000  16.4560000  32.2070000  67.2960000  17.2430000
  33.2350000  69.4190000  14.3690000  31.7080000  69.0410000  15.6950000
  34.0560000  66.5000000  17.0320000  32.0960000  60.8320000   8.1670000
  30.2740000  63.7120000   8.3690000  31.8140000  58.4870000   8.6210000
  33.3360000  57.6520000   9.6570000  36.9640000  57.4020000   7.5800000
  35.6100000  58.9160000   7.5190000  37.6480000  56.8340000   9.8140000
  33.8690000  61.5720000   8.8300000  34.7720000  68.6600000   9.3920000
  33.8430000  69.1820000  11.1320000  35.3360000  67.8790000   7.5980000
  29.1100000  65.4790000   5.8930000  29.7540000  67.3680000   5.5140000
  28.7910000  63.5970000   6.5910000  37.1290000  70.4020000  11.9930000
  37.1460000  71.2690000  13.8410000  36.9700000  71.7430000  15.8130000
  31.3390000  68.2450000  16.7450000  31.1110000  69.7010000  15.3630000
  31.9450000  66.7460000  17.9710000  31.3380000  59.6720000   8.0730000
  31.7690000  61.6500000   7.8100000  31.2980000  57.6920000   8.5530000
  37.7290000  56.6300000   8.4360000  38.1830000  56.3120000  10.4000000
  37.0110000  57.2680000   6.6400000  35.7690000  69.5840000   9.5880000
  28.2020000  65.2850000   4.8720000  37.7490000  72.3990000  13.3560000
  30.1190000  68.3130000  17.3950000  30.1110000  59.5900000   7.4580000
  38.5700000  55.6290000   8.0290000  36.7660000  69.6900000   8.5680000
  27.9630000  66.3730000   4.0190000  37.9550000  73.4770000  14.2710000
  29.1600000  69.1910000  16.8660000  29.6270000  60.7580000   6.8010000
  38.6590000  55.3730000   6.6290000  36.3480000  69.9910000   7.7340000
  37.4470000  70.3390000   8.8440000  37.1840000  68.8150000   8.4280000
  27.6490000  67.1370000   4.5460000  28.7910000  66.6130000   3.5540000
  27.2790000  66.1270000   3.3610000  38.3600000  74.2340000  13.7990000
  37.0940000  73.7530000  14.6500000  38.5510000  73.1840000  14.9920000
  28.9830000  68.9560000  15.9320000  28.3320000  69.1200000  17.3850000
  29.4980000  70.1100000  16.9140000  28.8020000  60.5410000   6.3170000
  29.4430000  61.4540000   7.4650000  30.3020000  61.0800000   6.1690000
  39.3030000  54.6530000   6.4690000  38.9540000  56.1850000   6.1670000
  37.7800000  55.1060000   6.2900000  50.1450000  72.5210000  45.6100000
  49.5410000  71.3910000  46.0950000  50.6320000  63.3300000  52.7260000
  49.1830000  71.1950000  47.4200000  48.1960000  62.8120000  51.3560000
  50.6720000  63.9480000  51.9660000  49.9340000  63.6220000  53.3480000
  51.4970000  63.3210000  53.1870000  48.5540000  70.0140000  47.7990000
  46.2380000  69.3040000  43.3860000  48.5190000  58.4990000  40.3620000
  48.3280000  63.6970000  51.6760000  46.2620000  68.0560000  47.8500000
  48.3190000  69.8780000  48.7100000  49.8980000  66.8330000  46.7210000
  47.5590000  67.8580000  47.2780000  47.8690000  66.6010000  46.6940000
  48.2650000  69.0290000  46.8620000  46.8520000  65.7100000  46.3450000
  49.2030000  66.2390000  46.4620000  45.1830000  67.7790000  42.5610000
  48.6290000  69.2340000  45.5360000  47.1910000  64.4990000  45.7690000
  46.0350000  64.9190000  42.9140000  49.5310000  65.0340000  45.8620000
  46.4520000  66.6220000  49.2850000  46.2000000  68.7110000  42.6450000
  48.4370000  68.5680000  44.8870000  49.2690000  70.3990000  45.1530000
  49.1280000  58.0360000  43.5250000  48.5180000  64.1500000  45.5010000
  46.2350000  63.4160000  45.2920000  50.4400000  64.8120000  45.6980000
  47.1680000  68.7820000  41.6460000  43.5060000  69.8230000  47.6170000
  49.5240000  70.5240000  44.2470000  44.0930000  62.7360000  46.1470000
  45.4670000  62.7160000  46.4150000  45.0950000  63.9010000  44.4010000
  47.1970000  62.4690000  44.5860000  48.1640000  69.7060000  41.8420000
  43.2240000  62.1130000  47.0350000  45.9830000  62.0950000  47.5350000
  45.1870000  64.6580000  43.2520000  43.8620000  63.4750000  44.9040000
  46.8520000  61.3840000  43.8140000  48.5270000  62.8690000  44.7730000
  50.3500000  73.5990000  46.5250000  43.7260000  61.4800000  48.1550000
  42.2880000  62.1240000  46.8730000  45.1030000  61.4600000  48.4240000
  45.9430000  61.1200000  43.7350000  44.0120000  65.0360000  42.5910000
  45.9420000  65.9320000  46.5020000  42.6950000  63.8370000  44.2370000
  46.9190000  62.0970000  47.7010000  47.8580000  60.6720000  43.1430000
  49.5320000  62.0990000  44.1950000  50.9470000  73.3070000  47.2460000
  50.7560000  74.3560000  46.0530000  49.4900000  73.8750000  46.9040000
  43.1270000  61.0500000  48.7540000  45.5910000  60.8100000  49.5720000
  44.1090000  65.8830000  41.4520000  42.7730000  64.6220000  43.0970000
  41.8500000  63.5480000  44.5620000  47.4860000  59.6580000  42.2420000
  49.1990000  61.0200000  43.3760000  50.4440000  62.3080000  44.3580000
  46.8170000  61.1960000  50.1960000  44.8420000  59.7750000  50.2030000
  45.1230000  66.8930000  41.4880000  43.2490000  65.7750000  40.3400000
  46.0440000  66.3890000  39.7500000  46.2110000  59.7290000  41.5950000
  48.4140000  58.7010000  41.7300000  43.5660000  67.6470000  39.6130000
  47.0270000  62.4770000  50.6670000  44.3360000  58.7110000  49.4730000
  47.8070000  60.2330000  50.4070000  44.6230000  59.8080000  51.5790000
  43.0850000  66.8420000  39.4610000  42.5450000  64.5940000  40.0660000
  45.8550000  67.2710000  48.9310000  45.3790000  68.9990000  47.3610000
  45.7340000  60.9070000  41.0400000  49.1890000  57.9140000  42.5850000
  46.0810000  66.9840000  40.4890000  45.4250000  58.5830000  41.5170000
  44.4920000  60.9540000  40.4200000  44.9620000  60.5310000  52.0940000
  44.2100000  58.6090000  40.8750000  42.6690000  63.8350000  40.6230000
  48.0050000  59.0380000  39.7730000  43.6080000  57.6970000  50.0920000
  44.4880000  58.6720000  48.5360000  43.9170000  58.7970000  52.1970000
  41.6750000  64.5190000  38.9990000  41.9750000  64.8830000  42.6520000
  42.2320000  66.7560000  38.3650000  44.5190000  67.7420000  43.2390000
  44.1040000  69.1630000  47.9490000  46.3660000  63.1430000  50.5200000
  44.6020000  67.4190000  49.4970000  45.6310000  69.5410000  46.6230000
  48.9620000  60.5520000  51.0860000  47.6830000  59.3500000  50.0780000
  50.0440000  56.9560000  42.0680000  49.8900000  60.5110000  42.9700000
  47.0940000  67.9340000  40.5530000  46.2650000  61.6940000  41.0840000
  49.3590000  57.5250000  39.8340000  45.7320000  57.7740000  41.9110000
  43.7330000  59.7940000  40.3270000  44.1640000  61.7720000  40.0640000
  43.6940000  57.8150000  40.8070000  43.4100000  57.7410000  51.4610000
  43.2510000  56.9820000  49.5790000  43.7780000  58.8260000  53.1360000
  41.1870000  63.7190000  38.8450000  41.5050000  65.6020000  38.1470000
  42.1490000  67.4910000  37.7680000  43.7350000  68.3670000  48.9990000
  49.3660000  71.8650000  48.0670000  44.3400000  66.8680000  50.2250000
  49.1610000  61.8380000  51.5690000  50.5790000  56.4340000  42.6540000
  49.6260000  59.8880000  51.2260000  50.1250000  56.7530000  40.6900000
  47.7320000  68.0010000  39.8520000  49.4070000  57.3910000  38.8940000
  42.5060000  59.7120000  39.7120000  42.7280000  56.7920000  52.1840000
  40.5980000  65.4070000  37.1260000  42.5150000  68.4360000  49.6490000
  50.3310000  62.0240000  52.2570000  50.9650000  55.7520000  40.2830000
  40.3580000  66.4950000  36.2730000  42.2910000  55.6520000  51.4720000
  42.0220000  60.8800000  39.0550000  41.5560000  69.3140000  49.1200000
  49.1610000  69.8130000  40.8220000  51.0540000  55.4960000  38.8830000
  41.1870000  66.7360000  35.8080000  41.1970000  60.6630000  38.5710000
  42.6970000  61.2020000  38.4230000  43.0540000  55.2430000  51.0130000
  41.6150000  55.9170000  50.8130000  41.9010000  55.0060000  52.0980000
  40.0450000  67.2600000  36.8000000  41.8380000  61.5770000  39.7190000
  39.6740000  66.2490000  35.6150000  41.8930000  70.2330000  49.1680000
  40.7270000  69.2420000  49.6390000  41.3780000  69.0790000  48.1860000
  48.7440000  70.1130000  39.9880000  49.8420000  70.4610000  41.0980000
  49.5790000  68.9370000  40.6820000  51.3500000  56.3070000  38.4210000
  50.1750000  55.2290000  38.5440000  51.6980000  54.7760000  38.7230000
  24.1830000   7.3610000  20.9990000  25.0910000   7.5560000  22.0200000
  23.9430000   8.4490000  20.1460000  33.6290000  -1.0900000  25.9410000
  25.8170000   8.7110000  22.2380000  24.7720000   8.6900000  19.6810000
  23.2600000   8.2030000  19.4880000  23.6300000   9.2140000  20.6730000
  32.1050000   0.4530000  24.2350000  29.8240000  11.2580000  27.2590000
  28.7680000   9.7330000  26.4340000  25.7350000   9.4450000  21.6410000
  26.8340000   7.7290000  24.2130000  32.7130000  -0.0100000  27.3980000
  25.5600000   6.8370000  26.5250000  27.6940000   7.8380000  25.3250000
  27.5980000   6.9900000  26.4640000  32.0000000   0.6550000  25.6030000
  28.7720000   6.6120000  27.1250000  26.3580000   6.5760000  26.9700000
  26.1300000   6.5480000  23.9390000  26.6700000   8.7960000  23.3340000
  28.6810000   5.8560000  28.2740000  29.5280000   3.0740000  27.6080000
  26.2800000   5.7910000  28.1100000  29.2160000  11.4950000  30.4960000
  27.7950000   0.5630000  24.7480000  31.5910000   0.9920000  23.6460000
  25.2600000   6.4740000  22.8720000  26.2550000   5.7890000  24.4960000
  27.4470000   5.4290000  28.7770000  29.8210000   5.3700000  29.1650000
  25.4350000   5.5020000  28.4350000  27.3180000   1.7480000  24.2000000
  27.2790000  -0.2310000  24.6800000  24.7720000   5.6730000  22.7180000
  32.1030000   6.1040000  29.3740000  30.7760000   6.4530000  29.6420000
  29.0520000   4.6700000  30.2880000  30.7820000   4.4230000  28.4590000
  26.0920000   1.6670000  23.5850000  33.1160000   6.9880000  29.7350000
  30.4380000   7.6640000  30.2180000  29.5690000   4.0490000  31.4080000
  27.6780000   4.6900000  30.0200000  30.4370000   3.3380000  27.6870000
  32.1120000   4.8230000  28.6460000  25.6070000   2.8340000  22.9280000
  32.7880000   8.1930000  30.3350000  34.0250000   6.7660000  29.5710000
  31.4540000   8.5550000  30.5670000  29.5270000   7.8860000  30.3750000
  28.6890000   3.4140000  32.2970000  30.5040000   4.0510000  31.5740000
  26.8090000   4.0680000  30.9080000  29.6210000   6.8730000  26.7870000
  31.4440000   2.6260000  27.0160000  33.1170000   4.0530000  28.0680000
  26.2820000   3.1560000  22.2960000  25.4240000   3.5310000  23.5920000
  24.7830000   2.6180000  22.4440000  31.9050000  11.8320000  32.5830000
  31.1440000   9.8120000  31.1510000  29.1760000   2.7640000  33.4450000
  27.3110000   3.4340000  32.0280000  25.8740000   4.0780000  30.7460000
  31.0710000   1.6120000  26.1150000  32.7840000   2.9740000  27.2490000
  34.0300000   4.2630000  28.2310000  29.8470000  10.0100000  31.7230000
  31.8500000  10.9840000  30.7350000  28.4280000   1.7290000  34.0760000
  30.4020000   3.1500000  34.0690000  29.3170000  -0.2720000  25.7840000
  28.7090000   8.8470000  25.3610000  29.7960000   1.6840000  25.4690000
  29.8500000   3.6480000  24.9570000  30.6130000   4.4320000  34.5400000
  29.4400000   9.2250000  32.8040000  28.9640000  10.9530000  31.2340000
  32.2140000  11.1880000  29.4090000  31.3920000   2.1870000  34.2800000
  27.9210000   0.6650000  33.3460000  28.2090000   1.7620000  35.4520000
  29.0100000   0.5370000  25.3900000  32.1390000  11.9680000  31.6720000
  29.6660000   8.9380000  24.3620000  29.3190000   2.8610000  24.9130000
  32.7740000  -0.1320000  26.4580000  32.5470000   2.5060000  34.9590000
  30.0370000   8.5760000  33.1590000  31.7810000   4.7660000  35.2290000
  29.9510000   5.0970000  34.3930000  33.4830000   8.7870000  30.5940000
  32.9440000  -0.5210000  23.7070000  32.0220000  10.5220000  28.7600000
  32.7680000  13.1490000  31.2930000  27.1930000  -0.3490000  33.9650000
  31.2680000   1.3040000  33.9510000  27.5030000   0.7510000  36.0700000
  28.0730000   0.6260000  32.4090000  28.1880000   9.3730000  33.3700000
  28.5480000   2.4850000  35.9670000  27.6890000  11.1170000  31.8220000
  26.7130000   3.0040000  32.6270000  32.8540000  12.3540000  29.0260000
  28.1050000   9.6960000  27.1130000  29.7850000  10.6650000  26.5180000
  29.6300000   8.3430000  23.6230000  30.6790000   9.8880000  24.4260000
  27.1520000   9.6010000  23.4860000  28.0770000   2.9090000  24.2940000
  33.4760000   2.4650000  26.8430000  32.7460000   3.7920000  35.4420000
  33.2120000   1.8420000  35.0990000  34.1640000  -1.6110000  26.5270000
  33.7100000  -1.2930000  24.5630000  31.9140000   5.6510000  35.5490000
  32.9510000  13.8190000  31.9400000  27.3630000   0.7810000  37.0090000
  26.9950000  -0.3050000  35.3340000  26.8360000  -1.0640000  33.4520000
  27.3200000  10.3210000  32.8720000  27.9250000   8.8220000  34.0980000
  27.0910000  11.7770000  31.4900000  33.1260000  13.3450000  29.9680000
  33.1090000  12.4790000  28.1200000  31.3170000   9.9550000  23.7250000
  30.7530000  10.7370000  25.5190000  27.7490000   3.7260000  23.9370000
  32.9920000  -0.6550000  22.7670000  33.9170000   3.9780000  36.1300000
  31.7490000  11.6600000  25.7150000  26.3140000  -1.2540000  36.0570000
  26.1000000  10.3900000  33.5220000  33.7300000  14.4750000  29.4830000
  34.5510000  -2.2940000  24.1560000  34.2170000   5.2840000  36.5990000
  32.7460000  11.7670000  24.6950000  25.8760000  -2.3940000  35.3450000
  25.1410000  11.2680000  32.9930000  33.9360000  15.5530000  30.3980000
  34.6390000  -2.5500000  22.7560000  33.5190000   5.5760000  37.2210000
  33.1650000  10.8910000  24.5550000  35.2840000  -3.2700000  22.5960000
  33.4270000  12.4150000  24.9710000  34.2570000   5.9020000  35.8390000
  35.0820000   5.2750000  37.0600000  25.4860000  -3.0400000  35.9710000
  26.6390000  -2.8030000  34.8860000  25.2000000  -2.1280000  34.6860000
  24.3130000  11.1960000  33.5120000  24.9640000  11.0330000  32.0590000
  25.4780000  12.1870000  33.0410000  33.0750000  15.8290000  30.7770000
  34.5320000  15.2610000  31.1190000  34.3410000  16.3100000  29.9260000
  34.9350000  -1.7390000  22.2940000  33.7610000  -2.8170000  22.4170000
  32.3290000  12.0670000  23.8610000  30.3810000   7.4230000  37.1260000
  31.2880000   7.6170000  38.1470000  30.1410000   8.5100000  36.2730000
  39.8270000  -1.0290000  42.0680000  32.0150000   8.7720000  38.3650000
  30.9700000   8.7510000  35.8080000  29.4580000   8.2640000  35.6150000
  29.8280000   9.2750000  36.8000000  38.3020000   0.5140000  40.3620000
  36.0210000  11.3190000  43.3860000  34.9660000   9.7940000  42.5610000
  31.9320000   9.5060000  37.7680000  33.0320000   7.7900000  40.3400000
  38.9110000   0.0510000  43.5250000  31.7580000   6.8980000  42.6520000
  33.8920000   7.8990000  41.4520000  33.7960000   7.0510000  42.5910000
  38.1980000   0.7160000  41.7300000  34.9700000   6.6730000  43.2520000
  32.5560000   6.6380000  43.0970000  32.3280000   6.6090000  40.0660000
  32.8680000   8.8570000  39.4610000  34.8780000   5.9170000  44.4010000
  35.7260000   3.1350000  43.7350000  32.4780000   5.8520000  44.2370000
  35.4140000  11.5570000  46.6230000  33.9930000   0.6240000  40.8750000
  37.7880000   1.0540000  39.7730000  31.4580000   6.5350000  38.9990000
  32.4520000   5.8500000  40.6230000  33.6450000   5.4910000  44.9040000
  36.0180000   5.4310000  45.2920000  31.6330000   5.5640000  44.5620000
  33.5160000   1.8100000  40.3270000  33.4770000  -0.1700000  40.8070000
  30.9700000   5.7340000  38.8450000  38.3010000   6.1650000  45.5010000
  36.9740000   6.5150000  45.7690000  35.2500000   4.7320000  46.4150000
  36.9800000   4.4850000  44.5860000  32.2890000   1.7280000  39.7120000
  39.3140000   7.0490000  45.8620000  36.6350000   7.7250000  46.3450000
  35.7660000   4.1100000  47.5350000  33.8760000   4.7510000  46.1470000
  36.6350000   3.3990000  43.8140000  38.3100000   4.8840000  44.7730000
  31.8050000   2.8950000  39.0550000  38.9860000   8.2540000  46.4620000
  40.2230000   6.8270000  45.6980000  37.6520000   8.6160000  46.6940000
  35.7250000   7.9470000  46.5020000  34.8860000   3.4750000  48.4240000
  36.7020000   4.1120000  47.7010000  33.0070000   4.1290000  47.0350000
  35.8180000   6.9340000  42.9140000  37.6420000   2.6870000  43.1430000
  39.3150000   4.1140000  44.1950000  32.4800000   3.2170000  38.4230000
  31.6210000   3.5920000  39.7190000  30.9800000   2.6790000  38.5710000
  38.1020000  11.8940000  48.7100000  37.3420000   9.8730000  47.2780000
  35.3740000   2.8250000  49.5720000  33.5090000   3.4960000  48.1550000
  32.0710000   4.1390000  46.8730000  37.2690000   1.6730000  42.2420000
  38.9820000   3.0350000  43.3760000  40.2270000   4.3240000  44.3580000
  36.0450000  10.0710000  47.8500000  38.0480000  11.0450000  46.8620000
  34.6250000   1.7900000  50.2030000  36.6000000   3.2110000  50.1960000
  35.5150000  -0.2110000  41.9110000  34.9060000   8.9090000  41.4880000
  35.9940000   1.7450000  41.5950000  36.0480000   3.7090000  41.0840000
  36.8100000   4.4930000  50.6670000  35.6380000   9.2860000  48.9310000
  35.1620000  11.0140000  47.3610000  38.4120000  11.2490000  45.5360000
  37.5900000   2.2480000  50.4070000  34.1190000   0.7260000  49.4730000
  34.4060000   1.8230000  51.5790000  35.2080000   0.5980000  41.5170000
  38.3370000  12.0290000  47.7990000  35.8640000   9.0000000  40.4890000
  35.5170000   2.9230000  41.0400000  38.9720000  -0.0710000  42.5850000
  38.7450000   2.5670000  51.0860000  36.2350000   8.6370000  49.2850000
  37.9790000   4.8280000  51.3560000  36.1490000   5.1580000  50.5200000
  39.6810000   8.8480000  46.7210000  39.1420000  -0.4600000  39.8340000
  38.2200000  10.5830000  44.8870000  38.9660000  13.2100000  47.4200000
  33.3910000  -0.2880000  50.0920000  37.4660000   1.3650000  50.0780000
  33.7000000   0.8130000  52.1970000  34.2710000   0.6880000  48.5360000
  34.3850000   9.4340000  49.4970000  34.7450000   2.5460000  52.0940000
  33.8870000  11.1790000  47.9490000  32.9100000   3.0660000  48.7540000
  39.0520000  12.4150000  45.1530000  34.3020000   9.7570000  43.2390000
  35.9830000  10.7260000  42.6450000  35.8270000   8.4040000  39.7500000
  36.8770000   9.9490000  40.5530000  33.3490000   9.6620000  39.6130000
  34.2750000   2.9700000  40.4200000  39.6730000   2.5260000  42.9700000
  38.9440000   3.8530000  51.5690000  39.4090000   1.9030000  51.2260000
  40.3620000  -1.5500000  42.6540000  39.9080000  -1.2320000  40.6900000
  38.1110000   5.7120000  51.6760000  39.1490000  13.8810000  48.0670000
  33.5610000   0.8420000  53.1360000  33.1930000  -0.2440000  51.4610000
  33.0340000  -1.0030000  49.5790000  33.5180000  10.3820000  48.9990000
  34.1230000   8.8830000  50.2250000  33.2890000  11.8380000  47.6170000
  39.3240000  13.4060000  46.0950000  39.3070000  12.5400000  44.2470000
  37.5150000  10.0160000  39.8520000  36.9510000  10.7980000  41.6460000
  33.9470000   3.7870000  40.0640000  39.1900000  -0.5940000  38.8940000
  40.1150000   4.0390000  52.2570000  37.9470000  11.7210000  41.8420000
  32.5110000  -1.1930000  52.1840000  32.2980000  10.4510000  49.6490000
  39.9280000  14.5360000  45.6100000  40.7480000  -2.2330000  40.2830000
  40.4150000   5.3450000  52.7260000  38.9440000  11.8280000  40.8220000
  32.0740000  -2.3330000  51.4720000  31.3390000  11.3290000  49.1200000
  40.1330000  15.6140000  46.5250000  40.8370000  -2.4890000  38.8830000
  39.7170000   5.6370000  53.3480000  39.3620000  10.9520000  40.6820000
  41.4820000  -3.2090000  38.7230000  39.6250000  12.4760000  41.0980000
  40.4550000   5.9640000  51.9660000  41.2800000   5.3360000  53.1870000
  31.6840000  -2.9790000  52.0980000  32.8370000  -2.7420000  51.0130000
  31.3980000  -2.0670000  50.8130000  30.5100000  11.2570000  49.6390000
  31.1610000  11.0940000  48.1860000  31.6760000  12.2480000  49.1680000
  39.2730000  15.8900000  46.9040000  40.7300000  15.3220000  47.2460000
  40.5390000  16.3710000  46.0530000  41.1330000  -1.6780000  38.4210000
  39.9580000  -2.7560000  38.5440000  38.5270000  12.1280000  39.9880000
  35.0660000  13.3030000  52.1840000  35.7470000  14.2530000  51.4610000
  34.6280000  12.1630000  51.4720000  36.2550000  15.3090000  52.1970000
  35.9450000  14.2080000  50.0920000  33.9520000  12.4290000  50.8130000
  35.3910000  11.7540000  51.0130000  34.2380000  11.5180000  52.0980000
  36.9610000  16.3190000  51.5790000  36.1150000  15.3380000  53.1360000
  36.6730000  15.2220000  49.4730000  35.5880000  13.4930000  49.5790000
  37.1800000  16.2860000  50.2030000  37.3000000  17.0420000  52.0940000
  36.8250000  15.1840000  48.5360000  37.9280000  17.3220000  49.5720000
  37.4410000  17.9710000  48.4240000  39.1540000  17.7070000  50.1960000
  38.3210000  18.6060000  47.5350000  36.0630000  17.9920000  48.1550000
  39.3650000  18.9890000  50.6670000  40.1440000  16.7440000  50.4070000
  37.8040000  19.2280000  46.4150000  39.2560000  18.6080000  47.7010000
  35.5610000  18.6250000  47.0350000  35.4650000  17.5620000  48.7540000
  40.5330000  19.3240000  51.3560000  38.7030000  19.6550000  50.5200000
  41.2990000  17.0630000  51.0860000  40.0200000  15.8620000  50.0780000
  36.4300000  19.2470000  46.1470000  38.5730000  19.9270000  45.2920000
  34.6250000  18.6350000  46.8730000  41.4980000  18.3500000  51.5690000
  40.6660000  20.2090000  51.6760000  41.9640000  16.3990000  51.2260000
  36.1990000  19.9870000  44.9040000  37.4330000  20.4130000  44.4010000
  39.5280000  21.0110000  45.7690000  39.5340000  18.9810000  44.5860000
  42.6690000  18.5360000  52.2570000  35.0320000  20.3490000  44.2370000
  37.5240000  21.1690000  43.2520000  39.1890000  22.2210000  46.3450000
  40.8550000  20.6610000  45.5010000  39.1890000  17.8960000  43.8140000
  40.8640000  19.3800000  44.7730000  42.9690000  19.8410000  52.7260000
  35.1100000  21.1340000  43.0970000  34.1870000  20.0600000  44.5620000
  36.3500000  21.5480000  42.5910000  38.3730000  21.4300000  42.9140000
  40.2060000  23.1120000  46.6940000  38.2790000  22.4430000  46.5020000
  41.8680000  21.5450000  45.8620000  38.2800000  17.6310000  43.7350000
  40.1960000  17.1840000  43.1430000  41.8690000  18.6110000  44.1950000
  43.0090000  20.4600000  51.9660000  43.8340000  19.8320000  53.1870000
  42.2710000  20.1330000  53.3480000  34.3120000  21.3950000  42.6520000
  36.4460000  22.3950000  41.4520000  39.8960000  24.3700000  47.2780000
  41.5400000  22.7500000  46.4620000  42.7770000  21.3240000  45.6980000
  39.8230000  16.1690000  42.2420000  41.5360000  17.5310000  43.3760000
  42.7820000  18.8200000  44.3580000  37.4610000  23.4050000  41.4880000
  35.5860000  22.2860000  40.3400000  40.6020000  25.5410000  46.8620000
  38.5990000  24.5670000  47.8500000  42.2350000  23.3440000  46.7210000
  38.5480000  16.2410000  41.5950000  40.7520000  15.2120000  41.7300000
  42.2280000  17.0230000  42.9700000  37.5200000  24.2900000  42.5610000
  38.4180000  23.4960000  40.4890000  35.4220000  23.3530000  39.4610000
  34.8820000  21.1060000  40.0660000  40.9660000  25.7460000  45.5360000
  40.8910000  26.5250000  47.7990000  37.7160000  25.5100000  47.3610000
  38.1920000  23.7820000  48.9310000  38.0710000  17.4190000  41.0400000
  37.7620000  15.0940000  41.5170000  40.8570000  15.0100000  40.3620000
  41.5260000  14.4250000  42.5850000  38.5370000  25.2220000  42.6450000
  36.8570000  24.2530000  43.2390000  39.4310000  24.4460000  40.5530000
  38.3820000  22.9000000  39.7500000  35.9030000  24.1580000  39.6130000
  34.5690000  23.2680000  38.3650000  35.0070000  20.3460000  40.6230000
  34.0120000  21.0310000  38.9990000  41.6060000  26.9110000  45.1530000
  40.7740000  25.0790000  44.8870000  41.5200000  27.7060000  47.4200000
  40.6570000  26.3900000  48.7100000  36.4410000  25.6750000  47.9490000
  37.9680000  26.0530000  46.6230000  36.9400000  23.9300000  49.4970000
  38.7890000  23.1340000  49.2850000  36.8290000  17.4660000  40.4200000
  38.6020000  18.2050000  41.0840000  36.5470000  15.1210000  40.8750000
  38.0690000  14.2860000  41.9110000  42.3810000  13.4680000  42.0680000
  41.4650000  14.5470000  43.5250000  41.6960000  14.0360000  39.8340000
  40.3430000  15.5500000  39.7730000  39.5050000  25.2940000  41.6460000
  38.5760000  25.8160000  43.3860000  40.0690000  24.5130000  39.8520000
  33.8430000  22.1130000  38.1470000  34.4870000  24.0020000  37.7680000
  33.5240000  20.2310000  38.8450000  41.8610000  27.0360000  44.2470000
  41.8780000  27.9020000  46.0950000  41.7030000  28.3770000  48.0670000
  36.0720000  24.8790000  48.9990000  35.8430000  26.3350000  47.6170000
  36.6770000  23.3800000  50.2250000  36.0700000  16.3060000  40.3270000
  36.5010000  18.2830000  40.0640000  36.0310000  14.3260000  40.8070000
  42.4620000  13.2640000  40.6900000  42.9160000  12.9460000  42.6540000
  41.7440000  13.9020000  38.8940000  40.5010000  26.2180000  41.8420000
  32.9350000  21.9190000  37.1260000  42.4820000  29.0320000  45.6100000
  34.8520000  24.9470000  49.6490000  34.8440000  16.2240000  39.7120000
  43.3030000  12.2630000  40.2830000  41.4980000  26.3240000  40.8220000
  32.6950000  23.0070000  36.2730000  42.6880000  30.1110000  46.5250000
  33.8930000  25.8250000  49.1200000  34.3590000  17.3910000  39.0550000
  43.3910000  12.0070000  38.8830000  41.0810000  26.6250000  39.9880000
  42.1790000  26.9720000  41.0980000  41.9170000  25.4490000  40.6820000
  32.3820000  23.7710000  36.8000000  32.0120000  22.7610000  35.6150000
  33.5240000  23.2470000  35.8080000  43.2840000  29.8180000  47.2460000
  41.8270000  30.3860000  46.9040000  43.0930000  30.8670000  46.0530000
  34.2300000  26.7440000  49.1680000  33.0640000  25.7540000  49.6390000
  33.7160000  25.5900000  48.1860000  35.0340000  17.7140000  38.4230000
  34.1760000  18.0880000  39.7190000  33.5340000  17.1750000  38.5710000
  43.6870000  12.8180000  38.4210000  42.5130000  11.7400000  38.5440000
  44.0360000  11.2870000  38.7230000  43.9470000  72.4600000  29.4830000
  43.3430000  71.3300000  29.9680000  44.4340000  63.2680000  36.5990000
  42.9850000  71.1330000  31.2930000  41.9980000  62.7510000  35.2290000
  44.4740000  63.8870000  35.8390000  43.7360000  63.5600000  37.2210000
  45.2990000  63.2600000  37.0600000  42.3560000  69.9520000  31.6720000
  40.0410000  69.2430000  27.2590000  42.3220000  58.4380000  24.2350000
  42.1310000  63.6360000  35.5490000  40.0640000  67.9950000  31.7230000
  42.1220000  69.8170000  32.5830000  43.7000000  66.7720000  30.5940000
  41.3610000  67.7970000  31.1510000  41.6710000  66.5400000  30.5670000
  42.0670000  68.9680000  30.7350000  40.6550000  65.6490000  30.2180000
  43.0050000  66.1780000  30.3350000  38.9850000  67.7180000  26.4340000
  42.4310000  69.1730000  29.4090000  40.9930000  64.4380000  29.6420000
  39.8380000  64.8580000  26.7870000  43.3330000  64.9720000  29.7350000
  40.2540000  66.5610000  33.1590000  40.0020000  68.6500000  26.5180000
  42.2390000  68.5070000  28.7600000  43.0710000  70.3380000  29.0260000
  42.9300000  57.9740000  27.3980000  42.3200000  64.0890000  29.3740000
  40.0380000  63.3540000  29.1650000  44.2420000  64.7510000  29.5710000
  40.9700000  68.7210000  25.5190000  37.3080000  69.7620000  31.4900000
  43.3260000  70.4630000  28.1200000  37.8950000  62.6750000  30.0200000
  39.2690000  62.6550000  30.2880000  38.8980000  63.8400000  28.2740000
  40.9990000  62.4080000  28.4590000  41.9660000  69.6450000  25.7150000
  37.0260000  62.0520000  30.9080000  39.7860000  62.0330000  31.4080000
  38.9890000  64.5970000  27.1250000  37.6640000  63.4140000  28.7770000
  40.6540000  61.3230000  27.6870000  42.3290000  62.8080000  28.6460000
  44.1530000  73.5380000  30.3980000  37.5280000  61.4190000  32.0280000
  36.0900000  62.0630000  30.7460000  38.9060000  61.3990000  32.2970000
  39.7450000  61.0590000  27.6080000  37.8150000  64.9750000  26.4640000
  39.7440000  65.8710000  30.3750000  36.4970000  63.7760000  28.1100000
  40.7210000  62.0360000  31.5740000  41.6610000  60.6110000  27.0160000
  43.3340000  62.0380000  28.0680000  44.7490000  73.2450000  31.1190000
  44.5580000  74.2950000  29.9260000  43.2920000  73.8140000  30.7770000
  36.9300000  60.9890000  32.6270000  39.3930000  60.7490000  33.4450000
  37.9110000  65.8220000  25.3250000  36.5750000  64.5610000  26.9700000
  35.6520000  63.4870000  28.4350000  41.2880000  59.5970000  26.1150000
  43.0010000  60.9590000  27.2490000  44.2470000  62.2470000  28.2310000
  40.6190000  61.1340000  34.0690000  38.6450000  59.7140000  34.0760000
  38.9260000  66.8320000  25.3610000  37.0510000  65.7140000  24.2130000
  39.8470000  66.3270000  23.6230000  40.0130000  59.6680000  25.4690000
  42.2170000  58.6400000  25.6030000  37.3690000  67.5850000  23.4860000
  40.8300000  62.4160000  34.5400000  38.1380000  58.6500000  33.3460000
  41.6090000  60.1720000  34.2800000  38.4260000  59.7470000  35.4520000
  36.8870000  66.7810000  23.3340000  36.3470000  64.5330000  23.9390000
  39.6570000  67.2100000  32.8040000  39.1810000  68.9380000  31.2340000
  39.5360000  60.8460000  24.9130000  42.9910000  57.8530000  26.4580000
  39.8830000  66.9230000  24.3620000  39.2270000  58.5210000  25.3900000
  38.2940000  60.8930000  24.2940000  38.7650000  60.4700000  35.9670000
  38.0120000  58.5480000  24.7480000  36.4720000  63.7740000  24.4960000
  41.8080000  58.9770000  23.6460000  37.4100000  57.6360000  33.9650000
  38.2900000  58.6110000  32.4090000  37.7200000  58.7360000  36.0700000
  35.4770000  64.4580000  22.8720000  35.7770000  64.8220000  26.5250000
  36.0340000  66.6950000  22.2380000  38.3220000  67.6810000  27.1130000
  37.9060000  69.1020000  31.8220000  40.1680000  63.0820000  34.3930000
  38.4050000  67.3580000  33.3700000  39.4330000  69.4800000  30.4960000
  42.7640000  60.4910000  34.9590000  41.4850000  59.2890000  33.9510000
  43.8460000  56.8950000  25.9410000  43.6930000  60.4500000  26.8430000
  40.8960000  67.8730000  24.4260000  40.0670000  61.6330000  24.9570000
  43.1610000  57.4640000  23.7070000  39.5340000  57.7130000  25.7840000
  37.5350000  59.7330000  24.2000000  37.9660000  61.7110000  23.9370000
  37.4960000  57.7540000  24.6800000  37.2120000  57.6800000  35.3340000
  37.0530000  56.9210000  33.4520000  37.5800000  58.7650000  37.0090000
  34.9890000  63.6580000  22.7180000  35.3080000  65.5400000  22.0200000
  35.9520000  67.4290000  21.6410000  37.5370000  68.3060000  32.8720000
  43.1680000  71.8040000  31.9400000  38.1420000  66.8070000  34.0980000
  42.9630000  61.7770000  35.4420000  44.3810000  56.3730000  26.5270000
  43.4290000  59.8260000  35.0990000  43.9270000  56.6910000  24.5630000
  41.5340000  67.9400000  23.7250000  43.2090000  57.3290000  22.7670000
  36.3090000  59.6510000  23.5850000  36.5310000  56.7310000  36.0570000
  34.4000000  65.3460000  20.9990000  36.3170000  68.3740000  33.5220000
  44.1340000  61.9630000  36.1300000  44.7680000  55.6900000  24.1560000
  34.1600000  66.4340000  20.1460000  36.0930000  55.5910000  35.3450000
  35.8240000  60.8190000  22.9280000  35.3580000  69.2520000  32.9930000
  42.9630000  69.7520000  24.6950000  44.8560000  55.4340000  22.7560000
  34.9890000  66.6740000  19.6810000  35.0000000  60.6020000  22.4440000
  36.4990000  61.1410000  22.2960000  36.8560000  55.1820000  34.8860000
  35.4170000  55.8560000  34.6860000  35.7030000  54.9450000  35.9710000
  33.8470000  67.1990000  20.6730000  35.6410000  61.5160000  23.5920000
  33.4770000  66.1880000  19.4880000  35.6950000  70.1710000  33.0410000
  34.5300000  69.1810000  33.5120000  35.1810000  69.0180000  32.0590000
  42.5460000  70.0520000  23.8610000  43.6440000  70.4000000  24.9710000
  43.3820000  68.8760000  24.5550000  45.1520000  56.2460000  22.2940000
  43.9780000  55.1680000  22.4170000  45.5010000  54.7150000  22.5960000
  45.0360000  43.5280000  45.6100000  44.4330000  42.3990000  46.0950000
  45.5230000  34.3370000  52.7260000  44.0740000  42.2020000  47.4200000
  43.0870000  33.8200000  51.3560000  45.5630000  34.9560000  51.9660000
  44.8250000  34.6290000  53.3480000  46.3880000  34.3290000  53.1870000
  43.4450000  41.0210000  47.7990000  41.1300000  40.3120000  43.3860000
  43.4110000  29.5060000  40.3620000  43.2200000  34.7050000  51.6760000
  41.1540000  39.0630000  47.8500000  43.2110000  40.8860000  48.7100000
  44.7890000  37.8410000  46.7210000  42.4500000  38.8660000  47.2780000
  42.7600000  37.6090000  46.6940000  43.1570000  40.0370000  46.8620000
  41.7440000  36.7170000  46.3450000  44.0950000  37.2470000  46.4620000
  40.0740000  38.7860000  42.5610000  43.5210000  40.2420000  45.5360000
  42.0820000  35.5070000  45.7690000  40.9270000  35.9270000  42.9140000
  44.4220000  36.0410000  45.8620000  41.3430000  37.6300000  49.2850000
  41.0910000  39.7190000  42.6450000  43.3280000  39.5750000  44.8870000
  44.1610000  41.4070000  45.1530000  44.0190000  29.0430000  43.5250000
  43.4100000  35.1570000  45.5010000  41.1270000  34.4230000  45.2920000
  45.3310000  35.8200000  45.6980000  42.0590000  39.7900000  41.6460000
  38.3980000  40.8310000  47.6170000  44.4150000  41.5320000  44.2470000
  38.9840000  33.7430000  46.1470000  40.3580000  33.7240000  46.4150000
  39.9870000  34.9090000  44.4010000  42.0880000  33.4770000  44.5860000
  43.0550000  40.7140000  41.8420000  38.1160000  33.1210000  47.0350000
  40.8750000  33.1020000  47.5350000  40.0780000  35.6650000  43.2520000
  38.7530000  34.4830000  44.9040000  41.7440000  32.3920000  43.8140000
  43.4190000  33.8770000  44.7730000  45.2420000  44.6070000  46.5250000
  38.6170000  32.4880000  48.1550000  37.1800000  33.1310000  46.8730000
  39.9950000  32.4670000  48.4240000  40.8350000  32.1270000  43.7350000
  38.9040000  36.0440000  42.5910000  40.8330000  36.9390000  46.5020000
  37.5860000  34.8450000  44.2370000  41.8100000  33.1050000  47.7010000
  42.7500000  31.6800000  43.1430000  44.4240000  33.1070000  44.1950000
  45.8380000  44.3140000  47.2460000  45.6470000  45.3640000  46.0530000
  44.3810000  44.8830000  46.9040000  38.0190000  32.0580000  48.7540000
  40.4820000  31.8180000  49.5720000  39.0000000  36.8910000  41.4520000
  37.6650000  35.6300000  43.0970000  36.7410000  34.5560000  44.5620000
  42.3770000  30.6650000  42.2420000  44.0900000  32.0270000  43.3760000
  45.3360000  33.3160000  44.3580000  41.7080000  32.2030000  50.1960000
  39.7340000  30.7820000  50.2030000  40.0150000  37.9010000  41.4880000
  38.1400000  36.7820000  40.3400000  40.9360000  37.3960000  39.7500000
  41.1020000  30.7370000  41.5950000  43.3060000  29.7090000  41.7300000
  38.4580000  38.6540000  39.6130000  41.9190000  33.4850000  50.6670000
  39.2280000  29.7180000  49.4730000  42.6990000  31.2400000  50.4070000
  39.5150000  30.8160000  51.5790000  37.9760000  37.8490000  39.4610000
  37.4370000  35.6020000  40.0660000  40.7470000  38.2790000  48.9310000
  40.2710000  40.0060000  47.3610000  40.6250000  31.9150000  41.0400000
  44.0800000  28.9210000  42.5850000  40.9730000  37.9920000  40.4890000
  40.3170000  29.5900000  41.5170000  39.3830000  31.9620000  40.4200000
  39.8540000  31.5380000  52.0940000  39.1010000  29.6170000  40.8750000
  37.5610000  34.8420000  40.6230000  42.8970000  30.0460000  39.7730000
  38.4990000  28.7050000  50.0920000  39.3790000  29.6800000  48.5360000
  38.8090000  29.8050000  52.1970000  36.5660000  35.5270000  38.9990000
  36.8670000  35.8910000  42.6520000  37.1230000  37.7640000  38.3650000
  39.4110000  38.7490000  43.2390000  38.9950000  40.1710000  47.9490000
  41.2570000  34.1510000  50.5200000  39.4940000  38.4260000  49.4970000
  40.5220000  40.5490000  46.6230000  43.8530000  31.5600000  51.0860000
  42.5740000  30.3580000  50.0780000  44.9350000  27.9640000  42.0680000
  44.7820000  31.5190000  42.9700000  41.9850000  38.9420000  40.5530000
  41.1560000  32.7010000  41.0840000  44.2510000  28.5320000  39.8340000
  40.6230000  28.7820000  41.9110000  38.6250000  30.8020000  40.3270000
  39.0560000  32.7790000  40.0640000  38.5850000  28.8220000  40.8070000
  38.3010000  28.7490000  51.4610000  38.1420000  27.9890000  49.5790000
  38.6700000  29.8340000  53.1360000  36.0780000  34.7270000  38.8450000
  36.3970000  36.6090000  38.1470000  37.0410000  38.4980000  37.7680000
  38.6260000  39.3750000  48.9990000  44.2570000  42.8730000  48.0670000
  39.2320000  37.8760000  50.2250000  44.0530000  32.8460000  51.5690000
  45.4700000  27.4420000  42.6540000  44.5180000  30.8950000  51.2260000
  45.0160000  27.7600000  40.6900000  42.6230000  39.0090000  39.8520000
  44.2980000  28.3980000  38.8940000  37.3980000  30.7200000  39.7120000
  37.6200000  27.8000000  52.1840000  35.4890000  36.4150000  37.1260000
  37.4060000  39.4430000  49.6490000  45.2230000  33.0320000  52.2570000
  45.8570000  26.7590000  40.2830000  35.2490000  37.5030000  36.2730000
  37.1830000  26.6600000  51.4720000  36.9130000  31.8870000  39.0550000
  36.4470000  40.3210000  49.1200000  44.0530000  40.8200000  40.8220000
  45.9460000  26.5030000  38.8830000  36.0780000  37.7430000  35.8080000
  36.0890000  31.6710000  38.5710000  37.5890000  32.2100000  38.4230000
  37.9450000  26.2500000  51.0130000  36.5070000  26.9250000  50.8130000
  36.7930000  26.0140000  52.0980000  34.9360000  38.2670000  36.8000000
  36.7300000  32.5840000  39.7190000  34.5660000  37.2570000  35.6150000
  36.7850000  41.2400000  49.1680000  35.6190000  40.2500000  49.6390000
  36.2700000  40.0860000  48.1860000  43.6350000  41.1210000  39.9880000
  44.7340000  41.4680000  41.0980000  44.4710000  39.9450000  40.6820000
  46.2410000  27.3140000  38.4210000  45.0670000  26.2360000  38.5440000
  46.5900000  25.7830000  38.7230000  22.1170000  56.4520000  -6.3830000
  21.4360000  55.5030000  -5.6600000  22.5540000  57.5920000  -5.6720000
  20.9280000  54.4470000  -6.3960000  21.2380000  55.5470000  -4.2910000
  21.7920000  58.0010000  -5.2120000  22.9450000  58.2380000  -6.2970000
  23.2310000  57.3260000  -5.0120000  20.2220000  53.4360000  -5.7780000
  21.0670000  54.4170000  -7.3360000  17.8180000  50.7660000  -4.8660000
  21.5950000  56.2620000  -3.7780000  20.0030000  53.4690000  -4.4030000
  19.8830000  52.7130000  -6.2930000  20.3580000  54.5720000  -2.7360000
  19.2550000  52.4340000  -3.7720000  19.7420000  51.7840000  -2.6230000
  18.0290000  52.0480000  -4.3960000  18.8620000  51.1490000  -1.7350000
  21.1200000  51.7640000  -2.3540000  20.5100000  54.5330000  -3.6730000
  16.3260000  54.7450000   5.4380000  19.3790000  50.5280000  -0.6140000
  18.9030000  52.1240000   2.0650000  21.6210000  51.1300000  -1.2350000
  21.7180000  52.1940000  -2.9540000  20.7420000  44.0810000  -2.1480000
  17.1630000  53.8940000  -4.2780000  15.4870000  55.7190000   5.9670000
  16.8400000  54.2060000   6.0280000  20.7530000  50.5080000  -0.3460000
  18.6100000  49.8280000   0.5080000  22.5570000  51.1200000  -1.0720000
  14.7210000  56.4910000   5.1100000  14.2670000  56.8090000   3.1470000
  23.6590000  49.5250000   6.9560000  16.3280000  49.0940000   0.2990000
  17.6550000  48.7450000   0.0310000  19.7500000  49.3430000   1.4000000
  17.6490000  50.7750000   1.2150000  24.2480000  47.8370000   8.6740000
  15.3150000  48.2100000  -0.0610000  17.9930000  47.5340000  -0.5450000
  19.6590000  48.5860000   2.5480000  20.9840000  49.7690000   0.8970000
  17.9930000  51.8600000   1.9870000  16.3190000  50.3750000   1.0280000
  24.4880000  46.7490000   9.5270000  15.6430000  47.0050000  -0.6610000
  14.4060000  48.4320000   0.1020000  16.9770000  46.6430000  -0.8940000
  18.8100000  48.3250000   2.8860000  20.8330000  48.2080000   3.2100000
  18.9040000  47.3120000  -0.7010000  22.1510000  49.4070000   1.5630000
  17.9270000  51.1470000  -1.9000000  16.9870000  52.5720000   2.6570000
  15.3130000  51.1450000   1.6050000  22.1480000  52.0420000   7.3780000
  23.0070000  51.6670000   6.0810000  23.6480000  52.5800000   7.2300000
  14.9480000  46.4110000  -0.9200000  17.2870000  45.3860000  -1.4780000
  20.7370000  47.3600000   4.3480000  22.0720000  48.6220000   2.7040000
  22.9960000  49.6960000   1.2390000  17.3600000  53.5860000   3.5590000
  15.6470000  52.2240000   2.4240000  14.4010000  50.9360000   1.4420000
  16.5810000  44.2140000  -1.0620000  18.5840000  45.1880000  -2.0500000
  19.7220000  46.3510000   4.3130000  21.5970000  47.4690000   5.4610000
  22.8700000  48.3610000   3.1490000  16.4310000  54.5430000   4.0700000
  18.6350000  53.5140000   4.2050000  18.8010000  46.8550000   6.0510000
  16.2170000  44.0100000   0.2650000  18.7650000  46.2600000   5.3110000
  16.2920000  43.2300000  -1.9980000  15.6570000  55.3300000   3.2160000
  19.6630000  45.4650000   3.2400000  21.7610000  46.4020000   6.3400000
  19.4660000  44.2450000  -1.5600000  18.9910000  45.9730000  -3.1310000
  19.4200000  54.6610000   4.2830000  17.0390000  53.0110000  -4.6060000
  22.3000000  48.6500000   5.7340000  19.1120000  52.3370000   4.7600000
  15.6630000  42.0490000  -1.6190000  16.4090000  44.6760000   0.9140000
  15.5760000  42.8440000   0.6470000  21.2790000  45.5970000   6.1880000
  15.7180000  55.2080000   2.2750000  14.8020000  56.2880000   3.7330000
  18.4800000  50.1010000  -4.7190000  16.6500000  50.4320000  -5.5560000
  23.1710000  48.7240000   6.8020000  19.2150000  43.7030000  -0.8220000
  22.6140000  46.4870000   7.4360000  20.3260000  45.5020000   2.5610000
  18.6460000  44.5330000   3.1560000  16.5260000  43.3660000  -2.9090000
  20.2430000  45.8250000  -3.6960000  18.3940000  46.6220000  -3.4850000
  17.7520000  45.3100000   5.2470000  18.5810000  51.5500000   4.7160000
  15.8840000  52.6920000  -5.2860000  19.1140000  55.4700000   3.8900000
  20.6360000  54.6350000   4.9250000  22.1760000  49.4090000   5.1770000
  20.3540000  52.2890000   5.3800000  14.9550000  52.7330000   2.8310000
  15.3040000  41.8530000  -0.2950000  15.4800000  41.3790000  -2.2660000
  15.3220000  42.7190000   1.5540000  17.6780000  44.4620000   4.1550000
  18.6070000  43.9400000   2.4150000  15.4390000  55.8530000   6.9060000
  22.6960000  45.7530000   8.0330000  23.3400000  47.6420000   7.6540000
  21.3390000  43.4210000  -1.8160000  21.1110000  44.8770000  -3.1990000
  20.5050000  46.3760000  -4.4240000  16.5170000  49.5470000  -5.8750000
  15.6850000  51.4060000  -5.7690000  17.1140000  45.2430000   5.9480000
  15.2190000  53.3560000  -5.4250000  21.1130000  53.4500000   5.4740000
  21.1520000  55.4290000   4.9940000  20.6810000  51.4720000   5.7370000
  14.7010000  40.7230000   0.1910000  13.8800000  57.4920000   5.5180000
  16.6820000  43.5380000   3.9580000  22.3310000  44.8080000  -3.8480000
  14.5140000  51.2200000  -6.4560000  22.3390000  53.5310000   6.0890000
  14.4950000  39.6450000  -0.7240000  15.6850000  43.4310000   4.9780000
  23.2900000  43.9300000  -3.3200000  14.2140000  49.9140000  -6.9250000
  13.7910000  57.7480000   6.9170000  22.8240000  52.3640000   6.7460000
  14.0900000  38.8880000  -0.2520000  15.3560000  39.3690000  -1.1030000
  25.1710000  46.9950000  10.1860000  15.0030000  42.7830000   4.7030000
  13.8990000  39.9370000  -1.4450000  22.9530000  43.0110000  -3.3670000
  23.6590000  46.5080000   9.9920000  24.1180000  44.0020000  -3.8380000
  24.8010000  45.9840000   9.0010000  14.1740000  49.2960000  -6.1660000
  14.9120000  49.6220000  -7.5470000  23.4670000  44.1650000  -2.3850000
  13.3490000  49.9230000  -7.3860000  16.1020000  43.1310000   5.8120000
  15.2660000  44.3070000   5.1190000  14.6700000  58.0150000   7.2570000
  13.1470000  58.4680000   7.0770000  13.4960000  56.9370000   7.3800000
   9.5930000  11.7310000   0.1910000  10.1960000  12.8600000  -0.2950000
   9.3870000  10.6520000  -0.7240000  10.5540000  13.0570000  -1.6190000
  10.4680000  13.8520000   0.6470000   8.9810000   9.8960000  -0.2520000
   8.7900000  10.9450000  -1.4450000  10.2480000  10.3770000  -1.1030000
  11.1830000  14.2380000  -1.9980000  10.3710000  12.3860000  -2.2660000
  11.1080000  15.0170000   0.2650000  10.2130000  13.7270000   1.5540000
  11.4720000  15.2220000  -1.0620000  11.4180000  14.3730000  -2.9090000
   9.8390000  17.4180000  -0.9200000  12.1780000  16.3930000  -1.4780000
  11.8680000  17.6510000  -0.8940000  13.4750000  16.1960000  -2.0500000
  12.8850000  18.5420000  -0.5450000  10.5340000  18.0120000  -0.6610000
  12.7100000  21.7740000  -4.8660000  11.9300000  24.0190000  -4.6060000
  12.5460000  19.7520000   0.0310000  12.8180000  22.1550000  -1.9000000
  10.2070000  19.2180000  -0.0610000  11.3000000  15.6840000   0.9140000
  11.5410000  21.4390000  -5.5560000  13.2850000  17.6290000  -3.4850000
  10.7750000  23.6990000  -5.2860000  13.3710000  21.1080000  -4.7190000
  11.2100000  21.3830000   1.0280000  13.5020000  20.8360000   0.5080000
   9.2930000  21.9430000   1.4420000  10.5760000  22.4130000  -5.7690000
  11.4090000  20.5540000  -5.8750000  10.1110000  24.3640000  -5.4250000
  15.8750000  20.7760000   0.8970000  14.6420000  20.3500000   1.4000000
  14.2710000  21.5350000  -0.6140000  12.5400000  21.7820000   1.2150000
   9.4060000  22.2270000  -6.4560000  17.0420000  20.4140000   1.5630000
  14.5500000  19.5940000   2.5480000  13.7540000  22.1570000  -1.7350000
  15.6440000  21.5160000  -0.3460000  12.8850000  22.8670000   1.9870000
  11.2190000  20.1020000   0.2990000   9.1060000  20.9220000  -6.9250000
  16.9640000  19.6290000   2.7040000  17.8870000  20.7030000   1.2390000
  15.7250000  19.2150000   3.2100000  13.7940000  23.1320000   2.0650000
  14.6340000  22.7920000  -2.6230000  13.7950000  18.3200000  -0.7010000
  16.5130000  22.1380000  -1.2350000  13.7020000  19.3330000   2.8860000
  11.8790000  23.5790000   2.6570000  10.2050000  22.1520000   1.6050000
   9.0650000  20.3030000  -6.1660000   8.2410000  20.9310000  -7.3860000
   9.8030000  20.6300000  -7.5470000  15.2180000  16.5100000   2.5610000
  15.6280000  18.3680000   4.3480000  14.1460000  23.4410000  -3.7720000
  16.0110000  22.7710000  -2.3540000  17.4490000  22.1280000  -1.0720000
  12.2510000  24.5940000   3.5590000  10.5380000  23.2320000   2.4240000
   9.2970000  19.4390000   0.1020000  16.4890000  18.4770000   5.4610000
  14.6140000  17.3580000   4.3130000  14.8950000  24.4770000  -4.4030000
  12.9200000  23.0560000  -4.3960000  16.6100000  23.2010000  -2.9540000
  13.5260000  24.5220000   4.2050000  11.3230000  25.5510000   4.0700000
  12.0540000  24.9010000  -4.2780000  17.1920000  19.6570000   5.7340000
  14.0030000  23.3440000   4.7600000  16.6520000  17.4100000   6.3400000
  14.5540000  16.4730000   3.2400000  15.4010000  25.5410000  -3.6730000
  15.1140000  24.4440000  -5.7780000  13.8820000  16.9810000  -3.1310000
  14.3580000  15.2530000  -1.5600000  13.6560000  17.2670000   5.3110000
  11.2180000  25.7530000   5.4380000  10.5490000  26.3380000   3.2160000
  14.3120000  25.6690000   4.2830000  15.2450000  23.2970000   5.3800000
  17.7620000  19.3680000   3.1490000  15.5270000  25.6420000   4.9250000
  14.0050000  26.4770000   3.8900000  17.0680000  20.4170000   5.1770000
  18.0620000  19.7320000   6.8020000  13.6930000  17.8630000   6.0510000
  17.5050000  17.4950000   7.4360000  16.1290000  26.5550000  -4.2910000
  15.2490000  25.5790000  -2.7360000  15.8200000  25.4540000  -6.3960000
  14.7750000  23.7210000  -6.2930000  15.6330000  15.0880000  -2.1480000
  10.6090000  26.2160000   2.2750000  15.1350000  16.8330000  -3.6960000
  14.1060000  14.7100000  -0.8220000  13.5380000  15.5410000   3.1560000
  16.1710000  16.6050000   6.1880000  12.6430000  16.3170000   5.2470000
  11.7320000  25.2130000   6.0280000   9.6940000  27.2950000   3.7330000
   9.8470000  23.7400000   2.8310000  10.3780000  26.7270000   5.9670000
  13.4720000  22.5580000   4.7160000  16.0040000  24.4570000   5.4740000
  15.5730000  22.4800000   5.7370000  16.0430000  26.4370000   4.9940000
  18.2320000  18.6500000   7.6540000  18.5500000  20.5320000   6.9560000
  17.5880000  16.7610000   8.0330000  16.4860000  27.2700000  -3.7780000
  16.3270000  26.5100000  -5.6600000  15.9590000  25.4250000  -7.3360000
  16.0020000  15.8840000  -3.1990000  16.2310000  14.4280000  -1.8160000
  15.3970000  17.3830000  -4.4240000  12.5690000  15.4690000   4.1550000
  13.4990000  14.9470000   2.4150000  12.0060000  16.2500000   5.9480000
   9.6120000  27.4990000   5.1100000   9.1590000  27.8170000   3.1470000
  10.3300000  26.8610000   6.9060000  17.2310000  24.5390000   6.0890000
  19.1390000  18.8440000   8.6740000  17.0090000  27.4600000  -6.3830000
  17.2220000  15.8160000  -3.8480000  11.5730000  14.5450000   3.9580000
   8.7720000  28.5000000   5.5180000   8.6830000  28.7560000   6.9170000
  19.3790000  17.7560000   9.5270000  17.4460000  28.6000000  -5.6720000
  18.1810000  14.9380000  -3.3200000  17.7150000  23.3720000   6.7460000
  10.5760000  14.4390000   4.9780000   8.0390000  29.4760000   7.0770000
   9.5620000  29.0230000   7.2570000   8.3880000  27.9450000   7.3800000
  20.0630000  18.0020000  10.1860000  18.5400000  23.5880000   7.2300000
  17.0400000  23.0490000   7.3780000  16.6840000  29.0090000  -5.2120000
  17.8360000  29.2450000  -6.2970000  18.1220000  28.3340000  -5.0120000
  17.8440000  14.0190000  -3.3670000  18.3590000  15.1730000  -2.3850000
  19.0100000  15.0090000  -3.8380000  19.6920000  16.9920000   9.0010000
  17.8990000  22.6750000   6.0810000  18.5500000  17.5160000   9.9920000
   9.8950000  13.7910000   4.7030000  10.1580000  15.3140000   5.1190000
  10.9930000  14.1380000   5.8120000  31.9590000  42.0780000  25.8710000
  31.2770000  41.1290000  26.5940000  32.3960000  43.2180000  26.5820000
  31.0790000  41.1730000  27.9630000  30.7700000  40.0730000  25.8580000
  32.7860000  43.8640000  25.9570000  33.0720000  42.9530000  27.2420000
  31.6330000  43.6270000  27.0420000  27.6590000  36.3930000  27.3870000
  31.4360000  41.8880000  28.4760000  30.0630000  39.0620000  26.4760000
  30.9090000  40.0440000  24.9180000  29.8440000  39.0950000  27.8510000
  29.7240000  38.3390000  25.9610000  30.1990000  40.1980000  29.5180000
  29.0960000  38.0600000  28.4820000  29.5840000  37.4100000  29.6310000
  27.8700000  37.6740000  27.8580000  28.7040000  36.7750000  30.5190000
  30.9610000  37.3900000  29.9000000  26.1670000  40.3710000  37.6920000
  30.3510000  40.1590000  28.5810000  29.2200000  36.1540000  31.6400000
  28.7440000  37.7500000  34.3190000  31.4630000  36.7570000  31.0190000
  31.5600000  37.8200000  29.3000000  30.1950000  37.9160000  37.6340000
  28.3210000  35.7270000  27.5350000  30.4770000  40.2610000  37.1790000
  25.5590000  40.8340000  34.5290000  30.5940000  36.1340000  31.9080000
  28.4520000  35.4540000  32.7620000  32.3990000  36.7460000  31.1820000
  30.9540000  39.0760000  37.7280000  30.5230000  37.0980000  37.9900000
  30.9930000  41.0550000  37.2480000  26.1690000  34.7200000  32.5530000
  27.4960000  34.3710000  32.2850000  29.5910000  34.9690000  33.6540000
  27.4900000  36.4010000  33.4690000  32.1800000  39.1580000  38.3430000
  25.1560000  33.8360000  32.1930000  27.8350000  33.1600000  31.7090000
  29.5000000  34.2120000  34.8020000  30.8250000  35.3950000  33.1510000
  27.8350000  37.4860000  34.2410000  26.1600000  36.0010000  33.2820000
  32.6650000  37.9900000  39.0000000  25.4840000  32.6310000  31.5930000
  24.2470000  34.0580000  32.3560000  26.8180000  32.2690000  31.3600000
  28.6510000  33.9510000  35.1400000  30.6740000  33.8340000  35.4640000
  28.7450000  32.9380000  31.5530000  31.9920000  35.0330000  33.8170000
  27.7680000  36.7730000  30.3540000  26.8280000  38.1980000  34.9110000
  25.1550000  36.7710000  33.8590000  32.8480000  37.2930000  38.3350000
  33.4900000  38.2070000  39.4840000  31.9900000  37.6680000  39.6320000
  26.3680000  28.9920000  29.3450000  27.1280000  31.0120000  30.7760000
  30.5780000  32.9870000  36.6020000  31.9140000  34.2480000  34.9580000
  32.8370000  35.3220000  33.4930000  27.2010000  39.2120000  35.8130000
  25.4880000  37.8500000  34.6780000  24.2420000  36.5620000  33.6960000
  28.4250000  30.8140000  30.2040000  26.4220000  29.8410000  31.1920000
  29.5630000  31.9770000  36.5670000  31.4380000  33.0950000  37.7150000
  32.7120000  33.9870000  35.4030000  26.2720000  40.1690000  36.3240000
  28.4760000  39.1410000  36.4590000  28.4220000  37.1760000  36.9700000
  29.5040000  31.0910000  35.4940000  28.6060000  31.8860000  37.5650000
  26.0580000  29.6360000  32.5190000  26.1330000  28.8560000  30.2550000
  31.6020000  32.0280000  38.5940000  32.1420000  34.2760000  37.9880000
  29.3080000  29.8710000  30.6940000  28.8320000  31.5990000  29.1230000
  25.4980000  40.9560000  35.4700000  26.8800000  38.6370000  27.6480000
  28.9530000  37.9630000  37.0140000  29.2620000  40.2870000  36.5370000
  28.4870000  30.1590000  35.4100000  28.2350000  32.2480000  28.7690000
  27.5930000  30.9360000  37.5010000  31.1210000  31.2230000  38.4420000
  26.2500000  30.3020000  33.1680000  25.5040000  27.6750000  30.6350000
  24.7890000  32.0370000  31.3340000  25.4180000  28.4710000  32.9010000
  33.0120000  34.3510000  39.0560000  28.6420000  32.4810000  38.3040000
  32.4550000  32.1140000  39.6900000  30.1670000  31.1280000  34.8150000
  30.0840000  31.4510000  28.5580000  29.0560000  29.3290000  31.4320000
  30.5830000  29.7070000  30.1060000  32.0170000  35.0350000  37.4310000
  26.4910000  36.0580000  26.6980000  26.6810000  39.8320000  38.2820000
  25.7250000  38.3180000  26.9680000  27.0040000  39.5200000  27.9760000
  25.3280000  41.3450000  38.2210000  28.9550000  41.0960000  36.1440000
  24.6430000  41.9140000  35.9870000  24.7960000  38.3590000  35.0850000
  27.5190000  30.0880000  36.4090000  26.9550000  30.8690000  38.2020000
  25.1630000  28.3460000  33.8080000  25.1460000  27.4790000  31.9590000
  25.3210000  27.0050000  29.9880000  32.5380000  31.3790000  40.2870000
  28.4480000  29.5660000  34.6690000  33.1810000  33.2680000  39.9080000
  33.5000000  35.1510000  39.2100000  30.9520000  30.5030000  29.0550000
  31.1810000  29.0470000  30.4380000  30.3470000  32.0020000  27.8300000
  25.5260000  37.0320000  26.4850000  26.3590000  35.1730000  26.3790000
  25.0610000  38.9820000  26.8290000  24.5620000  42.1170000  37.3640000
  25.2800000  41.4790000  39.1600000  24.1080000  42.4360000  35.4000000
  26.5230000  29.1640000  36.2120000  24.5420000  26.3490000  32.4450000
  34.0890000  33.4630000  40.9280000  32.1720000  30.4340000  28.4060000
  24.3550000  36.8460000  25.7980000  23.7210000  43.1180000  37.7720000
  25.5260000  29.0570000  37.2320000  24.3360000  25.2710000  31.5300000
  34.3290000  32.3750000  41.7810000  33.1310000  29.5560000  28.9340000
  24.0550000  35.5400000  25.3290000  23.6330000  43.3740000  39.1710000
  25.9430000  28.7570000  38.0660000  33.5000000  32.1340000  42.2460000
  24.8450000  28.4090000  36.9570000  23.7400000  25.5630000  30.8090000
  23.9310000  24.5140000  32.0020000  25.1970000  24.9950000  31.1510000
  34.6420000  31.6100000  41.2550000  25.1070000  29.9330000  37.3730000
  35.0120000  32.6210000  42.4400000  32.7940000  28.6370000  28.8870000
  33.9600000  29.6280000  28.4160000  33.3080000  29.7910000  29.8690000
  24.0150000  34.9220000  26.0880000  23.1900000  35.5490000  24.8680000
  24.7530000  35.2480000  24.7070000  23.3370000  42.5630000  39.6340000
  22.9880000  44.0940000  39.3310000  24.5110000  43.6410000  39.5110000
  28.3150000  56.5130000   9.7440000  27.6340000  55.5640000  10.4670000
  28.7520000  57.6530000  10.4550000  27.4350000  55.6080000  11.8360000
  27.1260000  54.5080000   9.7310000  29.1420000  58.2990000   9.8300000
  29.4280000  57.3880000  11.1150000  27.9900000  58.0620000  10.9150000
  24.0160000  50.8280000  11.2600000  27.7930000  56.3230000  12.3490000
  26.4200000  53.4970000  10.3490000  27.2650000  54.4790000   8.7910000
  26.2010000  53.5300000  11.7240000  26.0810000  52.7740000   9.8340000
  26.5550000  54.6330000  13.3910000  25.4530000  52.4950000  12.3550000
  25.9400000  51.8450000  13.5040000  24.2260000  52.1090000  11.7310000
  25.0600000  51.2100000  14.3920000  27.3180000  51.8250000  13.7730000
  22.5240000  54.8060000  21.5650000  26.7070000  54.5940000  12.4540000
  25.5770000  50.5890000  15.5130000  25.1000000  52.1850000  18.1920000
  27.8190000  51.1920000  14.8920000  27.9160000  52.2550000  13.1730000
  26.5520000  52.3510000  21.5070000  24.6770000  50.1620000  11.4080000
  26.8340000  54.6960000  21.0520000  21.9150000  55.2700000  18.4020000
  26.9500000  50.5690000  15.7810000  24.8080000  49.8900000  16.6350000
  28.7550000  51.1810000  15.0550000  27.3100000  53.5110000  21.6010000
  26.8790000  51.5330000  21.8640000  27.3500000  55.4900000  21.1210000
  22.5250000  49.1550000  16.4260000  23.8520000  48.8060000  16.1580000
  25.9480000  49.4040000  17.5270000  23.8460000  50.8360000  17.3420000
  28.5370000  53.5930000  22.2160000  21.5130000  48.2710000  16.0660000
  24.1910000  47.5950000  15.5820000  25.8570000  48.6470000  18.6750000
  27.1810000  49.8300000  17.0240000  24.1910000  51.9210000  18.1140000
  22.5160000  50.4360000  17.1550000  29.0210000  52.4250000  22.8730000
  21.8400000  47.0660000  15.4660000  20.6040000  48.4930000  16.2290000
  23.1740000  46.7040000  15.2330000  25.0080000  48.3860000  19.0130000
  27.0310000  48.2690000  19.3370000  25.1010000  47.3730000  15.4260000
  28.3490000  49.4680000  17.6900000  24.1250000  51.2080000  14.2270000
  23.1850000  52.6330000  18.7840000  21.5110000  51.2060000  17.7320000
  29.2050000  51.7280000  22.2080000  29.8460000  52.6420000  23.3570000
  28.3460000  52.1030000  23.5050000  22.7240000  43.4270000  13.2180000
  23.4840000  45.4470000  14.6490000  26.9350000  47.4220000  20.4750000
  28.2700000  48.6830000  18.8310000  29.1940000  49.7570000  17.3660000
  23.5580000  53.6470000  19.6860000  21.8450000  52.2850000  18.5510000
  20.5990000  50.9970000  17.5690000  24.7810000  45.2490000  14.0770000
  22.7780000  44.2760000  15.0650000  25.9200000  46.4120000  20.4400000
  27.7950000  47.5300000  21.5880000  29.0680000  48.4220000  19.2760000
  22.6290000  54.6040000  20.1970000  24.8320000  53.5760000  20.3320000
  24.7780000  51.6110000  20.8430000  25.8610000  45.5260000  19.3670000
  24.9620000  46.3210000  21.4380000  22.4140000  44.0710000  16.3920000
  22.4890000  43.2910000  14.1290000  27.9590000  46.4630000  22.4670000
  28.4980000  48.7110000  21.8610000  25.6640000  44.3060000  14.5670000
  25.1880000  46.0340000  12.9960000  21.8550000  55.3910000  19.3430000
  23.2360000  53.0720000  11.5210000  25.3090000  52.3980000  20.8870000
  25.6180000  54.7230000  20.4100000  24.8440000  44.5940000  19.2830000
  24.5920000  46.6830000  12.6420000  23.9490000  45.3710000  21.3740000
  27.4770000  45.6580000  22.3150000  22.6070000  44.7370000  17.0410000
  21.8610000  42.1100000  14.5080000  21.1460000  46.4720000  15.2070000
  21.7740000  42.9060000  16.7740000  29.3680000  48.7860000  22.9290000
  24.9990000  46.9160000  22.1770000  28.8110000  46.5490000  23.5630000
  26.5240000  45.5630000  18.6880000  26.4410000  45.8860000  12.4310000
  25.4120000  43.7640000  15.3050000  26.9400000  44.1420000  13.9790000
  28.3740000  49.4700000  21.3040000  22.8470000  50.4930000  10.5710000
  23.0380000  54.2670000  22.1550000  22.0820000  52.7530000  10.8410000
  23.3600000  53.9550000  11.8490000  21.6840000  55.7800000  22.0940000
  25.3120000  55.5310000  20.0170000  21.0000000  56.3490000  19.8600000
  21.1530000  52.7940000  18.9580000  23.8760000  44.5230000  20.2820000
  23.3120000  45.3040000  22.0750000  21.5190000  42.7810000  17.6810000
  21.5020000  41.9140000  15.8320000  21.6770000  41.4400000  13.8610000
  28.8940000  45.8140000  24.1600000  24.8050000  44.0010000  18.5420000
  29.5380000  47.7030000  23.7810000  29.8560000  49.5860000  23.0830000
  27.3090000  44.9380000  12.9280000  27.5370000  43.4820000  14.3110000
  26.7030000  46.4370000  11.7030000  21.8820000  51.4670000  10.3580000
  22.7150000  49.6080000  10.2520000  21.4170000  53.4170000  10.7020000
  20.9190000  56.5520000  21.2370000  21.6360000  55.9140000  23.0330000
  20.4650000  56.8710000  19.2740000  22.8790000  43.5990000  20.0850000
  20.8990000  40.7840000  16.3180000  30.4450000  47.8980000  24.8010000
  28.5280000  44.8690000  12.2790000  20.7120000  51.2810000   9.6710000
  20.0780000  57.5540000  21.6450000  21.8820000  43.4920000  21.1050000
  20.6930000  39.7060000  15.4030000  30.6850000  46.8100000  25.6540000
  29.4880000  43.9910000  12.8070000  20.4120000  49.9750000   9.2020000
  19.9890000  57.8090000  23.0440000  22.2990000  43.1920000  21.9390000
  29.8570000  46.5690000  26.1190000  21.2010000  42.8440000  20.8300000
  20.0970000  39.9980000  14.6820000  20.2870000  38.9490000  15.8750000
  21.5540000  39.4300000  15.0240000  30.9990000  46.0450000  25.1280000
  21.4640000  44.3680000  21.2460000  31.3690000  47.0560000  26.3130000
  29.1500000  43.0720000  12.7600000  30.3160000  44.0630000  12.2890000
  29.6650000  44.2260000  13.7420000  20.3720000  49.3570000   9.9610000
  19.5470000  49.9840000   8.7410000  21.1090000  49.6830000   8.5800000
  19.6940000  56.9980000  23.5070000  19.3450000  58.5290000  23.2040000
  20.8680000  58.0760000  23.3840000  34.5130000  56.5740000  25.8710000
  33.8310000  55.6250000  26.5940000  34.9500000  57.7140000  26.5820000
  33.6330000  55.6690000  27.9630000  33.3240000  54.5690000  25.8580000
  35.3400000  58.3600000  25.9570000  35.6260000  57.4490000  27.2420000
  34.1880000  58.1240000  27.0420000  30.2140000  50.8890000  27.3870000
  33.9900000  56.3840000  28.4760000  32.6180000  53.5580000  26.4760000
  33.4630000  54.5400000  24.9180000  32.3990000  53.5910000  27.8510000
  32.2790000  52.8350000  25.9610000  32.7530000  54.6940000  29.5180000
  31.6500000  52.5560000  28.4820000  32.1380000  51.9060000  29.6310000
  30.4240000  52.1710000  27.8580000  31.2580000  51.2720000  30.5190000
  33.5150000  51.8860000  29.9000000  28.7220000  54.8670000  37.6920000
  32.9050000  54.6550000  28.5810000  31.7740000  50.6500000  31.6400000
  31.2980000  52.2470000  34.3190000  34.0170000  51.2530000  31.0190000
  34.1140000  52.3160000  29.3000000  32.7490000  52.4120000  37.6340000
  30.8750000  50.2230000  27.5350000  33.0310000  54.7570000  37.1790000
  28.1130000  55.3310000  34.5290000  33.1480000  50.6300000  31.9080000
  31.0060000  49.9510000  32.7620000  34.9530000  51.2420000  31.1820000
  33.5080000  53.5720000  37.7280000  33.0770000  51.5940000  37.9900000
  33.5470000  55.5510000  37.2480000  28.7230000  49.2160000  32.5530000
  30.0500000  48.8670000  32.2850000  32.1460000  49.4650000  33.6540000
  30.0440000  50.8970000  33.4690000  34.7350000  53.6540000  38.3430000
  27.7100000  48.3330000  32.1930000  30.3890000  47.6560000  31.7090000
  32.0540000  48.7080000  34.8020000  33.3790000  49.8910000  33.1510000
  30.3890000  51.9820000  34.2410000  28.7140000  50.4970000  33.2820000
  35.2190000  52.4860000  39.0000000  28.0380000  47.1270000  31.5930000
  26.8010000  48.5540000  32.3560000  29.3720000  46.7650000  31.3600000
  31.2060000  48.4470000  35.1400000  33.2290000  48.3300000  35.4640000
  31.2990000  47.4340000  31.5530000  34.5460000  49.5290000  33.8170000
  30.3220000  51.2690000  30.3540000  29.3830000  52.6940000  34.9110000
  27.7090000  51.2670000  33.8590000  35.4030000  51.7890000  38.3350000
  36.0440000  52.7030000  39.4840000  34.5440000  52.1640000  39.6320000
  28.9220000  43.4880000  29.3450000  29.6820000  45.5080000  30.7760000
  33.1320000  47.4830000  36.6020000  34.4680000  48.7440000  34.9580000
  35.3910000  49.8180000  33.4930000  29.7550000  53.7080000  35.8130000
  28.0420000  52.3460000  34.6780000  26.7970000  51.0580000  33.6960000
  30.9790000  45.3100000  30.2040000  28.9760000  44.3370000  31.1920000
  32.1180000  46.4730000  36.5670000  33.9920000  47.5910000  37.7150000
  35.2660000  48.4830000  35.4030000  28.8270000  54.6650000  36.3240000
  31.0300000  53.6370000  36.4590000  30.9760000  51.6720000  36.9700000
  32.0580000  45.5880000  35.4940000  31.1600000  46.3820000  37.5650000
  28.6120000  44.1320000  32.5190000  28.6870000  43.3530000  30.2550000
  34.1560000  46.5240000  38.5940000  34.6960000  48.7720000  37.9880000
  31.8620000  44.3670000  30.6940000  31.3860000  46.0950000  29.1230000
  28.0530000  55.4530000  35.4700000  29.4340000  53.1330000  27.6480000
  31.5070000  52.4590000  37.0140000  31.8160000  54.7840000  36.5370000
  31.0410000  44.6550000  35.4100000  30.7890000  46.7440000  28.7690000
  30.1470000  45.4320000  37.5010000  33.6750000  45.7200000  38.4420000
  28.8040000  44.7980000  33.1680000  28.0580000  42.1720000  30.6350000
  27.3430000  46.5330000  31.3340000  27.9720000  42.9670000  32.9010000
  35.5660000  48.8470000  39.0560000  31.1970000  46.9780000  38.3040000
  35.0090000  46.6100000  39.6900000  32.7220000  45.6250000  34.8150000
  32.6390000  45.9480000  28.5580000  31.6100000  43.8250000  31.4320000
  33.1370000  44.2030000  30.1060000  34.5720000  49.5310000  37.4310000
  29.0450000  50.5540000  26.6980000  29.2360000  54.3280000  38.2820000
  28.2790000  52.8140000  26.9680000  29.5580000  54.0160000  27.9760000
  27.8820000  55.8410000  38.2210000  31.5090000  55.5920000  36.1440000
  27.1970000  56.4100000  35.9870000  27.3510000  52.8550000  35.0850000
  30.0730000  44.5840000  36.4090000  29.5090000  45.3650000  38.2020000
  27.7170000  42.8420000  33.8080000  27.7000000  41.9750000  31.9590000
  27.8750000  41.5010000  29.9880000  35.0920000  45.8760000  40.2870000
  31.0030000  44.0620000  34.6690000  35.7360000  47.7650000  39.9080000
  36.0540000  49.6470000  39.2100000  33.5060000  44.9990000  29.0550000
  33.7350000  43.5430000  30.4380000  32.9010000  46.4980000  27.8300000
  28.0800000  51.5280000  26.4850000  28.9130000  49.6690000  26.3790000
  27.6150000  53.4790000  26.8290000  27.1160000  56.6140000  37.3640000
  27.8340000  55.9760000  39.1600000  26.6620000  56.9320000  35.4000000
  29.0770000  43.6600000  36.2120000  27.0960000  40.8450000  32.4450000
  36.6430000  47.9590000  40.9280000  34.7260000  44.9310000  28.4060000
  26.9100000  51.3420000  25.7980000  26.2760000  57.6150000  37.7720000
  28.0800000  43.5530000  37.2320000  26.8910000  39.7670000  31.5300000
  36.8830000  46.8710000  41.7810000  35.6850000  44.0530000  28.9340000
  26.6100000  50.0370000  25.3290000  26.1870000  57.8710000  39.1710000
  28.4970000  43.2530000  38.0660000  36.0540000  46.6310000  42.2460000
  27.3990000  42.9050000  36.9570000  26.2940000  40.0600000  30.8090000
  26.4850000  39.0100000  32.0020000  27.7520000  39.4910000  31.1510000
  37.1960000  46.1060000  41.2550000  27.6620000  44.4290000  37.3730000
  37.5670000  47.1170000  42.4400000  35.3480000  43.1340000  28.8870000
  36.5140000  44.1240000  28.4160000  35.8630000  44.2870000  29.8690000
  26.5690000  49.4180000  26.0880000  25.7450000  50.0450000  24.8680000
  27.3070000  49.7450000  24.7070000  25.8910000  57.0590000  39.6340000
  25.5430000  58.5900000  39.3310000  27.0660000  58.1370000  39.5110000
  24.6720000  70.9480000  -6.3830000  23.9900000  69.9990000  -5.6600000
  25.1090000  72.0880000  -5.6720000  23.4830000  68.9430000  -6.3960000
  23.7920000  70.0430000  -4.2910000  24.3460000  72.4970000  -5.2120000
  25.4990000  72.7340000  -6.2970000  25.7850000  71.8230000  -5.0120000
  22.7760000  67.9320000  -5.7780000  23.6220000  68.9140000  -7.3360000
  20.3720000  65.2630000  -4.8660000  24.1490000  70.7580000  -3.7780000
  22.5570000  67.9650000  -4.4030000  22.4370000  67.2090000  -6.2930000
  22.9120000  69.0680000  -2.7360000  21.8090000  66.9300000  -3.7720000
  22.2970000  66.2800000  -2.6230000  20.5830000  66.5440000  -4.3960000
  21.4170000  65.6460000  -1.7350000  23.6740000  66.2600000  -2.3540000
  23.0640000  69.0290000  -3.6730000  18.8800000  69.2410000   5.4380000
  21.9330000  65.0240000  -0.6140000  21.4570000  66.6200000   2.0650000
  24.1760000  65.6270000  -1.2350000  24.2730000  66.6900000  -2.9540000
  23.2960000  58.5770000  -2.1480000  19.7170000  68.3900000  -4.2780000
  18.0410000  70.2150000   5.9670000  19.3940000  68.7020000   6.0280000
  23.3070000  65.0040000  -0.3460000  21.1650000  64.3250000   0.5080000
  25.1120000  65.6160000  -1.0720000  17.2750000  70.9880000   5.1100000
  16.8210000  71.3060000   3.1470000  26.2130000  64.0210000   6.9560000
  18.8820000  63.5900000   0.2990000  20.2090000  63.2410000   0.0310000
  22.3040000  63.8390000   1.4000000  20.2030000  65.2710000   1.2150000
  26.8020000  62.3330000   8.6740000  17.8690000  62.7070000  -0.0610000
  20.5480000  62.0300000  -0.5450000  22.2130000  63.0820000   2.5480000
  23.5380000  64.2650000   0.8970000  20.5480000  66.3560000   1.9870000
  18.8730000  64.8710000   1.0280000  27.0420000  61.2450000   9.5270000
  18.1970000  61.5010000  -0.6610000  16.9600000  62.9280000   0.1020000
  19.5310000  61.1390000  -0.8940000  21.3650000  62.8210000   2.8860000
  23.3870000  62.7040000   3.2100000  21.4580000  61.8080000  -0.7010000
  24.7050000  63.9030000   1.5630000  20.4810000  65.6430000  -1.9000000
  19.5410000  67.0680000   2.6570000  17.8680000  65.6410000   1.6050000
  24.7030000  66.5380000   7.3780000  25.5610000  66.1630000   6.0810000
  26.2030000  67.0770000   7.2300000  17.5020000  60.9070000  -0.9200000
  19.8410000  59.8820000  -1.4780000  23.2910000  61.8570000   4.3480000
  24.6270000  63.1180000   2.7040000  25.5500000  64.1920000   1.2390000
  19.9140000  68.0820000   3.5590000  18.2010000  66.7200000   2.4240000
  16.9550000  65.4320000   1.4420000  19.1350000  58.7110000  -1.0620000
  21.1380000  59.6840000  -2.0500000  22.2760000  60.8470000   4.3130000
  24.1510000  61.9650000   5.4610000  25.4250000  62.8570000   3.1490000
  18.9850000  69.0390000   4.0700000  21.1890000  68.0110000   4.2050000
  21.3550000  61.3520000   6.0510000  18.7710000  58.5060000   0.2650000
  21.3190000  60.7560000   5.3110000  18.8460000  57.7270000  -1.9980000
  18.2110000  69.8260000   3.2160000  22.2170000  59.9610000   3.2400000
  24.3150000  60.8980000   6.3400000  22.0210000  58.7410000  -1.5600000
  21.5450000  60.4690000  -3.1310000  21.9750000  69.1580000   4.2830000
  19.5930000  67.5070000  -4.6060000  24.8550000  63.1460000   5.7340000
  21.6660000  66.8330000   4.7600000  18.2170000  56.5460000  -1.6190000
  18.9630000  59.1720000   0.9140000  18.1310000  57.3410000   0.6470000
  23.8340000  60.0930000   6.1880000  18.2720000  69.7050000   2.2750000
  17.3560000  70.7840000   3.7330000  21.0340000  64.5970000  -4.7190000
  19.2040000  64.9280000  -5.5560000  25.7250000  63.2210000   6.8020000
  21.7690000  58.1990000  -0.8220000  25.1680000  60.9840000   7.4360000
  22.8800000  59.9980000   2.5610000  21.2000000  59.0290000   3.1560000
  19.0810000  57.8620000  -2.9090000  22.7980000  60.3210000  -3.6960000
  20.9480000  61.1180000  -3.4850000  20.3060000  59.8060000   5.2470000
  21.1350000  66.0460000   4.7160000  18.4380000  67.1880000  -5.2860000
  21.6680000  69.9660000   3.8900000  23.1900000  69.1310000   4.9250000
  24.7300000  63.9050000   5.1770000  22.9080000  66.7860000   5.3800000
  17.5090000  67.2290000   2.8310000  17.8590000  56.3490000  -0.2950000
  18.0340000  55.8750000  -2.2660000  17.8760000  57.2160000   1.5540000
  20.2320000  58.9580000   4.1550000  21.1610000  58.4360000   2.4150000
  17.9930000  70.3500000   6.9060000  25.2510000  60.2500000   8.0330000
  25.8940000  62.1390000   7.6540000  23.8940000  57.9170000  -1.8160000
  23.6650000  59.3730000  -3.1990000  23.0600000  60.8720000  -4.4240000
  19.0720000  64.0430000  -5.8750000  18.2390000  65.9020000  -5.7690000
  19.6680000  59.7390000   5.9480000  17.7740000  67.8520000  -5.4250000
  23.6670000  67.9460000   5.4740000  23.7060000  69.9250000   4.9940000
  23.2360000  65.9680000   5.7370000  17.2550000  55.2190000   0.1910000
  16.4340000  71.9890000   5.5180000  19.2360000  58.0340000   3.9580000
  24.8850000  59.3050000  -3.8480000  17.0680000  65.7160000  -6.4560000
  24.8930000  68.0280000   6.0890000  17.0490000  54.1410000  -0.7240000
  18.2390000  57.9270000   4.9780000  25.8440000  58.4260000  -3.3200000
  16.7680000  64.4100000  -6.9250000  16.3460000  72.2450000   6.9170000
  25.3780000  66.8600000   6.7460000  16.6440000  53.3840000  -0.2520000
  17.9100000  53.8650000  -1.1030000  27.7250000  61.4910000  10.1860000
  17.5580000  57.2790000   4.7030000  16.4530000  54.4340000  -1.4450000
  25.5070000  57.5080000  -3.3670000  26.2130000  61.0050000   9.9920000
  26.6730000  58.4980000  -3.8380000  27.3550000  60.4800000   9.0010000
  16.7280000  63.7920000  -6.1660000  17.4660000  64.1180000  -7.5470000
  26.0210000  58.6610000  -2.3850000  15.9030000  64.4190000  -7.3860000
  18.6560000  57.6270000   5.8120000  17.8200000  58.8030000   5.1190000
  17.2240000  72.5110000   7.2570000  15.7010000  72.9640000   7.0770000
  16.0500000  71.4330000   7.3800000  22.7830000   4.4090000  24.8010000
  21.8750000   4.2150000  23.7810000  23.0230000   3.3210000  25.6540000
  21.7060000   5.2970000  22.9290000  21.1490000   3.0600000  23.5630000
  22.1830000   9.1530000  23.3570000  21.5420000   8.2400000  22.2080000
  22.1940000   3.0810000  26.1190000  14.8610000  11.3180000  21.5650000
  22.1940000   6.0970000  23.0830000  14.1920000  11.9030000  19.3430000
  21.2310000   2.3260000  24.1600000  14.9660000  11.1160000  20.1970000
  19.8140000   2.1700000  22.3150000  15.3750000  10.7780000  22.1550000
  19.2720000   3.9330000  20.4750000  19.3680000   4.7800000  19.3370000
  20.1320000   4.0420000  21.5880000  16.5280000   8.4320000  18.1140000
  20.6070000   5.1940000  18.8310000  20.2960000   2.9750000  22.4670000
  20.8350000   5.2220000  21.8610000  18.2850000   5.9150000  17.5270000
  17.3450000   4.8980000  19.0130000  20.6860000   5.9790000  17.6900000
  14.2530000  11.7810000  18.4020000  16.2870000   1.8820000  21.3740000
  21.4050000   4.9330000  19.2760000  18.8890000   8.8620000  21.5070000
  20.7110000   5.9820000  21.3040000  19.5190000   6.3410000  17.0240000
  17.1450000   6.4010000  16.6350000  21.0920000   7.6930000  15.0550000
  19.6480000  10.0220000  21.6010000  15.6490000   1.8150000  22.0750000
  19.2160000   8.0450000  21.8640000  19.2880000   7.0810000  15.7810000
  17.9140000   7.1000000  15.5130000  16.1900000   5.3170000  16.1580000
  16.1840000   7.3470000  17.3420000  20.8740000  10.1040000  22.2160000
  20.1560000   7.7030000  14.8920000  16.5280000   4.1070000  15.5820000
  18.1940000   5.1590000  18.6750000  14.8630000   5.6670000  16.4260000
  17.3970000   7.7220000  14.3920000  14.8540000   6.9480000  17.1550000
  21.3590000   8.9370000  22.8730000  19.6550000   8.3360000  13.7730000
  21.5310000   6.2680000  17.3660000  15.5120000   3.2160000  15.2330000
  16.4620000   7.7200000  14.2270000  15.5220000   9.1440000  18.7840000
  17.4390000   3.8850000  15.4260000  13.8500000   4.7830000  16.0660000
  17.4380000   8.6970000  18.1920000  18.2770000   8.3570000  13.5040000
  13.8480000   7.7170000  17.7320000  20.6830000   8.6140000  23.5050000
  23.7060000   3.5670000  26.3130000  23.3360000   2.5570000  25.1280000
  16.9290000   3.1940000  12.6420000  17.7900000   9.0060000  12.3550000
  15.8220000   1.9580000  14.6490000  14.1780000   3.5770000  15.4660000
  12.9410000   5.0040000  16.2290000  15.8950000  10.1590000  19.6860000
  14.1820000   8.7970000  18.5510000  12.9360000   7.5080000  17.5690000
  16.5640000   8.6210000  11.7310000  18.5380000  10.0420000  11.7240000
  15.1160000   0.7870000  15.0650000  18.2570000   2.9230000  20.4400000
  17.3360000   3.4280000  22.1770000  17.1190000   1.7610000  14.0770000
  17.1700000  10.0870000  20.3320000  17.1160000   8.1230000  20.8430000
  14.8270000  -0.1970000  14.1290000  17.5260000   2.5460000  12.9960000
  16.3530000   7.3390000  11.2600000  18.7570000  10.0090000  10.3490000
  14.7520000   0.5820000  16.3920000  17.3000000   2.8320000  21.4380000
  18.0010000   0.8180000  14.5670000  18.1980000   2.0380000  19.3670000
  15.5740000   9.5840000  11.5210000  19.0450000  11.1060000  12.4540000
  17.6470000   8.9090000  20.8870000  17.9550000  11.2340000  20.4100000
  19.2770000   0.6530000  13.9790000  13.4830000   2.9830000  15.2070000
  13.3370000  12.8600000  19.8600000  17.0150000   6.6730000  11.4080000
  18.4180000   9.2860000   9.8340000  14.4190000   9.2640000  10.8410000
  20.2530000   8.7660000  13.1730000  19.4630000  11.0190000   9.7310000
  14.1980000  -1.3780000  14.5080000  14.9440000   1.2490000  17.0410000
  14.1110000  -0.5830000  16.7740000  18.8610000   2.0750000  18.6880000
  18.7780000   2.3980000  12.4310000  15.0610000  -0.0620000  13.2180000
  17.1810000   1.1060000  19.2830000  17.7500000   0.2750000  15.3050000
  15.1850000   7.0040000  10.5710000  15.6980000  10.4660000  11.8490000
  19.7730000  12.1190000  11.8360000  18.8930000  11.1440000  13.3910000
  19.1710000  11.2070000  21.0520000  17.6490000  12.0420000  20.0170000
  14.0220000  12.2920000  22.0940000  13.4900000   9.3050000  18.9580000
  19.6460000   1.4490000  12.9280000  14.0150000  -2.0490000  13.8610000
  13.9740000  12.4260000  23.0330000  14.2200000   7.9780000  10.3580000
  15.0520000   6.1190000  10.2520000  19.6020000  10.9900000   8.7910000
  13.8570000  -0.7080000  17.6810000  13.8390000  -1.5750000  15.8320000
  17.1420000   0.5120000  18.5420000  16.2130000   1.0340000  20.2820000
  19.0400000   2.9480000  11.7030000  19.8740000  -0.0070000  14.3110000
  19.9710000  12.0750000  10.4670000  13.7540000   9.9290000  10.7020000
  20.1300000  12.8350000  12.3490000  13.2560000  13.0640000  21.2370000
  19.6870000  12.0020000  21.1210000  12.8020000  13.3820000  19.2740000
  15.2170000   0.1100000  20.0850000  13.0490000   7.7920000   9.6710000
  13.2360000  -2.7040000  16.3180000  20.8660000   1.3810000  12.2790000
  20.6520000  13.0250000   9.7440000  12.4150000  14.0650000  21.6450000
  14.2200000   0.0040000  21.1050000  12.7490000   6.4870000   9.2020000
  13.0300000  -3.7830000  15.4030000  21.8250000   0.5030000  12.8070000
  21.0890000  14.1650000  10.4550000  12.3260000  14.3210000  23.0440000
  13.8010000   0.8790000  21.2460000  14.6370000  -0.2970000  21.9390000
  13.5380000  -0.6440000  20.8300000  11.8840000   6.4960000   8.7410000
  13.4470000   6.1950000   8.5800000  12.7090000   5.8680000   9.9610000
  13.8910000  -4.0590000  15.0240000  12.6250000  -4.5390000  15.8750000
  12.4340000  -3.4900000  14.6820000  22.6530000   0.5740000  12.2890000
  22.0020000   0.7380000  13.7420000  21.4880000  -0.4160000  12.7600000
  20.3270000  14.5740000  10.9150000  21.4800000  14.8100000   9.8300000
  21.7660000  13.8990000  11.1150000  12.0310000  13.5100000  23.5070000
  11.6820000  15.0410000  23.2040000  13.2050000  14.5880000  23.3840000
  28.9800000   4.4700000  40.9280000  28.0730000   4.2760000  39.9080000
  29.2200000   3.3820000  41.7810000  27.9030000   5.3580000  39.0560000
  27.3460000   3.1210000  39.6900000  28.3810000   9.2140000  39.4840000
  27.7400000   8.3010000  38.3350000  28.3910000   3.1420000  42.2460000
  21.0590000  11.3790000  37.6920000  28.3910000   6.1580000  39.2100000
  20.3900000  11.9640000  35.4700000  27.4290000   2.3870000  40.2870000
  21.1640000  11.1770000  36.3240000  26.0120000   2.2310000  38.4420000
  21.5730000  10.8390000  38.2820000  25.4700000   3.9940000  36.6020000
  25.5660000   4.8420000  35.4640000  26.3300000   4.1030000  37.7150000
  22.7260000   8.4940000  34.2410000  26.8050000   5.2550000  34.9580000
  26.4940000   3.0360000  38.5940000  27.0330000   5.2830000  37.9880000
  24.4830000   5.9760000  33.6540000  23.5430000   4.9590000  35.1400000
  26.8840000   6.0400000  33.8170000  20.4500000  11.8420000  34.5290000
  22.4840000   1.9430000  37.5010000  27.6030000   4.9940000  35.4030000
  25.0870000   8.9230000  37.6340000  26.9090000   6.0430000  37.4310000
  25.7160000   6.4020000  33.1510000  23.3430000   6.4620000  32.7620000
  27.2900000   7.7540000  31.1820000  25.8450000  10.0830000  37.7280000
  21.8470000   1.8770000  38.2020000  25.4140000   8.1060000  37.9900000
  25.4850000   7.1420000  31.9080000  24.1120000   7.1610000  31.6400000
  22.3870000   5.3780000  32.2850000  22.3810000   7.4080000  33.4690000
  27.0720000  10.1650000  38.3430000  26.3540000   7.7640000  31.0190000
  22.7260000   4.1680000  31.7090000  24.3920000   5.2200000  34.8020000
  21.0600000   5.7280000  32.5530000  23.5950000   7.7830000  30.5190000
  21.0510000   7.0090000  33.2820000  27.5560000   8.9980000  39.0000000
  25.8530000   8.3970000  29.9000000  27.7290000   6.3290000  33.4930000
  21.7090000   3.2770000  31.3600000  22.6600000   7.7810000  30.3540000
  21.7200000   9.2060000  34.9110000  23.6360000   3.9460000  31.5530000
  20.0480000   4.8440000  32.1930000  23.6350000   8.7580000  34.3190000
  24.4750000   8.4180000  29.6310000  20.0460000   7.7780000  33.8590000
  26.8810000   8.6750000  39.6320000  29.9040000   3.6280000  42.4400000
  29.5330000   2.6180000  41.2550000  23.1270000   3.2550000  28.7690000
  23.9880000   9.0670000  28.4820000  22.0190000   2.0190000  30.7760000
  20.3750000   3.6390000  31.5930000  19.1390000   5.0650000  32.3560000
  22.0930000  10.2200000  35.8130000  20.3800000   8.8580000  34.6780000
  19.1340000   7.5690000  33.6960000  22.7610000   8.6820000  27.8580000
  24.7360000  10.1030000  27.8510000  21.3130000   0.8480000  31.1920000
  24.4550000   2.9840000  36.5670000  23.5340000   3.4890000  38.3040000
  23.3160000   1.8220000  30.2040000  23.3670000  10.1480000  36.4590000
  23.3130000   8.1840000  36.9700000  21.0240000  -0.1360000  30.2550000
  23.7230000   2.6070000  29.1230000  22.5510000   7.4000000  27.3870000
  24.9550000  10.0700000  26.4760000  20.9490000   0.6440000  32.5190000
  23.4970000   2.8930000  37.5650000  24.1990000   0.8790000  30.6940000
  24.3950000   2.0990000  35.4940000  21.7710000   9.6450000  27.6480000
  25.2420000  11.1670000  28.5810000  23.8440000   8.9700000  37.0140000
  24.1530000  11.2950000  36.5370000  25.4750000   0.7140000  30.1060000
  19.6810000   3.0450000  31.3340000  19.5350000  12.9210000  35.9870000
  23.2120000   6.7350000  27.5350000  24.6160000   9.3470000  25.9610000
  20.6170000   9.3260000  26.9680000  26.4510000   8.8270000  29.3000000
  25.6610000  11.0800000  25.8580000  20.3960000  -1.3170000  30.6350000
  21.1420000   1.3100000  33.1680000  20.3090000  -0.5220000  32.9010000
  25.0590000   2.1360000  34.8150000  24.9760000   2.4590000  28.5580000
  21.2590000  -0.0010000  29.3450000  23.3790000   1.1670000  35.4100000
  23.9470000   0.3360000  31.4320000  21.3820000   7.0650000  26.6980000
  21.8950000  10.5280000  27.9760000  25.9700000  12.1810000  27.9630000
  25.0900000  11.2050000  29.5180000  25.3680000  11.2680000  37.1790000
  23.8470000  12.1030000  36.1440000  20.2190000  12.3530000  38.2210000
  19.6880000   9.3670000  35.0850000  25.8440000   1.5100000  29.0550000
  20.2120000  -1.9880000  29.9880000  20.1710000  12.4870000  39.1600000
  20.4170000   8.0400000  26.4850000  21.2500000   6.1800000  26.3790000
  25.8000000  11.0510000  24.9180000  20.0540000  -0.6470000  33.8080000
  20.0370000  -1.5130000  31.9590000  23.3400000   0.5730000  34.6690000
  22.4110000   1.0950000  36.4090000  25.2380000   3.0090000  27.8300000
  26.0720000   0.0550000  30.4380000  26.1680000  12.1360000  26.5940000
  19.9520000   9.9900000  26.8290000  26.3280000  12.8960000  28.4760000
  19.4540000  13.1250000  37.3640000  25.8850000  12.0630000  37.2480000
  19.0000000  13.4430000  35.4000000  21.4140000   0.1710000  36.2120000
  19.2470000   7.8530000  25.7980000  19.4340000  -2.6430000  32.4450000
  27.0630000   1.4420000  28.4060000  26.8500000  13.0860000  25.8710000
  18.6130000  14.1260000  37.7720000  20.4170000   0.0650000  37.2320000
  18.9470000   6.5480000  25.3290000  19.2280000  -3.7220000  31.5300000
  28.0230000   0.5640000  28.9340000  27.2870000  14.2260000  26.5820000
  18.5240000  14.3820000  39.1710000  19.9990000   0.9400000  37.3730000
  20.8340000  -0.2350000  38.0660000  19.7360000  -0.5830000  36.9570000
  18.0820000   6.5570000  24.8680000  19.6440000   6.2560000  24.7070000
  18.9070000   5.9290000  26.0880000  20.0890000  -3.9970000  31.1510000
  18.8220000  -4.4780000  32.0020000  18.6320000  -3.4290000  30.8090000
  28.8510000   0.6350000  28.4160000  28.2000000   0.7990000  29.8690000
  27.6850000  -0.3550000  28.8870000  26.5250000  14.6350000  27.0420000
  27.6770000  14.8710000  25.9570000  27.9630000  13.9600000  27.2420000
  18.2290000  13.5710000  39.6340000  17.8800000  15.1020000  39.3310000
  19.4030000  14.6490000  39.5110000   6.2170000  14.0040000   5.5180000
   7.0580000  13.0030000   5.1100000  15.1610000   8.8750000   6.7460000
   7.1390000  12.7990000   3.7330000   7.8240000  12.2310000   5.9670000
  15.5680000  13.8380000  -5.0120000  15.9960000   3.0200000   9.9920000
  15.3440000   8.1790000   6.0810000   8.6640000  11.2560000   5.4380000
   7.7760000  12.3650000   6.9060000   7.9940000  11.8420000   3.2160000
  13.0190000   7.9830000   5.7370000   8.7680000  11.0540000   4.0700000
  13.6170000   2.1090000   6.1880000   9.1770000  10.7170000   6.0280000
   9.6970000  10.0980000   3.5590000  12.0800000   8.2960000  -2.6230000
  13.9340000   3.9810000   5.4610000  10.3310000   8.3710000   1.9870000
  13.4570000   8.2750000  -2.3540000  14.0980000   2.9140000   6.3400000
  14.6380000   5.1610000   5.7340000  12.0870000   5.8540000   1.4000000
  11.1480000   4.8360000   2.8860000  14.4880000   5.9180000   1.5630000
  14.0560000   8.7050000  -2.9540000  14.9510000   2.9990000   7.4360000
  15.2080000   4.8720000   3.1490000  15.5080000   5.2360000   6.8020000
  14.5140000   5.9210000   5.1770000  13.0900000   7.0200000  -0.3460000
  10.9480000   6.3400000   0.5080000  14.8950000   7.6320000  -1.0720000
  15.6780000   4.1540000   7.6540000  15.0340000   2.2650000   8.0330000
  15.9960000   6.0360000   6.9560000   8.6650000   5.6060000   0.2990000
  11.7160000   7.0390000  -0.6140000   9.9920000   5.2560000   0.0310000
   9.9860000   7.2860000   1.2150000  16.5850000   4.3480000   8.6740000
  13.9590000   7.6420000  -1.2350000  10.3310000   4.0460000  -0.5450000
  11.9960000   5.0980000   2.5480000  13.3210000   6.2800000   0.8970000
  11.2000000   7.6610000  -1.7350000   8.6560000   6.8860000   1.0280000
  16.8250000   3.2600000   9.5270000   7.9800000   3.5160000  -0.6610000
  15.3330000   6.2070000   1.2390000   9.3140000   3.1540000  -0.8940000
  11.2400000   8.6360000   2.0650000  13.1700000   4.7190000   3.2100000
  11.2410000   3.8240000  -0.7010000   7.6520000   4.7220000  -0.0610000
  10.2640000   7.6580000  -1.9000000   9.3240000   9.0830000   2.6570000
   7.6510000   7.6560000   1.6050000  14.4860000   8.5530000   7.3780000
  17.5080000   3.5060000  10.1860000  15.9860000   9.0920000   7.2300000
  10.7310000   3.1330000  -3.4850000   9.6240000   1.8970000  -1.4780000
  13.0740000   3.8720000   4.3480000  14.4100000   5.1330000   2.7040000
   6.7430000   4.9430000   0.1020000  11.5920000   8.9450000  -3.7720000
   7.9840000   8.7360000   2.4240000   6.7380000   7.4470000   1.4420000
  10.9210000   1.7000000  -2.0500000  10.3660000   8.5600000  -4.3960000
  12.0600000   2.8620000   4.3130000   8.9180000   0.7260000  -1.0620000
  11.1380000   3.3670000   6.0510000  12.3400000   9.9810000  -4.4030000
  10.9720000  10.0260000   4.2050000  10.9180000   8.0620000   4.7160000
   8.6290000  -0.2580000  -1.9980000  11.3280000   2.4840000  -3.1310000
  10.1550000   7.2780000  -4.8660000  12.5590000   9.9470000  -5.7780000
   8.5540000   0.5210000   0.2650000  11.1020000   2.7710000   5.3110000
  11.8040000   0.7570000  -1.5600000  12.0000000   1.9770000   3.2400000
   9.3760000   9.5230000  -4.6060000  12.8470000  11.0450000  -3.6730000
  11.4490000   8.8480000   4.7600000  11.7580000  11.1730000   4.2830000
   8.0000000  -1.4390000  -1.6190000   7.2850000   2.9220000  -0.9200000
  13.0790000   0.5920000  -2.1480000   8.0550000  11.7200000   2.2750000
  10.8170000   6.6120000  -4.7190000   8.9870000   6.9430000  -5.5560000
  12.2200000   9.2250000  -6.2930000   8.2210000   9.2030000  -5.2860000
   7.9140000  -0.6440000   0.6470000   8.7460000   1.1880000   0.9140000
  10.9830000   1.0440000   3.1560000  12.6630000   2.0140000   2.5610000
  12.5810000   2.3370000  -3.6960000   8.8640000  -0.1230000  -2.9090000
  10.0890000   1.8210000   5.2470000  11.5520000   0.2140000  -0.8220000
  13.5750000  12.0580000  -4.2910000   9.5000000  10.4050000  -4.2780000
  13.2660000  10.9580000  -6.3960000  12.6950000  11.0830000  -2.7360000
  12.9730000  11.1460000   4.9250000  11.4510000  11.9810000   3.8900000
  12.6910000   8.8010000   5.3800000   7.2920000   9.2440000   2.8310000
  10.0150000   0.9730000   4.1550000   7.8170000  -2.1100000  -2.2660000
  10.9440000   0.4510000   2.4150000   8.0220000   7.9170000  -5.7690000
   8.8550000   6.0580000  -5.8750000  13.4050000  10.9290000  -7.3360000
   7.6590000  -0.7690000   1.5540000   7.6420000  -1.6360000  -0.2950000
   9.4510000   1.7540000   5.9480000  13.4480000   1.3880000  -3.1990000
  12.8430000   2.8870000  -4.4240000  13.6770000  -0.0680000  -1.8160000
  13.7730000  12.0140000  -5.6600000   7.5570000   9.8680000  -5.4250000
  13.9320000  12.7730000  -3.7780000  13.4500000   9.9610000   5.4740000
  13.4890000  11.9410000   4.9940000   6.6040000  13.3210000   3.1470000
   9.0190000   0.0490000   3.9580000   6.8510000   7.7310000  -6.4560000
   7.0380000  -2.7650000   0.1910000  14.6680000   1.3200000  -3.8480000
  14.4550000  12.9630000  -6.3830000  14.6760000  10.0430000   6.0890000
   8.0220000  -0.0570000   4.9780000   6.5510000   6.4260000  -6.9250000
   6.8330000  -3.8440000  -0.7240000  15.6270000   0.4420000  -3.3200000
  14.8920000  14.1030000  -5.6720000   6.1290000  14.2600000   6.9170000
   7.3410000  -0.7060000   4.7030000   6.2360000  -3.5510000  -1.4450000
   8.4390000  -0.3580000   5.8120000   7.2490000   6.1340000  -7.5470000
   6.5110000   5.8070000  -6.1660000   5.6860000   6.4340000  -7.3860000
   7.6930000  -4.1200000  -1.1030000   6.4270000  -4.6010000  -0.2520000
  17.1380000   2.4960000   9.0010000  16.4560000   0.5130000  -3.8380000
  15.8040000   0.6770000  -2.3850000  15.2900000  -0.4770000  -3.3670000
  15.2820000  14.7490000  -6.2970000   7.6040000   0.8180000   5.1190000
  14.1290000  14.5130000  -5.2120000   5.8330000  13.4490000   7.3800000
   5.4840000  14.9800000   7.0770000   7.0080000  14.5270000   7.2570000
  15.6030000  22.2880000   9.6710000  16.3940000  12.9220000  15.8320000
  14.8810000  28.8170000  23.0440000  16.9730000  23.7610000  10.8410000
  17.7390000  21.5000000  10.5710000  14.9880000  11.0060000  14.6820000
  14.5850000  28.0060000  23.5070000  14.2360000  29.5370000  23.2040000
  18.1280000  24.0800000  11.5210000  16.3090000  24.4250000  10.7020000
  17.4150000  25.8140000  21.5650000  17.6070000  20.6150000  10.2520000
  19.1180000  23.1170000  11.7310000  18.2520000  24.9630000  11.8490000
  17.9290000  25.2740000  22.1550000  20.3440000  23.5030000  12.3550000
  18.0660000  17.7120000  15.2330000  21.0920000  24.5380000  11.7240000
  19.9520000  22.2180000  14.3920000  16.7320000  18.0740000  15.4660000
  18.9070000  21.8350000  11.2600000  21.3110000  24.5050000  10.3490000
  18.7440000  19.8130000  16.1580000  19.0160000  22.2160000  14.2270000
  16.4040000  19.2790000  16.0660000  16.0370000  17.4800000  15.2070000
  22.3270000  26.6160000  11.8360000  19.4830000  17.6910000  12.6420000
  22.0180000  25.5150000   9.7310000  20.9720000  23.7820000   9.8340000
  17.4170000  20.1630000  16.4260000  19.7000000  20.8970000  16.6350000
  15.4950000  19.5000000  16.2290000  16.7740000  22.4750000  10.3580000
  22.1570000  25.4860000   8.7910000  22.6840000  27.3310000  12.3490000
  17.4080000  21.4440000  17.1550000  20.8390000  20.4110000  17.5270000
  20.4680000  21.5960000  15.5130000  18.7380000  21.8430000  17.3420000
  23.2070000  27.5210000   9.7440000  16.4030000  22.2130000  17.7320000
  20.7480000  19.6550000  18.6750000  19.0830000  18.6030000  15.5820000
  21.8420000  21.5770000  15.7810000  19.0830000  22.9290000  18.1140000
  22.0730000  20.8370000  17.0240000  15.3030000  20.9830000   9.2020000
  23.1620000  19.6900000  18.8310000  15.4900000  22.0040000  17.5690000
  21.9220000  19.2770000  19.3370000  19.9000000  19.3940000  19.0130000
  20.8320000  22.8530000  13.5040000  19.9930000  18.3810000  15.4260000
  23.2400000  20.4760000  17.6900000  19.9920000  23.1930000  18.1920000
  18.0760000  23.6410000  18.7840000  22.7110000  22.1990000  14.8920000
  16.0010000  20.6910000   8.5800000  15.2630000  20.3640000   9.9610000
  14.4380000  20.9920000   8.7410000  17.4980000  15.7450000  17.0410000
  21.8260000  18.4290000  20.4750000  18.3760000  16.4540000  14.6490000
  22.2090000  22.8320000  13.7730000  23.6470000  22.1890000  15.0550000
  18.4490000  24.6550000  19.6860000  16.7360000  23.2930000  18.5510000
  24.0850000  20.7640000  17.3660000  22.6860000  18.5380000  21.5880000
  20.8110000  17.4190000  20.4400000  19.6730000  16.2570000  14.0770000
  17.6700000  15.2830000  15.0650000  22.8080000  23.2620000  13.1730000
  19.7240000  24.5830000  20.3320000  17.5200000  25.6120000  20.1970000
  21.4470000  25.6400000  13.3910000  20.7520000  16.5340000  19.3670000
  23.3900000  19.7190000  21.8610000  22.8500000  17.4710000  22.4670000
  19.8540000  17.3280000  21.4380000  20.0800000  17.0420000  12.9960000
  17.3810000  14.2990000  14.1290000  20.5560000  15.3140000  14.5670000
  17.3060000  15.0790000  16.3920000  20.2010000  23.4050000  20.8870000
  16.7460000  26.3990000  19.3430000  21.5990000  25.6020000  12.4540000
  20.5100000  25.7300000  20.4100000  19.7350000  15.6020000  19.2830000
  21.4150000  16.5710000  18.6880000  24.2600000  19.7930000  22.9290000
  23.9600000  19.4300000  19.2760000  23.2650000  20.4780000  21.3040000
  23.7030000  17.5560000  23.5630000  19.8900000  17.9240000  22.1770000
  18.8410000  16.3790000  21.3740000  21.8310000  15.1490000  13.9790000
  16.8070000  26.2770000  18.4020000  21.3320000  16.8940000  12.4310000
  19.5690000  21.1700000  11.4080000  16.6660000  13.9130000  16.7740000
  20.3040000  14.7710000  15.3050000  16.7520000  13.1180000  14.5080000
  17.6160000  14.4340000  13.2180000  21.4430000  23.3580000  21.5070000
  22.3690000  16.6660000  22.3150000  16.5760000  26.7880000  22.0940000
  19.6700000  22.6190000  20.8430000  15.8910000  27.3570000  19.8600000
  16.0440000  23.8020000  18.9580000  21.7250000  25.7030000  21.0520000
  20.2030000  26.5390000  20.0170000  24.4290000  18.7110000  23.7810000
  22.4290000  14.4900000  14.3110000  24.7480000  20.5940000  23.0830000
  18.7670000  15.5300000  20.2820000  19.6960000  15.0080000  18.5420000
  18.2030000  16.3120000  22.0750000  23.7860000  16.8220000  24.1600000
  15.8100000  27.5600000  21.2370000  16.5690000  12.4470000  13.8610000
  22.2000000  15.9460000  12.9280000  16.4110000  13.7880000  17.6810000
  21.5950000  17.4440000  11.7030000  22.2020000  24.5180000  21.6010000
  21.7710000  22.5410000  21.8640000  16.5280000  26.9220000  23.0330000
  22.5250000  26.5710000  10.4670000  15.3560000  27.8780000  19.2740000
  22.2410000  26.4980000  21.1210000  15.7900000  11.7920000  16.3180000
  25.3370000  18.9050000  24.8010000  23.4200000  15.8770000  12.2790000
  17.7710000  14.6070000  20.0850000  23.4280000  24.6000000  22.2160000
  14.9690000  28.5610000  21.6450000  16.7740000  14.5000000  21.1050000
  25.5770000  17.8180000  25.6540000  24.3790000  14.9990000  12.8070000
  15.5840000  10.7140000  15.4030000  23.9130000  23.4330000  22.8730000
  23.6440000  28.6610000  10.4550000  24.7380000  23.6490000  23.3570000
  16.3550000  15.3750000  21.2460000  24.0960000  22.7360000  22.2080000
  24.7480000  17.5770000  26.1190000  25.8900000  17.0530000  25.1280000
  26.2600000  18.0630000  26.3130000  15.7590000  29.0840000  23.3840000
  24.5560000  15.2340000  13.7420000  25.2080000  15.0700000  12.2890000
  16.4450000  10.4380000  15.0240000  15.1790000   9.9570000  15.8750000
  24.0420000  14.0800000  12.7600000  17.1910000  14.2000000  21.9390000
  23.2380000  23.1110000  23.5050000  16.0930000  13.8520000  20.8300000
  24.3200000  28.3950000  11.1150000  22.8810000  29.0700000  10.9150000
  24.0340000  29.3070000   9.8300000  21.8010000  22.3500000  25.7980000
  22.5910000  12.9830000  31.9590000  21.0780000  28.8780000  39.1710000
  23.1710000  23.8220000  26.9680000  23.9370000  21.5620000  26.6980000
  21.1860000  11.0670000  30.8090000  20.7830000  28.0670000  39.6340000
  20.4340000  29.5980000  39.3310000  24.3250000  24.1410000  27.6480000
  22.5060000  24.4860000  26.8290000  23.6130000  25.8750000  37.6920000
  23.8040000  20.6770000  26.3790000  25.3160000  23.1780000  27.8580000
  24.4500000  25.0240000  27.9760000  24.1270000  25.3350000  38.2820000
  26.5420000  23.5640000  28.4820000  24.2640000  17.7730000  31.3600000
  27.2900000  24.5990000  27.8510000  26.1490000  22.2790000  30.5190000
  22.9290000  18.1350000  31.5930000  25.1050000  21.8960000  27.3870000
  27.5090000  24.5660000  26.4760000  24.9420000  19.8740000  32.2850000
  25.2140000  22.2770000  30.3540000  22.6020000  19.3400000  32.1930000
  22.2350000  17.5410000  31.3340000  28.5250000  26.6770000  27.9630000
  25.6810000  17.7520000  28.7690000  28.2150000  25.5770000  25.8580000
  27.1700000  23.8430000  25.9610000  23.6140000  20.2240000  32.5530000
  25.8970000  20.9580000  32.7620000  21.6930000  19.5620000  32.3560000
  22.9710000  22.5360000  26.4850000  28.3540000  25.5470000  24.9180000
  28.8820000  27.3920000  28.4760000  23.6060000  21.5050000  33.2820000
  27.0370000  20.4720000  33.6540000  26.6660000  21.6580000  31.6400000
  24.9360000  21.9050000  33.4690000  29.4040000  27.5820000  25.8710000
  22.6000000  22.2750000  33.8590000  26.9460000  19.7160000  34.8020000
  25.2800000  18.6640000  31.7090000  28.0400000  21.6380000  31.9080000
  25.2800000  22.9900000  34.2410000  28.2710000  20.8980000  33.1510000
  21.5010000  21.0440000  25.3290000  29.3590000  19.7520000  34.9580000
  21.6880000  22.0650000  33.6960000  28.1200000  19.3380000  35.4640000
  26.0970000  19.4550000  35.1400000  27.0290000  22.9140000  29.6310000
  26.1910000  18.4420000  31.5530000  29.4380000  20.5370000  33.8170000
  26.1890000  23.2540000  34.3190000  24.2740000  23.7020000  34.9110000
  28.9080000  22.2600000  31.0190000  22.1990000  20.7520000  24.7070000
  21.4610000  20.4250000  26.0880000  20.6360000  21.0530000  24.8680000
  23.6960000  15.8060000  33.1680000  28.0240000  18.4900000  36.6020000
  24.5740000  16.5160000  30.7760000  28.4070000  22.8940000  29.9000000
  29.8440000  22.2500000  31.1820000  24.6470000  24.7160000  35.8130000
  22.9340000  23.3540000  34.6780000  30.2830000  20.8260000  33.4930000
  28.8840000  18.5990000  37.7150000  27.0090000  17.4800000  36.5670000
  25.8710000  16.3180000  30.2040000  23.8670000  15.3440000  31.1920000
  29.0050000  23.3240000  29.3000000  25.9220000  24.6440000  36.4590000
  23.7180000  25.6730000  36.3240000  27.6450000  25.7010000  29.5180000
  26.9500000  16.5950000  35.4940000  29.5870000  19.7800000  37.9880000
  29.0480000  17.5320000  38.5940000  26.0520000  17.3900000  37.5650000
  26.2770000  17.1030000  29.1230000  23.5790000  14.3600000  30.2550000
  26.7530000  15.3750000  30.6940000  23.5040000  15.1400000  32.5190000
  26.3990000  23.4660000  37.0140000  22.9440000  26.4600000  35.4700000
  27.7970000  25.6630000  28.5810000  26.7070000  25.7910000  36.5370000
  25.9330000  15.6630000  35.4100000  27.6130000  16.6320000  34.8150000
  30.4580000  19.8540000  39.0560000  30.1570000  19.4910000  35.4030000
  29.4630000  20.5390000  37.4310000  29.9010000  17.6170000  39.6900000
  26.0880000  17.9850000  38.3040000  25.0390000  16.4400000  37.5010000
  28.0290000  15.2100000  30.1060000  23.0050000  26.3380000  34.5290000
  27.5300000  16.9550000  28.5580000  25.7670000  21.2310000  27.5350000
  22.8630000  13.9740000  32.9010000  26.5020000  14.8330000  31.4320000
  22.9500000  13.1790000  30.6350000  23.8130000  14.4960000  29.3450000
  27.6410000  23.4190000  37.6340000  28.5660000  16.7270000  38.4420000
  22.7730000  26.8490000  38.2210000  25.8680000  22.6800000  36.9700000
  22.0890000  27.4180000  35.9870000  22.2420000  23.8630000  35.0850000
  27.9230000  25.7650000  37.1790000  26.4010000  26.6000000  36.1440000
  30.6270000  18.7720000  39.9080000  28.6260000  14.5510000  30.4380000
  30.9460000  20.6550000  39.2100000  24.9650000  15.5910000  36.4090000
  25.8940000  15.0700000  34.6690000  24.4010000  16.3730000  38.2020000
  29.9830000  16.8830000  40.2870000  22.0080000  27.6210000  37.3640000
  22.7670000  12.5090000  29.9880000  28.3980000  16.0070000  29.0550000
  22.6090000  13.8490000  33.8080000  27.7920000  17.5060000  27.8300000
  28.3990000  24.5800000  37.7280000  27.9680000  22.6020000  37.9900000
  22.7260000  26.9830000  39.1600000  28.7230000  26.6330000  26.5940000
  21.5540000  27.9390000  35.4000000  28.4390000  26.5590000  37.2480000
  21.9880000  11.8530000  32.4450000  31.5350000  18.9660000  40.9280000
  29.6180000  15.9380000  28.4060000  23.9690000  14.6680000  36.2120000
  29.6260000  24.6610000  38.3430000  21.1670000  28.6220000  37.7720000
  22.9720000  14.5610000  37.2320000  31.7750000  17.8790000  41.7810000
  30.5770000  15.0600000  28.9340000  21.7820000  10.7750000  31.5300000
  30.1110000  23.4940000  39.0000000  29.8410000  28.7220000  26.5820000
  30.9350000  23.7100000  39.4840000  22.5530000  15.4370000  37.3730000
  30.2940000  22.7970000  38.3350000  30.9460000  17.6380000  42.2460000
  32.0880000  17.1140000  41.2550000  32.4580000  18.1250000  42.4400000
  21.9570000  29.1450000  39.5110000  30.7540000  15.2950000  29.8690000
  31.4050000  15.1320000  28.4160000  22.6430000  10.4990000  31.1510000
  21.3770000  10.0180000  32.0020000  30.2400000  14.1410000  28.8870000
  23.3890000  14.2610000  38.0660000  29.4350000  23.1720000  39.6320000
  22.2900000  13.9130000  36.9570000  30.5180000  28.4560000  27.2420000
  29.0790000  29.1310000  27.0420000  30.2320000  29.3680000  25.9570000
  25.7610000  42.0170000   9.7440000  25.0790000  41.0680000  10.4670000
  26.1980000  43.1570000  10.4550000  24.8810000  41.1120000  11.8360000
  24.5720000  40.0120000   9.7310000  26.5880000  43.8030000   9.8300000
  26.8740000  42.8910000  11.1150000  25.4360000  43.5660000  10.9150000
  21.4620000  36.3310000  11.2600000  25.2380000  41.8270000  12.3490000
  23.8660000  39.0010000  10.3490000  24.7110000  39.9820000   8.7910000
  23.6470000  39.0340000  11.7240000  23.5270000  38.2780000   9.8340000
  24.0010000  40.1370000  13.3910000  22.8980000  37.9990000  12.3550000
  23.3860000  37.3490000  13.5040000  21.6720000  37.6130000  11.7310000
  22.5060000  36.7140000  14.3920000  24.7630000  37.3290000  13.7730000
  19.9700000  40.3100000  21.5650000  24.1530000  40.0980000  12.4540000
  23.0230000  36.0930000  15.5130000  22.5460000  37.6890000  18.1920000
  25.2650000  36.6950000  14.8920000  25.3620000  37.7590000  13.1730000
  23.9970000  37.8540000  21.5070000  22.1230000  35.6660000  11.4080000
  24.2790000  40.2000000  21.0520000  19.3610000  40.7730000  18.4020000
  24.3960000  36.0730000  15.7810000  22.2540000  35.3930000  16.6350000
  26.2010000  36.6850000  15.0550000  24.7560000  39.0150000  21.6010000
  24.3250000  37.0370000  21.8640000  24.7950000  40.9940000  21.1210000
  19.9710000  34.6590000  16.4260000  21.2980000  34.3100000  16.1580000
  23.3940000  34.9070000  17.5270000  21.2920000  36.3400000  17.3420000
  25.9830000  39.0960000  22.2160000  18.9590000  33.7750000  16.0660000
  21.6370000  33.0990000  15.5820000  23.3020000  34.1510000  18.6750000
  24.6270000  35.3330000  17.0240000  21.6370000  37.4250000  18.1140000
  19.9620000  35.9400000  17.1550000  26.4670000  37.9290000  22.8730000
  19.2860000  32.5700000  15.4660000  18.0490000  33.9970000  16.2290000
  20.6200000  32.2080000  15.2330000  22.4540000  33.8900000  19.0130000
  24.4770000  33.7730000  19.3370000  22.5470000  32.8770000  15.4260000
  25.7940000  34.9720000  17.6900000  21.5700000  36.7120000  14.2270000
  20.6310000  38.1370000  18.7840000  18.9570000  36.7100000  17.7320000
  26.6510000  37.2320000  22.2080000  27.2920000  38.1450000  23.3570000
  25.7920000  37.6070000  23.5050000  20.1700000  28.9310000  13.2180000
  20.9300000  30.9510000  14.6490000  24.3800000  32.9250000  20.4750000
  25.7160000  34.1870000  18.8310000  26.6390000  35.2610000  17.3660000
  21.0030000  39.1510000  19.6860000  19.2900000  37.7890000  18.5510000
  18.0450000  36.5000000  17.5690000  22.2270000  30.7530000  14.0770000
  20.2240000  29.7790000  15.0650000  23.3660000  31.9150000  20.4400000
  25.2410000  33.0340000  21.5880000  26.5140000  33.9260000  19.2760000
  20.0750000  40.1080000  20.1970000  22.2780000  39.0790000  20.3320000
  22.2240000  37.1150000  20.8430000  23.3060000  31.0300000  19.3670000
  22.4080000  31.8250000  21.4380000  19.8600000  29.5750000  16.3920000
  19.9350000  28.7950000  14.1290000  25.4040000  31.9670000  22.4670000
  25.9440000  34.2150000  21.8610000  23.1100000  29.8100000  14.5670000
  22.6340000  31.5380000  12.9960000  19.3010000  40.8950000  19.3430000
  20.6820000  38.5760000  11.5210000  22.7550000  37.9010000  20.8870000
  23.0640000  40.2260000  20.4100000  22.2900000  30.0980000  19.2830000
  22.0370000  32.1870000  12.6420000  21.3950000  30.8750000  21.3740000
  24.9230000  31.1620000  22.3150000  20.0520000  30.2410000  17.0410000
  19.3060000  27.6140000  14.5080000  18.5910000  31.9760000  15.2070000
  19.2200000  28.4090000  16.7740000  26.8140000  34.2890000  22.9290000
  22.4450000  32.4200000  22.1770000  26.2570000  32.0520000  23.5630000
  23.9700000  31.0670000  18.6880000  23.8870000  31.3900000  12.4310000
  22.8580000  29.2680000  15.3050000  24.3850000  29.6460000  13.9790000
  25.8200000  34.9740000  21.3040000  20.2930000  35.9970000  10.5710000
  20.4840000  39.7700000  22.1550000  19.5270000  38.2570000  10.8410000
  20.8060000  39.4590000  11.8490000  19.1300000  41.2840000  22.0940000
  22.7570000  41.0350000  20.0170000  18.4450000  41.8530000  19.8600000
  18.5990000  38.2980000  18.9580000  21.3210000  30.0260000  20.2820000
  20.7570000  30.8080000  22.0750000  18.9650000  28.2840000  17.6810000
  18.9480000  27.4180000  15.8320000  19.1230000  26.9440000  13.8610000
  26.3400000  31.3180000  24.1600000  22.2510000  29.5050000  18.5420000
  26.9840000  33.2070000  23.7810000  27.3020000  35.0900000  23.0830000
  24.7540000  30.4420000  12.9280000  24.9830000  28.9860000  14.3110000
  24.1490000  31.9410000  11.7030000  19.3280000  36.9710000  10.3580000
  20.1610000  35.1120000  10.2520000  18.8630000  38.9210000  10.7020000
  18.3640000  42.0560000  21.2370000  19.0820000  41.4180000  23.0330000
  17.9100000  42.3740000  19.2740000  20.3250000  29.1030000  20.0850000
  18.3440000  26.2880000  16.3180000  27.8910000  33.4010000  24.8010000
  25.9740000  30.3730000  12.2790000  18.1580000  36.7850000   9.6710000
  17.5240000  43.0570000  21.6450000  19.3280000  28.9960000  21.1050000
  18.1390000  25.2100000  15.4030000  28.1310000  32.3140000  25.6540000
  26.9330000  29.4950000  12.8070000  17.8580000  35.4790000   9.2020000
  17.4350000  43.3130000  23.0440000  19.7450000  28.6960000  21.9390000
  27.3020000  32.0730000  26.1190000  18.6470000  28.3480000  20.8300000
  17.5420000  25.5020000  14.6820000  17.7330000  24.4530000  15.8750000
  19.0000000  24.9340000  15.0240000  28.4440000  31.5490000  25.1280000
  18.9100000  29.8720000  21.2460000  28.8150000  32.5600000  26.3130000
  26.5960000  28.5760000  12.7600000  27.7620000  29.5670000  12.2890000
  27.1110000  29.7300000  13.7420000  17.8170000  34.8610000   9.9610000
  16.9930000  35.4880000   8.7410000  18.5550000  35.1870000   8.5800000
  17.1400000  42.5020000  23.5070000  16.7910000  44.0330000  23.2040000
  18.3140000  43.5800000  23.3840000  19.5630000  41.9560000  -6.3830000
  18.8820000  41.0070000  -5.6600000  20.0000000  43.0960000  -5.6720000
  18.3740000  39.9500000  -6.3960000  18.6830000  41.0510000  -4.2910000
  19.2380000  43.5050000  -5.2120000  20.3900000  43.7420000  -6.2970000
  20.6760000  42.8300000  -5.0120000  17.6680000  38.9400000  -5.7780000
  18.5130000  39.9210000  -7.3360000  15.2640000  36.2700000  -4.8660000
  19.0410000  41.7660000  -3.7780000  17.4490000  38.9730000  -4.4030000
  17.3290000  38.2170000  -6.2930000  17.8030000  40.0750000  -2.7360000
  16.7010000  37.9380000  -3.7720000  17.1880000  37.2880000  -2.6230000
  15.4740000  37.5520000  -4.3960000  16.3080000  36.6530000  -1.7350000
  18.5660000  37.2670000  -2.3540000  17.9550000  40.0370000  -3.6730000
  13.7720000  40.2490000   5.4380000  16.8250000  36.0310000  -0.6140000
  16.3480000  37.6280000   2.0650000  19.0670000  36.6340000  -1.2350000
  19.1640000  37.6970000  -2.9540000  18.1880000  29.5840000  -2.1480000
  14.6080000  39.3980000  -4.2780000  12.9320000  41.2230000   5.9670000
  14.2860000  39.7090000   6.0280000  18.1980000  36.0120000  -0.3460000
  16.0560000  35.3320000   0.5080000  20.0030000  36.6240000  -1.0720000
  12.1670000  41.9950000   5.1100000  11.7130000  42.3130000   3.1470000
  21.1040000  35.0290000   6.9560000  13.7730000  34.5980000   0.2990000
  15.1000000  34.2480000   0.0310000  17.1960000  34.8460000   1.4000000
  15.0940000  36.2780000   1.2150000  21.6930000  33.3400000   8.6740000
  12.7610000  33.7140000  -0.0610000  15.4390000  33.0380000  -0.5450000
  17.1050000  34.0900000   2.5480000  18.4290000  35.2720000   0.8970000
  15.4390000  37.3640000   1.9870000  13.7640000  35.8790000   1.0280000
  21.9330000  32.2530000   9.5270000  13.0880000  32.5090000  -0.6610000
  11.8520000  33.9360000   0.1020000  14.4230000  32.1470000  -0.8940000
  16.2560000  33.8290000   2.8860000  18.2790000  33.7120000   3.2100000
  16.3490000  32.8160000  -0.7010000  19.5970000  34.9110000   1.5630000
  15.3730000  36.6510000  -1.9000000  14.4330000  38.0760000   2.6570000
  12.7590000  36.6490000   1.6050000  19.5940000  37.5460000   7.3780000
  20.4530000  37.1710000   6.0810000  21.0940000  38.0840000   7.2300000
  12.3940000  31.9150000  -0.9200000  14.7330000  30.8900000  -1.4780000
  18.1830000  32.8640000   4.3480000  19.5180000  34.1250000   2.7040000
  20.4420000  35.1990000   1.2390000  14.8060000  39.0900000   3.5590000
  13.0930000  37.7280000   2.4240000  11.8470000  36.4390000   1.4420000
  14.0260000  29.7180000  -1.0620000  16.0290000  30.6920000  -2.0500000
  17.1680000  31.8540000   4.3130000  19.0430000  32.9730000   5.4610000
  20.3160000  33.8650000   3.1490000  13.8770000  40.0470000   4.0700000
  16.0800000  39.0180000   4.2050000  16.2470000  32.3590000   6.0510000
  13.6620000  29.5140000   0.2650000  16.2100000  31.7630000   5.3110000
  13.7370000  28.7340000  -1.9980000  13.1030000  40.8340000   3.2160000
  17.1090000  30.9690000   3.2400000  19.2070000  31.9060000   6.3400000
  16.9120000  29.7490000  -1.5600000  16.4360000  31.4770000  -3.1310000
  16.8660000  40.1650000   4.2830000  14.4840000  38.5150000  -4.6060000
  19.7460000  34.1540000   5.7340000  16.5570000  37.8400000   4.7600000
  13.1090000  27.5530000  -1.6190000  13.8550000  30.1800000   0.9140000
  13.0220000  28.3480000   0.6470000  18.7250000  31.1010000   6.1880000
  13.1630000  40.7120000   2.2750000  12.2480000  41.7920000   3.7330000
  15.9250000  35.6050000  -4.7190000  14.0960000  35.9350000  -5.5560000
  20.6160000  34.2280000   6.8020000  16.6610000  29.2060000  -0.8220000
  20.0590000  31.9910000   7.4360000  17.7720000  31.0060000   2.5610000
  16.0920000  30.0370000   3.1560000  13.9720000  28.8690000  -2.9090000
  17.6890000  31.3290000  -3.6960000  15.8400000  32.1260000  -3.4850000
  15.1970000  30.8140000   5.2470000  16.0270000  37.0540000   4.7160000
  13.3300000  38.1960000  -5.2860000  16.5600000  40.9740000   3.8900000
  18.0820000  40.1380000   4.9250000  19.6220000  34.9130000   5.1770000
  17.8000000  37.7930000   5.3800000  12.4010000  38.2370000   2.8310000
  12.7500000  27.3570000  -0.2950000  12.9250000  26.8820000  -2.2660000
  12.7670000  28.2230000   1.5540000  15.1240000  29.9650000   4.1550000
  16.0530000  29.4440000   2.4150000  12.8850000  41.3570000   6.9060000
  20.1420000  31.2570000   8.0330000  20.7860000  33.1460000   7.6540000
  18.7850000  28.9250000  -1.8160000  18.5570000  30.3810000  -3.1990000
  17.9510000  31.8790000  -4.4240000  13.9630000  35.0510000  -5.8750000
  13.1300000  36.9100000  -5.7690000  14.5600000  30.7470000   5.9480000
  12.6650000  38.8600000  -5.4250000  18.5580000  38.9530000   5.4740000
  18.5980000  40.9330000   4.9940000  18.1270000  36.9760000   5.7370000
  12.1470000  26.2270000   0.1910000  11.3260000  42.9960000   5.5180000
  14.1270000  29.0420000   3.9580000  19.7770000  30.3120000  -3.8480000
  11.9600000  36.7240000  -6.4560000  19.7850000  39.0350000   6.0890000
  11.9410000  25.1490000  -0.7240000  13.1300000  28.9350000   4.9780000
  20.7360000  29.4340000  -3.3200000  11.6600000  35.4180000  -6.9250000
  11.2370000  43.2520000   6.9170000  20.2690000  37.8680000   6.7460000
  11.5360000  24.3920000  -0.2520000  12.8020000  24.8730000  -1.1030000
  22.6170000  32.4980000  10.1860000  12.4490000  28.2870000   4.7030000
  11.3450000  25.4410000  -1.4450000  20.3980000  28.5150000  -3.3670000
  21.1050000  32.0120000   9.9920000  21.5640000  29.5050000  -3.8380000
  22.2470000  31.4880000   9.0010000  11.6200000  34.7990000  -6.1660000
  12.3580000  35.1260000  -7.5470000  20.9130000  29.6690000  -2.3850000
  10.7950000  35.4270000  -7.3860000  13.5470000  28.6350000   5.8120000
  12.7120000  29.8110000   5.1190000  12.1160000  43.5190000   7.2570000
  10.5930000  43.9720000   7.0770000  10.9420000  42.4410000   7.3800000
  30.8690000  71.0090000   9.7440000  30.1880000  70.0600000  10.4670000
  31.3060000  72.1490000  10.4550000  29.9900000  70.1040000  11.8360000
  29.6800000  69.0040000   9.7310000  31.6970000  72.7950000   9.8300000
  31.9830000  71.8840000  11.1150000  30.5440000  72.5590000  10.9150000
  26.5700000  65.3240000  11.2600000  30.3470000  70.8190000  12.3490000
  28.9740000  67.9930000  10.3490000  29.8190000  68.9750000   8.7910000
  28.7550000  68.0270000  11.7240000  28.6350000  67.2700000   9.8340000
  29.1100000  69.1290000  13.3910000  28.0070000  66.9910000  12.3550000
  28.4940000  66.3410000  13.5040000  26.7810000  66.6060000  11.7310000
  27.6140000  65.7070000  14.3920000  29.8720000  66.3210000  13.7730000
  25.0780000  69.3020000  21.5650000  29.2620000  69.0910000  12.4540000
  28.1310000  65.0850000  15.5130000  27.6550000  66.6820000  18.1920000
  30.3730000  65.6880000  14.8920000  30.4700000  66.7510000  13.1730000
  29.1060000  66.8470000  21.5070000  27.2320000  64.6580000  11.4080000
  29.3880000  69.1920000  21.0520000  24.4700000  69.7660000  18.4020000
  29.5050000  65.0660000  15.7810000  27.3620000  64.3860000  16.6350000
  31.3090000  65.6770000  15.0550000  29.8640000  68.0070000  21.6010000
  29.4330000  66.0290000  21.8640000  29.9040000  69.9860000  21.1210000
  25.0790000  63.6520000  16.4260000  26.4070000  63.3020000  16.1580000
  28.5020000  63.9000000  17.5270000  26.4010000  65.3320000  17.3420000
  31.0910000  68.0890000  22.2160000  24.0670000  62.7680000  16.0660000
  26.7450000  62.0910000  15.5820000  28.4110000  63.1430000  18.6750000
  29.7360000  64.3260000  17.0240000  26.7450000  66.4170000  18.1140000
  25.0710000  64.9320000  17.1550000  31.5760000  66.9210000  22.8730000
  24.3940000  61.5620000  15.4660000  23.1580000  62.9890000  16.2290000
  25.7290000  61.2000000  15.2330000  27.5620000  62.8820000  19.0130000
  29.5850000  62.7650000  19.3370000  27.6560000  61.8700000  15.4260000
  30.9030000  63.9640000  17.6900000  26.6790000  65.7040000  14.2270000
  25.7390000  67.1290000  18.7840000  24.0650000  65.7020000  17.7320000
  31.7590000  66.2250000  22.2080000  32.4000000  67.1380000  23.3570000
  30.9000000  66.5990000  23.5050000  25.2780000  57.9230000  13.2180000
  26.0390000  59.9430000  14.6490000  29.4890000  61.9180000  20.4750000
  30.8240000  63.1790000  18.8310000  31.7480000  64.2530000  17.3660000
  26.1120000  68.1440000  19.6860000  24.3990000  66.7820000  18.5510000
  23.1530000  65.4930000  17.5690000  27.3360000  59.7450000  14.0770000
  25.3330000  58.7720000  15.0650000  28.4740000  60.9080000  20.4400000
  30.3490000  62.0270000  21.5880000  31.6220000  62.9180000  19.2760000
  25.1830000  69.1000000  20.1970000  27.3870000  68.0720000  20.3320000
  27.3330000  66.1070000  20.8430000  28.4150000  60.0230000  19.3670000
  27.5170000  60.8170000  21.4380000  24.9690000  58.5670000  16.3920000
  25.0440000  57.7880000  14.1290000  30.5130000  60.9590000  22.4670000
  31.0520000  63.2070000  21.8610000  28.2180000  58.8020000  14.5670000
  27.7420000  60.5300000  12.9960000  24.4090000  69.8880000  19.3430000
  25.7900000  67.5690000  11.5210000  27.8640000  66.8940000  20.8870000
  28.1720000  69.2190000  20.4100000  27.3980000  59.0900000  19.2830000
  27.1460000  61.1790000  12.6420000  26.5040000  59.8670000  21.3740000
  30.0310000  60.1550000  22.3150000  25.1610000  59.2330000  17.0410000
  24.4150000  56.6070000  14.5080000  23.7000000  60.9680000  15.2070000
  24.3280000  57.4020000  16.7740000  31.9230000  63.2820000  22.9290000
  27.5530000  61.4130000  22.1770000  31.3660000  61.0450000  23.5630000
  29.0780000  60.0600000  18.6880000  28.9950000  60.3830000  12.4310000
  27.9670000  58.2600000  15.3050000  29.4940000  58.6380000  13.9790000
  30.9280000  63.9660000  21.3040000  25.4020000  64.9890000  10.5710000
  25.5920000  68.7630000  22.1550000  24.6360000  67.2490000  10.8410000
  25.9150000  68.4510000  11.8490000  24.2390000  70.2760000  22.0940000
  27.8660000  70.0270000  20.0170000  23.5540000  70.8450000  19.8600000
  23.7070000  67.2900000  18.9580000  26.4300000  59.0190000  20.2820000
  25.8660000  59.8000000  22.0750000  24.0740000  57.2770000  17.6810000
  24.0560000  56.4100000  15.8320000  24.2320000  55.9360000  13.8610000
  31.4480000  60.3110000  24.1600000  27.3590000  58.4970000  18.5420000
  32.0920000  62.2000000  23.7810000  32.4110000  64.0820000  23.0830000
  29.8630000  59.4340000  12.9280000  30.0910000  57.9780000  14.3110000
  29.2570000  60.9330000  11.7030000  24.4360000  65.9630000  10.3580000
  25.2690000  64.1040000  10.2520000  23.9710000  67.9140000  10.7020000
  23.4730000  71.0490000  21.2370000  24.1910000  70.4110000  23.0330000
  23.0190000  71.3670000  19.2740000  25.4340000  58.0950000  20.0850000
  23.4530000  55.2800000  16.3180000  33.0000000  62.3940000  24.8010000
  31.0830000  59.3660000  12.2790000  23.2660000  65.7770000   9.6710000
  22.6320000  72.0500000  21.6450000  24.4370000  57.9890000  21.1050000
  23.2470000  54.2020000  15.4030000  33.2400000  61.3060000  25.6540000
  32.0420000  58.4880000  12.8070000  22.9660000  64.4720000   9.2020000
  22.5430000  72.3060000  23.0440000  24.8540000  57.6880000  21.9390000
  32.4110000  61.0660000  26.1190000  23.7550000  57.3400000  20.8300000
  22.6510000  54.4950000  14.6820000  22.8420000  53.4450000  15.8750000
  24.1080000  53.9260000  15.0240000  33.5530000  60.5410000  25.1280000
  24.0180000  58.8640000  21.2460000  33.9230000  61.5520000  26.3130000
  31.7050000  57.5690000  12.7600000  32.8700000  58.5590000  12.2890000
  32.2190000  58.7230000  13.7420000  22.9260000  63.8530000   9.9610000
  22.1010000  64.4800000   8.7410000  23.6640000  64.1800000   8.5800000
  22.2480000  71.4940000  23.5070000  21.8990000  73.0260000  23.2040000
  23.4220000  72.5720000  23.3840000  37.0670000  71.0700000  25.8710000
  36.3850000  70.1210000  26.5940000  37.5040000  72.2100000  26.5820000
  36.1870000  70.1650000  27.9630000  35.8780000  69.0650000  25.8580000
  37.8940000  72.8560000  25.9570000  38.1800000  71.9450000  27.2420000
  36.7420000  72.6200000  27.0420000  32.7680000  65.3850000  27.3870000
  36.5450000  70.8810000  28.4760000  35.1720000  68.0540000  26.4760000
  36.0170000  69.0360000  24.9180000  34.9530000  68.0880000  27.8510000
  34.8330000  67.3320000  25.9610000  35.3070000  69.1900000  29.5180000
  34.2050000  67.0520000  28.4820000  34.6920000  66.4030000  29.6310000
  32.9780000  66.6670000  27.8580000  33.8120000  65.7680000  30.5190000
  36.0700000  66.3820000  29.9000000  31.2760000  69.3640000  37.6920000
  35.4590000  69.1520000  28.5810000  34.3290000  65.1460000  31.6400000
  33.8520000  66.7430000  34.3190000  36.5710000  65.7490000  31.0190000
  36.6680000  66.8120000  29.3000000  35.3040000  66.9080000  37.6340000
  33.4290000  64.7190000  27.5350000  35.5850000  69.2530000  37.1790000
  30.6670000  69.8270000  34.5290000  35.7020000  65.1270000  31.9080000
  33.5600000  64.4470000  32.7620000  37.5070000  65.7390000  31.1820000
  36.0620000  68.0680000  37.7280000  35.6310000  66.0910000  37.9900000
  36.1020000  70.0480000  37.2480000  31.2770000  63.7130000  32.5530000
  32.6040000  63.3630000  32.2850000  34.7000000  63.9610000  33.6540000
  32.5980000  65.3930000  33.4690000  37.2890000  68.1500000  38.3430000
  30.2650000  62.8290000  32.1930000  32.9430000  62.1530000  31.7090000
  34.6090000  63.2050000  34.8020000  35.9330000  64.3870000  33.1510000
  32.9430000  66.4780000  34.2410000  31.2680000  64.9930000  33.2820000
  37.7730000  66.9830000  39.0000000  30.5920000  61.6230000  31.5930000
  29.3560000  63.0500000  32.3560000  31.9260000  61.2610000  31.3600000
  33.7600000  62.9430000  35.1400000  35.7830000  62.8260000  35.4640000
  33.8530000  61.9310000  31.5530000  37.1010000  64.0250000  33.8170000
  32.8770000  65.7650000  30.3540000  31.9370000  67.1900000  34.9110000
  30.2630000  65.7630000  33.8590000  37.9570000  66.2860000  38.3350000
  38.5980000  67.1990000  39.4840000  37.0980000  66.6600000  39.6320000
  31.4760000  57.9840000  29.3450000  32.2360000  60.0040000  30.7760000
  35.6870000  61.9790000  36.6020000  37.0220000  63.2400000  34.9580000
  37.9450000  64.3140000  33.4930000  32.3100000  68.2050000  35.8130000
  30.5970000  66.8430000  34.6780000  29.3510000  65.5540000  33.6960000
  33.5330000  59.8070000  30.2040000  31.5300000  58.8330000  31.1920000
  34.6720000  60.9690000  36.5670000  36.5470000  62.0880000  37.7150000
  37.8200000  62.9790000  35.4030000  31.3810000  69.1610000  36.3240000
  33.5840000  68.1330000  36.4590000  33.5300000  66.1690000  36.9700000
  34.6120000  60.0840000  35.4940000  33.7140000  60.8780000  37.5650000
  31.1660000  58.6280000  32.5190000  31.2410000  57.8490000  30.2550000
  36.7110000  61.0210000  38.5940000  37.2500000  63.2680000  37.9880000
  34.4160000  58.8640000  30.6940000  33.9400000  60.5910000  29.1230000
  30.6070000  69.9490000  35.4700000  31.9880000  67.6300000  27.6480000
  34.0610000  66.9550000  37.0140000  34.3700000  69.2800000  36.5370000
  33.5960000  59.1510000  35.4100000  33.3440000  61.2400000  28.7690000
  32.7010000  59.9280000  37.5010000  36.2290000  60.2160000  38.4420000
  31.3590000  59.2950000  33.1680000  30.6130000  56.6680000  30.6350000
  29.8980000  61.0290000  31.3340000  30.5260000  57.4630000  32.9010000
  38.1200000  63.3430000  39.0560000  33.7510000  61.4740000  38.3040000
  37.5630000  61.1060000  39.6900000  35.2760000  60.1210000  34.8150000
  35.1930000  60.4440000  28.5580000  34.1640000  58.3210000  31.4320000
  35.6920000  58.6990000  30.1060000  37.1260000  64.0280000  37.4310000
  31.5990000  65.0500000  26.6980000  31.7900000  68.8240000  38.2820000
  30.8340000  67.3100000  26.9680000  32.1120000  68.5120000  27.9760000
  30.4360000  70.3380000  38.2210000  34.0630000  70.0880000  36.1440000
  29.7520000  70.9060000  35.9870000  29.9050000  67.3510000  35.0850000
  32.6280000  59.0800000  36.4090000  32.0640000  59.8610000  38.2020000
  30.2710000  57.3380000  33.8080000  30.2540000  56.4710000  31.9590000
  30.4290000  55.9970000  29.9880000  37.6460000  60.3720000  40.2870000
  33.5570000  58.5580000  34.6690000  38.2900000  62.2610000  39.9080000
  38.6080000  64.1430000  39.2100000  36.0610000  59.4950000  29.0550000
  36.2890000  58.0390000  30.4380000  35.4550000  60.9940000  27.8300000
  30.6340000  66.0240000  26.4850000  31.4670000  64.1650000  26.3790000
  30.1690000  67.9750000  26.8290000  29.6710000  71.1100000  37.3640000
  30.3880000  70.4720000  39.1600000  29.2170000  71.4280000  35.4000000
  31.6310000  58.1560000  36.2120000  29.6510000  55.3420000  32.4450000
  39.1970000  62.4550000  40.9280000  37.2800000  59.4270000  28.4060000
  29.4640000  65.8380000  25.7980000  28.8300000  72.1110000  37.7720000
  30.6340000  58.0500000  37.2320000  29.4450000  54.2630000  31.5300000
  39.4370000  61.3670000  41.7810000  38.2390000  58.5490000  28.9340000
  29.1640000  64.5330000  25.3290000  28.7410000  72.3670000  39.1710000
  31.0510000  57.7490000  38.0660000  38.6080000  61.1270000  42.2460000
  29.9530000  57.4020000  36.9570000  28.8490000  54.5560000  30.8090000
  29.0390000  53.5060000  32.0020000  30.3060000  53.9870000  31.1510000
  39.7500000  60.6030000  41.2550000  30.2160000  58.9250000  37.3730000
  40.1210000  61.6130000  42.4400000  37.9020000  57.6300000  28.8870000
  39.0680000  58.6200000  28.4160000  38.4170000  58.7840000  29.8690000
  29.1240000  63.9140000  26.0880000  28.2990000  64.5410000  24.8680000
  29.8610000  64.2410000  24.7070000  28.4460000  71.5560000  39.6340000
  28.0970000  73.0870000  39.3310000  29.6200000  72.6340000  39.5110000
  45.8320000  30.4340000  28.4060000  41.1800000  30.0880000  36.4090000
  37.9970000  25.2710000  31.5300000  39.1650000  27.6750000  30.6350000
  43.7450000  31.4510000  28.5580000  37.4010000  25.5630000  30.8090000
  37.5910000  24.5140000  32.0020000  38.8580000  24.9950000  31.1510000
  39.7930000  28.8560000  30.2550000  38.9810000  27.0050000  29.9880000
  42.9680000  29.8710000  30.6940000  44.0070000  32.0020000  27.8300000
  42.0850000  30.8140000  30.2040000  40.0280000  28.9920000  29.3450000
  42.7160000  29.3290000  31.4320000  40.7880000  31.0120000  30.7760000
  40.4780000  32.2690000  31.3600000  40.0820000  29.8410000  31.1920000
  41.4950000  33.1600000  31.7090000  39.1440000  32.6310000  31.5930000
  39.7180000  29.6360000  32.5190000  43.1640000  31.0910000  35.4940000
  41.1560000  34.3710000  32.2850000  42.4050000  32.9380000  31.5530000
  38.8170000  33.8360000  32.1930000  41.8960000  32.2480000  28.7690000
  39.0780000  28.4710000  32.9010000  39.9110000  30.3020000  33.1680000
  42.1480000  30.1590000  35.4100000  43.8280000  31.1280000  34.8150000
  39.8290000  34.7200000  32.5530000  42.1120000  35.4540000  32.7620000
  37.9080000  34.0580000  32.3560000  38.8060000  27.4790000  31.9590000
  38.8230000  28.3460000  33.8080000  44.8410000  29.0470000  30.4380000
  44.2540000  36.1340000  31.9080000  42.8810000  36.1540000  31.6400000
  41.1500000  36.4010000  33.4690000  43.2520000  34.9690000  33.6540000
  38.2030000  26.3490000  32.4450000  45.1230000  36.7570000  31.0190000
  42.3640000  36.7750000  30.5190000  41.4950000  37.4860000  34.2410000
  39.8200000  36.0010000  33.2820000  43.1610000  34.2120000  34.8020000
  44.4850000  35.3950000  33.1510000  39.1860000  29.0570000  37.2320000
  44.6220000  37.3900000  29.9000000  46.0590000  36.7460000  31.1820000
  43.2440000  37.4100000  29.6310000  41.4290000  36.7730000  30.3540000
  40.4890000  38.1980000  34.9110000  42.3120000  33.9510000  35.1400000
  38.8150000  36.7710000  33.8590000  42.4040000  37.7500000  34.3190000
  44.3350000  33.8340000  35.4640000  45.6530000  35.0330000  33.8170000
  39.6030000  28.7570000  38.0660000  38.5050000  28.4090000  36.9570000
  38.7680000  29.9330000  37.3730000  43.8590000  40.1980000  29.5180000
  40.8620000  39.2120000  35.8130000  42.7570000  38.0600000  28.4820000
  39.1490000  37.8500000  34.6780000  37.9030000  36.5620000  33.6960000
  44.2390000  32.9870000  36.6020000  45.5740000  34.2480000  34.9580000
  46.4970000  35.3220000  33.4930000  39.9330000  40.1690000  36.3240000
  43.5050000  39.0950000  27.8510000  42.1360000  39.1410000  36.4590000
  41.5300000  37.6740000  27.8580000  42.3030000  32.4810000  38.3040000
  45.0990000  33.0950000  37.7150000  43.2240000  31.9770000  36.5670000
  46.3720000  33.9870000  35.4030000  41.3200000  36.3930000  27.3870000
  39.1590000  40.9560000  35.4700000  40.5400000  38.6370000  27.6480000
  43.7240000  39.0620000  26.4760000  39.8280000  40.3710000  37.6920000
  42.6130000  37.9630000  37.0140000  42.4920000  31.5990000  29.1230000
  42.2660000  31.8860000  37.5650000  44.0110000  40.1590000  28.5810000
  42.9220000  40.2870000  36.5370000  45.2630000  32.0280000  38.5940000
  45.8020000  34.2760000  37.9880000  38.3040000  41.9140000  35.9870000
  39.2190000  40.8340000  34.5290000  38.9880000  41.3450000  38.2210000
  40.3420000  39.8320000  38.2820000  43.3850000  38.3390000  25.9610000
  44.7390000  41.1730000  27.9630000  45.2200000  37.8200000  29.3000000
  44.4300000  40.0730000  25.8580000  46.6720000  34.3510000  39.0560000
  38.4570000  38.3590000  35.0850000  46.1150000  32.1140000  39.6900000
  42.0820000  37.1760000  36.9700000  39.3860000  38.3180000  26.9680000
  40.6640000  39.5200000  27.9760000  41.2530000  30.9360000  37.5010000
  38.4500000  32.0370000  31.3340000  44.1370000  40.2610000  37.1790000
  41.9810000  35.7270000  27.5350000  40.1510000  36.0580000  26.6980000
  42.6150000  41.0960000  36.1440000  44.2440000  29.7070000  30.1060000
  45.6780000  35.0350000  37.4310000  43.8560000  37.9160000  37.6340000
  44.7810000  31.2230000  38.4420000  38.2230000  42.1170000  37.3640000
  37.7690000  42.4360000  35.4000000  44.6540000  41.0550000  37.2480000
  44.9370000  41.1290000  26.5940000  44.5690000  40.0440000  24.9180000
  45.0970000  41.8880000  28.4760000  38.9400000  41.4790000  39.1600000
  46.8420000  33.2680000  39.9080000  40.6160000  30.8690000  38.2020000
  39.1860000  37.0320000  26.4850000  38.7210000  38.9820000  26.8290000
  40.0190000  35.1730000  26.3790000  44.6130000  30.5030000  29.0550000
  44.1830000  37.0980000  37.9900000  46.1980000  31.3790000  40.2870000
  44.6140000  39.0760000  37.7280000  42.1090000  29.5660000  34.6690000
  47.1600000  35.1510000  39.2100000  37.3820000  43.1180000  37.7720000
  45.6190000  42.0780000  25.8710000  47.7490000  33.4630000  40.9280000
  40.1830000  29.1640000  36.2120000  38.0160000  36.8460000  25.7980000
  45.8410000  39.1580000  38.3430000  37.2930000  43.3740000  39.1710000
  46.0560000  43.2180000  26.5820000  47.9890000  32.3750000  41.7810000
  37.7160000  35.5400000  25.3290000  46.7910000  29.5560000  28.9340000
  46.3250000  37.9900000  39.0000000  36.6490000  44.0940000  39.3310000
  36.9980000  42.5630000  39.6340000  38.1720000  43.6410000  39.5110000
  46.7320000  42.9530000  27.2420000  45.2940000  43.6270000  27.0420000
  46.4460000  43.8640000  25.9570000  48.3020000  31.6100000  41.2550000
  47.1600000  32.1340000  42.2460000  48.6730000  32.6210000  42.4400000
  37.6760000  34.9220000  26.0880000  38.4130000  35.2480000  24.7070000
  36.8510000  35.5490000  24.8680000  46.9690000  29.7910000  29.8690000
  46.4540000  28.6370000  28.8870000  47.6200000  29.6280000  28.4160000
  46.5090000  37.2930000  38.3350000  47.1500000  38.2070000  39.4840000
  45.6500000  37.6680000  39.6320000  42.1890000  44.8690000  12.2790000
  37.5360000  44.5230000  20.2820000  34.3530000  39.7060000  15.4030000
  35.5210000  42.1100000  14.5080000  40.1010000  45.8860000  12.4310000
  33.7570000  39.9980000  14.6820000  33.9480000  38.9490000  15.8750000
  35.2140000  39.4300000  15.0240000  36.1500000  43.2910000  14.1290000
  35.3380000  41.4400000  13.8610000  39.3250000  44.3060000  14.5670000
  40.3640000  46.4370000  11.7030000  38.4420000  45.2490000  14.0770000
  36.3850000  43.4270000  13.2180000  39.0730000  43.7640000  15.3050000
  37.1450000  45.4470000  14.6490000  36.8350000  46.7040000  15.2330000
  36.4390000  44.2760000  15.0650000  37.8520000  47.5950000  15.5820000
  35.5010000  47.0660000  15.4660000  36.0750000  44.0710000  16.3920000
  39.5210000  45.5260000  19.3670000  37.5130000  48.8060000  16.1580000
  38.7620000  47.3730000  15.4260000  35.1730000  48.2710000  16.0660000
  38.2520000  46.6830000  12.6420000  35.4350000  42.9060000  16.7740000
  36.2670000  44.7370000  17.0410000  38.5040000  44.5940000  19.2830000
  40.1840000  45.5630000  18.6880000  36.1860000  49.1550000  16.4260000
  38.4690000  49.8900000  16.6350000  34.2640000  48.4930000  16.2290000
  35.1630000  41.9140000  15.8320000  35.1800000  42.7810000  17.6810000
  41.1980000  43.4820000  14.3110000  40.6110000  50.5690000  15.7810000
  39.2370000  50.5890000  15.5130000  37.5070000  50.8360000  17.3420000
  39.6080000  49.4040000  17.5270000  34.5590000  40.7840000  16.3180000
  41.4800000  51.1920000  14.8920000  38.7210000  51.2100000  14.3920000
  37.8520000  51.9210000  18.1140000  36.1770000  50.4360000  17.1550000
  39.5170000  48.6470000  18.6750000  40.8420000  49.8300000  17.0240000
  35.5430000  43.4920000  21.1050000  40.9780000  51.8250000  13.7730000
  42.4160000  51.1810000  15.0550000  39.6010000  51.8450000  13.5040000
  37.7850000  51.2080000  14.2270000  36.8450000  52.6330000  18.7840000
  38.6690000  48.3860000  19.0130000  35.1720000  51.2060000  17.7320000
  38.7610000  52.1850000  18.1920000  40.6910000  48.2690000  19.3370000
  42.0090000  49.4680000  17.6900000  35.9600000  43.1920000  21.9390000
  34.8620000  42.8440000  20.8300000  35.1240000  44.3680000  21.2460000
  40.2160000  54.6330000  13.3910000  37.2180000  53.6470000  19.6860000
  39.1130000  52.4950000  12.3550000  35.5050000  52.2850000  18.5510000
  34.2590000  50.9970000  17.5690000  40.5950000  47.4220000  20.4750000
  41.9310000  48.6830000  18.8310000  42.8540000  49.7570000  17.3660000
  36.2890000  54.6040000  20.1970000  39.8610000  53.5300000  11.7240000
  38.4930000  53.5760000  20.3320000  37.8870000  52.1090000  11.7310000
  38.6590000  46.9160000  22.1770000  41.4550000  47.5300000  21.5880000
  39.5800000  46.4120000  20.4400000  42.7290000  48.4220000  19.2760000
  37.6760000  50.8280000  11.2600000  35.5150000  55.3910000  19.3430000
  36.8970000  53.0720000  11.5210000  40.0800000  53.4970000  10.3490000
  36.1840000  54.8060000  21.5650000  38.9700000  52.3980000  20.8870000
  38.8490000  46.0340000  12.9960000  38.6230000  46.3210000  21.4380000
  40.3680000  54.5940000  12.4540000  39.2790000  54.7230000  20.4100000
  41.6190000  46.4630000  22.4670000  42.1590000  48.7110000  21.8610000
  34.6600000  56.3490000  19.8600000  35.5760000  55.2700000  18.4020000
  35.3450000  55.7800000  22.0940000  36.6980000  54.2670000  22.1550000
  39.7410000  52.7740000   9.8340000  41.0960000  55.6080000  11.8360000
  41.5770000  52.2550000  13.1730000  40.7870000  54.5080000   9.7310000
  43.0290000  48.7860000  22.9290000  34.8130000  52.7940000  18.9580000
  42.4720000  46.5490000  23.5630000  38.4390000  51.6110000  20.8430000
  35.7420000  52.7530000  10.8410000  37.0210000  53.9550000  11.8490000
  37.6100000  45.3710000  21.3740000  34.8060000  46.4720000  15.2070000
  40.4940000  54.6960000  21.0520000  38.3380000  50.1620000  11.4080000
  36.5080000  50.4930000  10.5710000  38.9720000  55.5310000  20.0170000
  40.6000000  44.1420000  13.9790000  42.0340000  49.4700000  21.3040000
  40.2120000  52.3510000  21.5070000  41.1380000  45.6580000  22.3150000
  34.5790000  56.5520000  21.2370000  34.1250000  56.8710000  19.2740000
  41.0100000  55.4900000  21.1210000  41.2940000  55.5640000  10.4670000
  40.9260000  54.4790000   8.7910000  41.4530000  56.3230000  12.3490000
  35.2970000  55.9140000  23.0330000  43.1980000  47.7030000  23.7810000
  36.9720000  45.3040000  22.0750000  35.5430000  51.4670000  10.3580000
  35.0780000  53.4170000  10.7020000  36.3760000  49.6080000  10.2520000
  40.9690000  44.9380000  12.9280000  40.5400000  51.5330000  21.8640000
  42.5550000  45.8140000  24.1600000  40.9710000  53.5110000  21.6010000
  38.4650000  44.0010000  18.5420000  43.5170000  49.5860000  23.0830000
  33.7380000  57.5540000  21.6450000  41.9760000  56.5130000   9.7440000
  44.1060000  47.8980000  24.8010000  36.5400000  43.5990000  20.0850000
  34.3720000  51.2810000   9.6710000  42.1970000  53.5930000  22.2160000
  33.6500000  57.8090000  23.0440000  42.4130000  57.6530000  10.4550000
  44.3460000  46.8100000  25.6540000  34.0720000  49.9750000   9.2020000
  43.1480000  43.9910000  12.8070000  42.6820000  52.4250000  22.8730000
  33.0050000  58.5290000  23.2040000  33.3540000  56.9980000  23.5070000
  34.5280000  58.0760000  23.3840000  43.0890000  57.3880000  11.1150000
  41.6500000  58.0620000  10.9150000  42.8030000  58.2990000   9.8300000
  44.6590000  46.0450000  25.1280000  43.5170000  46.5690000  26.1190000
  45.0290000  47.0560000  26.3130000  34.0320000  49.3570000   9.9610000
  34.7700000  49.6830000   8.5800000  33.2070000  49.9840000   8.7410000
  43.3250000  44.2260000  13.7420000  42.8110000  43.0720000  12.7600000
  43.9770000  44.0630000  12.2890000  42.8650000  51.7280000  22.2080000
  43.5070000  52.6420000  23.3570000  42.0070000  52.1030000  23.5050000
  48.3870000  44.9310000  28.4060000  43.7340000  44.5840000  36.4090000
  40.5510000  39.7670000  31.5300000  41.7190000  42.1720000  30.6350000
  46.2990000  45.9480000  28.5580000  39.9550000  40.0600000  30.8090000
  40.1460000  39.0100000  32.0020000  41.4120000  39.4910000  31.1510000
  42.3480000  43.3530000  30.2550000  41.5360000  41.5010000  29.9880000
  45.5220000  44.3670000  30.6940000  46.5610000  46.4980000  27.8300000
  44.6400000  45.3100000  30.2040000  42.5820000  43.4880000  29.3450000
  45.2710000  43.8250000  31.4320000  43.3430000  45.5080000  30.7760000
  43.0330000  46.7650000  31.3600000  42.6360000  44.3370000  31.1920000
  44.0490000  47.6560000  31.7090000  41.6980000  47.1270000  31.5930000
  42.2730000  44.1320000  32.5190000  45.7190000  45.5880000  35.4940000
  43.7110000  48.8670000  32.2850000  44.9600000  47.4340000  31.5530000
  41.3710000  48.3330000  32.1930000  44.4500000  46.7440000  28.7690000
  41.6320000  42.9670000  32.9010000  42.4650000  44.7980000  33.1680000
  44.7020000  44.6550000  35.4100000  46.3820000  45.6250000  34.8150000
  42.3830000  49.2160000  32.5530000  44.6660000  49.9510000  32.7620000
  40.4620000  48.5540000  32.3560000  41.3600000  41.9750000  31.9590000
  41.3780000  42.8420000  33.8080000  47.3950000  43.5430000  30.4380000
  46.8090000  50.6300000  31.9080000  45.4350000  50.6500000  31.6400000
  43.7050000  50.8970000  33.4690000  45.8060000  49.4650000  33.6540000
  40.7570000  40.8450000  32.4450000  47.6770000  51.2530000  31.0190000
  44.9180000  51.2720000  30.5190000  44.0490000  51.9820000  34.2410000
  42.3750000  50.4970000  33.2820000  45.7150000  48.7080000  34.8020000
  47.0400000  49.8910000  33.1510000  41.7410000  43.5530000  37.2320000
  47.1760000  51.8860000  29.9000000  48.6130000  51.2420000  31.1820000
  45.7980000  51.9060000  29.6310000  43.9830000  51.2690000  30.3540000
  43.0430000  52.6940000  34.9110000  44.8660000  48.4470000  35.1400000
  41.3690000  51.2670000  33.8590000  44.9580000  52.2470000  34.3190000
  46.8890000  48.3300000  35.4640000  48.2070000  49.5290000  33.8170000
  42.1580000  43.2530000  38.0660000  41.0590000  42.9050000  36.9570000
  41.3220000  44.4290000  37.3730000  46.4140000  54.6940000  29.5180000
  43.4160000  53.7080000  35.8130000  45.3110000  52.5560000  28.4820000
  41.7030000  52.3460000  34.6780000  40.4570000  51.0580000  33.6960000
  46.7930000  47.4830000  36.6020000  48.1280000  48.7440000  34.9580000
  49.0520000  49.8180000  33.4930000  42.4870000  54.6650000  36.3240000
  46.0590000  53.5910000  27.8510000  44.6910000  53.6370000  36.4590000
  44.0850000  52.1710000  27.8580000  44.8570000  46.9780000  38.3040000
  47.6530000  47.5910000  37.7150000  45.7780000  46.4730000  36.5670000
  48.9260000  48.4830000  35.4030000  43.8740000  50.8890000  27.3870000
  41.7130000  55.4530000  35.4700000  43.0940000  53.1330000  27.6480000
  46.2780000  53.5580000  26.4760000  42.3820000  54.8670000  37.6920000
  45.1680000  52.4590000  37.0140000  45.0460000  46.0950000  29.1230000
  44.8210000  46.3820000  37.5650000  46.5660000  54.6550000  28.5810000
  45.4760000  54.7840000  36.5370000  47.8170000  46.5240000  38.5940000
  48.3560000  48.7720000  37.9880000  40.8580000  56.4100000  35.9870000
  41.7740000  55.3310000  34.5290000  41.5420000  55.8410000  38.2210000
  42.8960000  54.3280000  38.2820000  45.9390000  52.8350000  25.9610000
  47.2940000  55.6690000  27.9630000  47.7740000  52.3160000  29.3000000
  46.9840000  54.5690000  25.8580000  49.2270000  48.8470000  39.0560000
  41.0110000  52.8550000  35.0850000  48.6700000  46.6100000  39.6900000
  44.6370000  51.6720000  36.9700000  41.9400000  52.8140000  26.9680000
  43.2190000  54.0160000  27.9760000  43.8080000  45.4320000  37.5010000
  41.0040000  46.5330000  31.3340000  46.6920000  54.7570000  37.1790000
  44.5360000  50.2230000  27.5350000  42.7060000  50.5540000  26.6980000
  45.1700000  55.5920000  36.1440000  46.7980000  44.2030000  30.1060000
  48.2320000  49.5310000  37.4310000  46.4100000  52.4120000  37.6340000
  47.3350000  45.7200000  38.4420000  40.7770000  56.6140000  37.3640000
  40.3230000  56.9320000  35.4000000  47.2080000  55.5510000  37.2480000
  47.4920000  55.6250000  26.5940000  47.1230000  54.5400000  24.9180000
  47.6510000  56.3840000  28.4760000  41.4950000  55.9760000  39.1600000
  49.3960000  47.7650000  39.9080000  43.1700000  45.3650000  38.2020000
  41.7400000  51.5280000  26.4850000  41.2750000  53.4790000  26.8290000
  42.5730000  49.6690000  26.3790000  47.1670000  44.9990000  29.0550000
  46.7370000  51.5940000  37.9900000  48.7520000  45.8760000  40.2870000
  47.1680000  53.5720000  37.7280000  44.6630000  44.0620000  34.6690000
  49.7150000  49.6470000  39.2100000  39.9360000  57.6150000  37.7720000
  48.1730000  56.5740000  25.8710000  50.3040000  47.9590000  40.9280000
  42.7380000  43.6600000  36.2120000  40.5700000  51.3420000  25.7980000
  48.3950000  53.6540000  38.3430000  39.8470000  57.8710000  39.1710000
  48.6100000  57.7140000  26.5820000  50.5440000  46.8710000  41.7810000
  40.2700000  50.0370000  25.3290000  49.3460000  44.0530000  28.9340000
  48.8800000  52.4860000  39.0000000  39.2030000  58.5900000  39.3310000
  39.5520000  57.0590000  39.6340000  40.7260000  58.1370000  39.5110000
  49.2870000  57.4490000  27.2420000  47.8480000  58.1240000  27.0420000
  49.0000000  58.3600000  25.9570000  50.8570000  46.1060000  41.2550000
  49.7150000  46.6310000  42.2460000  51.2270000  47.1170000  42.4400000
  40.2300000  49.4180000  26.0880000  40.9680000  49.7450000  24.7070000
  39.4050000  50.0450000  24.8680000  49.5230000  44.2870000  29.8690000
  49.0090000  43.1340000  28.8870000  50.1740000  44.1240000  28.4160000
  49.0630000  51.7890000  38.3350000  49.7040000  52.7030000  39.4840000
  48.2040000  52.1640000  39.6320000  44.7430000  59.3660000  12.2790000
  40.0900000  59.0190000  20.2820000  36.9080000  54.2020000  15.4030000
  38.0750000  56.6070000  14.5080000  42.6560000  60.3830000  12.4310000
  36.3110000  54.4950000  14.6820000  36.5020000  53.4450000  15.8750000
  37.7690000  53.9260000  15.0240000  38.7040000  57.7880000  14.1290000
  37.8920000  55.9360000  13.8610000  41.8790000  58.8020000  14.5670000
  42.9180000  60.9330000  11.7030000  40.9960000  59.7450000  14.0770000
  38.9390000  57.9230000  13.2180000  41.6270000  58.2600000  15.3050000
  39.6990000  59.9430000  14.6490000  39.3890000  61.2000000  15.2330000
  38.9930000  58.7720000  15.0650000  40.4060000  62.0910000  15.5820000
  38.0550000  61.5620000  15.4660000  38.6290000  58.5670000  16.3920000
  42.0750000  60.0230000  19.3670000  40.0670000  63.3020000  16.1580000
  41.3160000  61.8700000  15.4260000  37.7280000  62.7680000  16.0660000
  40.8060000  61.1790000  12.6420000  37.9890000  57.4020000  16.7740000
  38.8210000  59.2330000  17.0410000  41.0590000  59.0900000  19.2830000
  42.7390000  60.0600000  18.6880000  38.7400000  63.6520000  16.4260000
  41.0230000  64.3860000  16.6350000  36.8180000  62.9890000  16.2290000
  37.7170000  56.4100000  15.8320000  37.7340000  57.2770000  17.6810000
  43.7520000  57.9780000  14.3110000  43.1650000  65.0660000  15.7810000
  41.7910000  65.0850000  15.5130000  40.0610000  65.3320000  17.3420000
  42.1630000  63.9000000  17.5270000  37.1130000  55.2800000  16.3180000
  44.0340000  65.6880000  14.8920000  41.2750000  65.7070000  14.3920000
  40.4060000  66.4170000  18.1140000  38.7310000  64.9320000  17.1550000
  42.0710000  63.1430000  18.6750000  43.3960000  64.3260000  17.0240000
  38.0970000  57.9890000  21.1050000  43.5320000  66.3210000  13.7730000
  44.9700000  65.6770000  15.0550000  42.1550000  66.3410000  13.5040000
  40.3390000  65.7040000  14.2270000  39.4000000  67.1290000  18.7840000
  41.2230000  62.8820000  19.0130000  37.7260000  65.7020000  17.7320000
  41.3150000  66.6820000  18.1920000  43.2460000  62.7650000  19.3370000
  44.5630000  63.9640000  17.6900000  38.5140000  57.6880000  21.9390000
  37.4160000  57.3400000  20.8300000  37.6790000  58.8640000  21.2460000
  42.7700000  69.1290000  13.3910000  39.7720000  68.1440000  19.6860000
  41.6670000  66.9910000  12.3550000  38.0590000  66.7820000  18.5510000
  36.8140000  65.4930000  17.5690000  43.1490000  61.9180000  20.4750000
  44.4850000  63.1790000  18.8310000  45.4080000  64.2530000  17.3660000
  38.8440000  69.1000000  20.1970000  42.4160000  68.0270000  11.7240000
  41.0470000  68.0720000  20.3320000  40.4410000  66.6060000  11.7310000
  41.2140000  61.4130000  22.1770000  44.0090000  62.0270000  21.5880000
  42.1350000  60.9080000  20.4400000  45.2830000  62.9180000  19.2760000
  40.2310000  65.3240000  11.2600000  38.0700000  69.8880000  19.3430000
  39.4510000  67.5690000  11.5210000  42.6350000  67.9930000  10.3490000
  38.7390000  69.3020000  21.5650000  41.5240000  66.8940000  20.8870000
  41.4030000  60.5300000  12.9960000  41.1770000  60.8170000  21.4380000
  42.9220000  69.0910000  12.4540000  41.8330000  69.2190000  20.4100000
  44.1730000  60.9590000  22.4670000  44.7130000  63.2070000  21.8610000
  37.2140000  70.8450000  19.8600000  38.1300000  69.7660000  18.4020000
  37.8990000  70.2760000  22.0940000  39.2530000  68.7630000  22.1550000
  42.2960000  67.2700000   9.8340000  43.6500000  70.1040000  11.8360000
  44.1310000  66.7510000  13.1730000  43.3410000  69.0040000   9.7310000
  45.5830000  63.2820000  22.9290000  37.3680000  67.2900000  18.9580000
  45.0260000  61.0450000  23.5630000  40.9930000  66.1070000  20.8430000
  38.2960000  67.2490000  10.8410000  39.5750000  68.4510000  11.8490000
  40.1640000  59.8670000  21.3740000  37.3600000  60.9680000  15.2070000
  43.0480000  69.1920000  21.0520000  40.8920000  64.6580000  11.4080000
  39.0620000  64.9890000  10.5710000  41.5260000  70.0270000  20.0170000
  43.1540000  58.6380000  13.9790000  44.5890000  63.9660000  21.3040000
  42.7660000  66.8470000  21.5070000  43.6920000  60.1550000  22.3150000
  37.1330000  71.0490000  21.2370000  36.6790000  71.3670000  19.2740000
  43.5640000  69.9860000  21.1210000  43.8480000  70.0600000  10.4670000
  43.4800000  68.9750000   8.7910000  44.0070000  70.8190000  12.3490000
  37.8510000  70.4110000  23.0330000  45.7530000  62.2000000  23.7810000
  39.5260000  59.8000000  22.0750000  38.0970000  65.9630000  10.3580000
  37.6320000  67.9140000  10.7020000  38.9300000  64.1040000  10.2520000
  43.5230000  59.4340000  12.9280000  43.0940000  66.0290000  21.8640000
  45.1090000  60.3110000  24.1600000  43.5250000  68.0070000  21.6010000
  41.0200000  58.4970000  18.5420000  46.0710000  64.0820000  23.0830000
  36.2930000  72.0500000  21.6450000  44.5300000  71.0090000   9.7440000
  46.6600000  62.3940000  24.8010000  39.0940000  58.0950000  20.0850000
  36.9270000  65.7770000   9.6710000  44.7520000  68.0890000  22.2160000
  36.2040000  72.3060000  23.0440000  44.9670000  72.1490000  10.4550000
  46.9000000  61.3060000  25.6540000  36.6270000  64.4720000   9.2020000
  45.7020000  58.4880000  12.8070000  45.2360000  66.9210000  22.8730000
  35.5600000  73.0260000  23.2040000  35.9090000  71.4940000  23.5070000
  37.0830000  72.5720000  23.3840000  45.6430000  71.8840000  11.1150000
  44.2050000  72.5590000  10.9150000  45.3570000  72.7950000   9.8300000
  47.2130000  60.5410000  25.1280000  46.0710000  61.0660000  26.1190000
  47.5840000  61.5520000  26.3130000  36.5860000  63.8530000   9.9610000
  37.3240000  64.1800000   8.5800000  35.7620000  64.4800000   8.7410000
  45.8800000  58.7230000  13.7420000  45.3650000  57.5690000  12.7600000
  46.5310000  58.5590000  12.2890000  45.4200000  66.2250000  22.2080000
  46.0610000  67.1380000  23.3570000  44.5610000  66.5990000  23.5050000
  50.9410000  59.4270000  28.4060000  46.2880000  59.0800000  36.4090000
  43.1050000  54.2630000  31.5300000  44.2730000  56.6680000  30.6350000
  48.8530000  60.4440000  28.5580000  42.5090000  54.5560000  30.8090000
  42.7000000  53.5060000  32.0020000  43.9660000  53.9870000  31.1510000
  44.9020000  57.8490000  30.2550000  44.0900000  55.9970000  29.9880000
  48.0770000  58.8640000  30.6940000  49.1160000  60.9940000  27.8300000
  47.1940000  59.8070000  30.2040000  45.1370000  57.9840000  29.3450000
  47.8250000  58.3210000  31.4320000  45.8970000  60.0040000  30.7760000
  45.5870000  61.2610000  31.3600000  45.1910000  58.8330000  31.1920000
  46.6040000  62.1530000  31.7090000  44.2530000  61.6230000  31.5930000
  44.8270000  58.6280000  32.5190000  48.2730000  60.0840000  35.4940000
  46.2650000  63.3630000  32.2850000  47.5140000  61.9310000  31.5530000
  43.9250000  62.8290000  32.1930000  47.0040000  61.2400000  28.7690000
  44.1870000  57.4630000  32.9010000  45.0190000  59.2950000  33.1680000
  47.2560000  59.1510000  35.4100000  48.9360000  60.1210000  34.8150000
  44.9380000  63.7130000  32.5530000  47.2200000  64.4470000  32.7620000
  43.0160000  63.0500000  32.3560000  43.9150000  56.4710000  31.9590000
  43.9320000  57.3380000  33.8080000  49.9500000  58.0390000  30.4380000
  49.3630000  65.1270000  31.9080000  47.9890000  65.1460000  31.6400000
  46.2590000  65.3930000  33.4690000  48.3600000  63.9610000  33.6540000
  43.3110000  55.3420000  32.4450000  50.2320000  65.7490000  31.0190000
  47.4730000  65.7680000  30.5190000  46.6040000  66.4780000  34.2410000
  44.9290000  64.9930000  33.2820000  48.2690000  63.2050000  34.8020000
  49.5940000  64.3870000  33.1510000  44.2950000  58.0500000  37.2320000
  49.7300000  66.3820000  29.9000000  51.1680000  65.7390000  31.1820000
  48.3530000  66.4030000  29.6310000  46.5370000  65.7650000  30.3540000
  45.5970000  67.1900000  34.9110000  47.4200000  62.9430000  35.1400000
  43.9240000  65.7630000  33.8590000  47.5130000  66.7430000  34.3190000
  49.4430000  62.8260000  35.4640000  50.7610000  64.0250000  33.8170000
  44.7120000  57.7490000  38.0660000  43.6140000  57.4020000  36.9570000
  43.8760000  58.9250000  37.3730000  48.9680000  69.1900000  29.5180000
  45.9700000  68.2050000  35.8130000  47.8650000  67.0520000  28.4820000
  44.2570000  66.8430000  34.6780000  43.0110000  65.5540000  33.6960000
  49.3470000  61.9790000  36.6020000  50.6830000  63.2400000  34.9580000
  51.6060000  64.3140000  33.4930000  45.0410000  69.1610000  36.3240000
  48.6130000  68.0880000  27.8510000  47.2450000  68.1330000  36.4590000
  46.6390000  66.6670000  27.8580000  47.4110000  61.4740000  38.3040000
  50.2070000  62.0880000  37.7150000  48.3320000  60.9690000  36.5670000
  51.4810000  62.9790000  35.4030000  46.4280000  65.3850000  27.3870000
  44.2670000  69.9490000  35.4700000  45.6490000  67.6300000  27.6480000
  48.8320000  68.0540000  26.4760000  44.9360000  69.3640000  37.6920000
  47.7220000  66.9550000  37.0140000  47.6010000  60.5910000  29.1230000
  47.3750000  60.8780000  37.5650000  49.1200000  69.1520000  28.5810000
  48.0310000  69.2800000  36.5370000  50.3710000  61.0210000  38.5940000
  50.9110000  63.2680000  37.9880000  43.4120000  70.9060000  35.9870000
  44.3280000  69.8270000  34.5290000  44.0970000  70.3380000  38.2210000
  45.4500000  68.8240000  38.2820000  48.4930000  67.3320000  25.9610000
  49.8480000  70.1650000  27.9630000  50.3290000  66.8120000  29.3000000
  49.5380000  69.0650000  25.8580000  51.7810000  63.3430000  39.0560000
  43.5650000  67.3510000  35.0850000  51.2240000  61.1060000  39.6900000
  47.1910000  66.1690000  36.9700000  44.4940000  67.3100000  26.9680000
  45.7730000  68.5120000  27.9760000  46.3620000  59.9280000  37.5010000
  43.5580000  61.0290000  31.3340000  49.2460000  69.2530000  37.1790000
  47.0900000  64.7190000  27.5350000  45.2600000  65.0500000  26.6980000
  47.7240000  70.0880000  36.1440000  49.3520000  58.6990000  30.1060000
  50.7860000  64.0280000  37.4310000  48.9640000  66.9080000  37.6340000
  49.8900000  60.2160000  38.4420000  43.3310000  71.1100000  37.3640000
  42.8770000  71.4280000  35.4000000  49.7620000  70.0480000  37.2480000
  50.0460000  70.1210000  26.5940000  49.6780000  69.0360000  24.9180000
  50.2050000  70.8810000  28.4760000  44.0490000  70.4720000  39.1600000
  51.9500000  62.2610000  39.9080000  45.7240000  59.8610000  38.2020000
  44.2950000  66.0240000  26.4850000  43.8300000  67.9750000  26.8290000
  45.1280000  64.1650000  26.3790000  49.7210000  59.4950000  29.0550000
  49.2920000  66.0910000  37.9900000  51.3060000  60.3720000  40.2870000
  49.7230000  68.0680000  37.7280000  47.2170000  58.5580000  34.6690000
  52.2690000  64.1430000  39.2100000  42.4900000  72.1110000  37.7720000
  50.7280000  71.0700000  25.8710000  52.8580000  62.4550000  40.9280000
  45.2920000  58.1560000  36.2120000  43.1240000  65.8380000  25.7980000
  50.9490000  68.1500000  38.3430000  42.4020000  72.3670000  39.1710000
  51.1650000  72.2100000  26.5820000  53.0980000  61.3670000  41.7810000
  42.8240000  64.5330000  25.3290000  51.9000000  58.5490000  28.9340000
  51.4340000  66.9830000  39.0000000  41.7570000  73.0870000  39.3310000
  42.1060000  71.5560000  39.6340000  43.2800000  72.6340000  39.5110000
  51.8410000  71.9450000  27.2420000  50.4020000  72.6200000  27.0420000
  51.5550000  72.8560000  25.9570000  53.4110000  60.6030000  41.2550000
  52.2690000  61.1270000  42.2460000  53.7810000  61.6130000  42.4400000
  42.7840000  63.9140000  26.0880000  43.5220000  64.2410000  24.7070000
  41.9590000  64.5410000  24.8680000  52.0770000  58.7840000  29.8690000
  51.5630000  57.6300000  28.8870000  52.7290000  58.6200000  28.4160000
  51.6170000  66.2860000  38.3350000  52.2590000  67.1990000  39.4840000
  50.7590000  66.6600000  39.6320000  39.6350000  30.3730000  12.2790000
  34.9820000  30.0260000  20.2820000  31.7990000  25.2100000  15.4030000
  32.9670000  27.6140000  14.5080000  37.5470000  31.3900000  12.4310000
  31.2030000  25.5020000  14.6820000  31.3940000  24.4530000  15.8750000
  32.6600000  24.9340000  15.0240000  33.5960000  28.7950000  14.1290000
  32.7840000  26.9440000  13.8610000  36.7700000  29.8100000  14.5670000
  37.8090000  31.9410000  11.7030000  35.8880000  30.7530000  14.0770000
  33.8300000  28.9310000  13.2180000  36.5190000  29.2680000  15.3050000
  34.5910000  30.9510000  14.6490000  34.2810000  32.2080000  15.2330000
  33.8850000  29.7790000  15.0650000  35.2970000  33.0990000  15.5820000
  32.9460000  32.5700000  15.4660000  33.5210000  29.5750000  16.3920000
  36.9670000  31.0300000  19.3670000  34.9590000  34.3100000  16.1580000
  36.2080000  32.8770000  15.4260000  32.6190000  33.7750000  16.0660000
  35.6980000  32.1870000  12.6420000  32.8800000  28.4090000  16.7740000
  33.7130000  30.2410000  17.0410000  35.9500000  30.0980000  19.2830000
  37.6300000  31.0670000  18.6880000  33.6310000  34.6590000  16.4260000
  35.9140000  35.3930000  16.6350000  31.7100000  33.9970000  16.2290000
  32.6080000  27.4180000  15.8320000  32.6260000  28.2840000  17.6810000
  38.6430000  28.9860000  14.3110000  38.0570000  36.0730000  15.7810000
  36.6830000  36.0930000  15.5130000  34.9530000  36.3400000  17.3420000
  37.0540000  34.9070000  17.5270000  32.0050000  26.2880000  16.3180000
  38.9250000  36.6950000  14.8920000  36.1660000  36.7140000  14.3920000
  35.2970000  37.4250000  18.1140000  33.6230000  35.9400000  17.1550000
  36.9630000  34.1510000  18.6750000  38.2880000  35.3330000  17.0240000
  32.9890000  28.9960000  21.1050000  38.4240000  37.3290000  13.7730000
  39.8610000  36.6850000  15.0550000  37.0460000  37.3490000  13.5040000
  35.2310000  36.7120000  14.2270000  34.2910000  38.1370000  18.7840000
  36.1140000  33.8900000  19.0130000  32.6170000  36.7100000  17.7320000
  36.2070000  37.6890000  18.1920000  38.1370000  33.7730000  19.3370000
  39.4550000  34.9720000  17.6900000  33.4060000  28.6960000  21.9390000
  32.3070000  28.3480000  20.8300000  32.5700000  29.8720000  21.2460000
  37.6620000  40.1370000  13.3910000  34.6640000  39.1510000  19.6860000
  36.5590000  37.9990000  12.3550000  32.9510000  37.7890000  18.5510000
  31.7050000  36.5000000  17.5690000  38.0410000  32.9250000  20.4750000
  39.3760000  34.1870000  18.8310000  40.3000000  35.2610000  17.3660000
  33.7350000  40.1080000  20.1970000  37.3070000  39.0340000  11.7240000
  35.9390000  39.0790000  20.3320000  35.3330000  37.6130000  11.7310000
  36.1050000  32.4200000  22.1770000  38.9010000  33.0340000  21.5880000
  37.0260000  31.9150000  20.4400000  40.1740000  33.9260000  19.2760000
  35.1220000  36.3310000  11.2600000  32.9610000  40.8950000  19.3430000
  34.3430000  38.5760000  11.5210000  37.5260000  39.0010000  10.3490000
  33.6300000  40.3100000  21.5650000  36.4160000  37.9010000  20.8870000
  36.2940000  31.5380000  12.9960000  36.0690000  31.8250000  21.4380000
  37.8140000  40.0980000  12.4540000  36.7240000  40.2260000  20.4100000
  39.0650000  31.9670000  22.4670000  39.6040000  34.2150000  21.8610000
  32.1060000  41.8530000  19.8600000  33.0220000  40.7730000  18.4020000
  32.7910000  41.2840000  22.0940000  34.1440000  39.7700000  22.1550000
  37.1870000  38.2780000   9.8340000  38.5420000  41.1120000  11.8360000
  39.0220000  37.7590000  13.1730000  38.2320000  40.0120000   9.7310000
  40.4750000  34.2890000  22.9290000  32.2590000  38.2980000  18.9580000
  39.9180000  32.0520000  23.5630000  35.8850000  37.1150000  20.8430000
  33.1880000  38.2570000  10.8410000  34.4670000  39.4590000  11.8490000
  35.0560000  30.8750000  21.3740000  32.2520000  31.9760000  15.2070000
  37.9400000  40.2000000  21.0520000  35.7840000  35.6660000  11.4080000
  33.9540000  35.9970000  10.5710000  36.4180000  41.0350000  20.0170000
  38.0460000  29.6460000  13.9790000  39.4800000  34.9740000  21.3040000
  37.6580000  37.8540000  21.5070000  38.5830000  31.1620000  22.3150000
  32.0250000  42.0560000  21.2370000  31.5710000  42.3740000  19.2740000
  38.4560000  40.9940000  21.1210000  38.7400000  41.0680000  10.4670000
  38.3710000  39.9820000   8.7910000  38.8990000  41.8270000  12.3490000
  32.7430000  41.4180000  23.0330000  40.6440000  33.2070000  23.7810000
  34.4180000  30.8080000  22.0750000  32.9890000  36.9710000  10.3580000
  32.5230000  38.9210000  10.7020000  33.8210000  35.1120000  10.2520000
  38.4150000  30.4420000  12.9280000  37.9850000  37.0370000  21.8640000
  40.0000000  31.3180000  24.1600000  38.4160000  39.0150000  21.6010000
  35.9110000  29.5050000  18.5420000  40.9630000  35.0900000  23.0830000
  31.1840000  43.0570000  21.6450000  39.4210000  42.0170000   9.7440000
  41.5520000  33.4010000  24.8010000  33.9860000  29.1030000  20.0850000
  31.8180000  36.7850000   9.6710000  39.6430000  39.0960000  22.2160000
  31.0950000  43.3130000  23.0440000  39.8580000  43.1570000  10.4550000
  41.7920000  32.3140000  25.6540000  31.5180000  35.4790000   9.2020000
  40.5940000  29.4950000  12.8070000  40.1280000  37.9290000  22.8730000
  30.4510000  44.0330000  23.2040000  30.8000000  42.5020000  23.5070000
  31.9740000  43.5800000  23.3840000  40.5350000  42.8910000  11.1150000
  39.0960000  43.5660000  10.9150000  40.2490000  43.8030000   9.8300000
  42.1050000  31.5490000  25.1280000  40.9630000  32.0730000  26.1190000
  42.4750000  32.5600000  26.3130000  31.4780000  34.8610000   9.9610000
  32.2160000  35.1870000   8.5800000  30.6530000  35.4880000   8.7410000
  40.7710000  29.7300000  13.7420000  40.2570000  28.5760000  12.7600000
  41.4220000  29.5670000  12.2890000  40.3110000  37.2320000  22.2080000
  40.9520000  38.1450000  23.3570000  39.4520000  37.6070000  23.5050000
  37.9080000  47.8370000   8.6740000  37.0010000  47.6420000   7.6540000
  38.1480000  46.7490000   9.5270000  34.2960000  54.6350000   4.9250000
  36.8310000  48.7240000   6.8020000  35.8090000  52.0420000   7.3780000
  37.3090000  52.5800000   7.2300000  38.8320000  46.9950000  10.1860000
  32.7720000  52.3370000   4.7600000  34.8120000  55.4290000   4.9940000
  35.9610000  48.6500000   5.7340000  37.3190000  49.5250000   6.9560000
  35.2580000  47.4690000   5.4610000  34.9400000  45.5970000   6.1880000
  35.8370000  49.4090000   5.1770000  31.0200000  53.5860000   3.5590000
  30.6480000  52.5720000   2.6570000  30.0920000  54.5430000   4.0700000
  31.6540000  51.8600000   1.9870000  35.7330000  48.6220000   2.7040000
  29.9870000  54.7450000   5.4380000  29.3180000  55.3300000   3.2160000
  31.3090000  50.7750000   1.2150000  32.5630000  52.1240000   2.0650000
  28.9760000  48.2100000  -0.0610000  36.5310000  48.3610000   3.1490000
  28.4620000  56.2880000   3.7330000  30.5010000  54.2060000   6.0280000
  29.1470000  55.7190000   5.9670000  29.3780000  55.2080000   2.2750000
  34.6440000  49.7690000   0.8970000  32.2710000  49.8280000   0.5080000
  36.6560000  49.6960000   1.2390000  28.3810000  56.4910000   5.1100000
  27.9270000  56.8090000   3.1470000  29.0990000  55.8530000   6.9060000
  34.4130000  50.5080000  -0.3460000  33.4110000  49.3430000   1.4000000
  31.3150000  48.7450000   0.0310000  33.0400000  50.5280000  -0.6140000
  27.5410000  57.4920000   5.5180000  35.8110000  49.4070000   1.5630000
  31.6540000  47.5340000  -0.5450000  33.3190000  48.5860000   2.5480000
  29.9880000  49.0940000   0.2990000  32.5230000  51.1490000  -1.7350000
  29.9790000  50.3750000   1.0280000  27.4520000  57.7480000   6.9170000
  29.3030000  47.0050000  -0.6610000  36.2180000  51.1200000  -1.0720000
  30.6370000  46.6430000  -0.8940000  32.5640000  47.3120000  -0.7010000
  34.4940000  48.2080000   3.2100000  32.4710000  48.3250000   2.8860000
  28.9740000  51.1450000   1.6050000  31.5870000  51.1470000  -1.9000000
  33.4030000  51.7840000  -2.6230000  35.2820000  51.1300000  -1.2350000
  28.3310000  58.0150000   7.2570000  26.8080000  58.4680000   7.0770000
  27.1570000  56.9370000   7.3800000  32.8750000  43.7030000  -0.8220000
  34.3970000  47.3600000   4.3480000  30.9470000  45.3860000  -1.4780000
  29.3070000  52.2240000   2.4240000  28.0660000  48.4320000   0.1020000
  32.9150000  52.4340000  -3.7720000  34.7800000  51.7640000  -2.3540000
  28.0620000  50.9360000   1.4420000  30.2410000  44.2140000  -1.0620000
  31.6890000  52.0480000  -4.3960000  32.2440000  45.1880000  -2.0500000
  33.3830000  46.3510000   4.3130000  28.6160000  52.7330000   2.8310000
  32.2950000  53.5140000   4.2050000  33.6640000  53.4690000  -4.4030000
  33.5440000  52.7130000  -6.2930000  33.3230000  45.4650000   3.2400000
  29.8770000  44.0100000   0.2650000  33.1270000  44.2450000  -1.5600000
  32.6510000  45.9730000  -3.1310000  29.9520000  43.2300000  -1.9980000
  33.0810000  54.6610000   4.2830000  32.4250000  46.2600000   5.3110000
  35.4210000  46.4020000   6.3400000  31.4790000  50.7660000  -4.8660000
  34.1700000  54.5330000  -3.6730000  30.6990000  53.0110000  -4.6060000
  33.8830000  53.4360000  -5.7780000  29.3230000  42.0490000  -1.6190000
  30.0690000  44.6760000   0.9140000  29.2370000  42.8440000   0.6470000
  32.0540000  46.6220000  -3.4850000  30.1870000  43.3660000  -2.9090000
  33.9040000  45.8250000  -3.6960000  32.1400000  50.1010000  -4.7190000
  34.4020000  44.0810000  -2.1480000  30.3100000  50.4320000  -5.5560000
  28.6080000  46.4110000  -0.9200000  31.4120000  45.3100000   5.2470000
  32.2410000  51.5500000   4.7160000  32.3070000  44.5330000   3.1560000
  33.9870000  45.5020000   2.5610000  36.2740000  46.4870000   7.4360000
  32.4620000  46.8550000   6.0510000  29.5440000  52.6920000  -5.2860000
  30.8230000  53.8940000  -4.2780000  34.0140000  52.2890000   5.3800000
  32.7740000  55.4700000   3.8900000  34.8980000  55.5470000  -4.2910000
  34.0180000  54.5720000  -2.7360000  34.5890000  54.4470000  -6.3960000
  35.3790000  52.1940000  -2.9540000  28.9650000  41.8530000  -0.2950000
  29.1400000  41.3790000  -2.2660000  28.8800000  53.3560000  -5.4250000
  34.7710000  44.8770000  -3.1990000  35.0000000  43.4210000  -1.8160000
  32.2680000  43.9400000   2.4150000  30.1780000  49.5470000  -5.8750000
  35.0960000  55.5030000  -5.6600000  30.7740000  45.2430000   5.9480000
  31.3380000  44.4620000   4.1550000  28.9820000  42.7190000   1.5540000
  36.3570000  45.7530000   8.0330000  34.7730000  53.4500000   5.4740000
  34.1660000  46.3760000  -4.4240000  34.3420000  51.4720000   5.7370000
  29.3450000  51.4060000  -5.7690000  35.2550000  56.2620000  -3.7780000
  34.7280000  54.4170000  -7.3360000  28.3610000  40.7230000   0.1910000
  35.9910000  44.8080000  -3.8480000  28.1750000  51.2200000  -6.4560000
  30.3420000  43.5380000   3.9580000  36.0000000  53.5310000   6.0890000
  35.7780000  56.4520000  -6.3830000  28.1560000  39.6450000  -0.7240000
  36.9500000  43.9300000  -3.3200000  36.2150000  57.5920000  -5.6720000
  29.3450000  43.4310000   4.9780000  36.4840000  52.3640000   6.7460000
  27.8750000  49.9140000  -6.9250000  27.7500000  38.8880000  -0.2520000
  29.0170000  39.3690000  -1.1030000  27.5590000  39.9370000  -1.4450000
  36.6130000  43.0110000  -3.3670000  37.1280000  44.1650000  -2.3850000
  37.7790000  44.0020000  -3.8380000  27.0100000  49.9230000  -7.3860000
  36.6050000  58.2380000  -6.2970000  35.4530000  58.0010000  -5.2120000
  28.6640000  42.7830000   4.7030000  28.9270000  44.3070000   5.1190000
  29.7620000  43.1310000   5.8120000  38.4610000  45.9840000   9.0010000
  36.6680000  51.6670000   6.0810000  37.3190000  46.5080000   9.9920000
  27.8340000  49.2960000  -6.1660000  36.8910000  57.3260000  -5.0120000
  28.5720000  49.6220000  -7.5470000  23.2530000  11.7310000   0.1910000
  23.8560000  12.8600000  -0.2950000  24.2370000  14.4390000   4.9780000
  29.2940000  15.0880000  -2.1480000  26.3040000  16.3170000   5.2470000
  23.5550000  13.7910000   4.7030000  24.6540000  14.1380000   5.8120000
  23.8180000  15.3140000   5.1190000  27.5430000  16.9810000  -3.1310000
  24.0320000  12.3860000  -2.2660000  27.3170000  17.2670000   5.3110000
  25.6660000  16.2500000   5.9480000  27.1360000  16.1960000  -2.0500000
  27.1330000  22.5580000   4.7160000  29.8310000  16.6050000   6.1880000
  27.8070000  23.4410000  -3.7720000  28.2940000  22.7920000  -2.6230000
  30.1490000  18.4770000   5.4610000  28.2110000  19.5940000   2.5480000
  24.1990000  23.2320000   2.4240000  24.8780000  25.7530000   5.4380000
  30.3130000  17.4100000   6.3400000  26.2070000  19.7520000   0.0310000
  27.3620000  19.3330000   2.8860000  23.8650000  22.1520000   1.6050000
  27.6660000  26.4770000   3.8900000  28.9060000  23.2970000   5.3800000
  25.3920000  25.2130000   6.0280000  31.7230000  19.7320000   6.8020000
  27.3530000  17.8630000   6.0510000  24.8710000  21.3830000   1.0280000
  27.1620000  20.8360000   0.5080000  22.9580000  19.4390000   0.1020000
  31.8920000  18.6500000   7.6540000  27.1590000  14.9470000   2.4150000
  32.2110000  20.5320000   6.9560000  24.8800000  20.1020000   0.2990000
  27.9310000  21.5350000  -0.6140000  28.3020000  20.3500000   1.4000000
  26.2010000  21.7820000   1.2150000  32.8000000  18.8440000   8.6740000
  23.8670000  19.2180000  -0.0610000  27.4140000  22.1570000  -1.7350000
  26.5450000  22.8670000   1.9870000  29.3050000  21.5160000  -0.3460000
  26.5450000  18.5420000  -0.5450000  29.5360000  20.7760000   0.8970000
  33.0400000  17.7560000   9.5270000  24.1950000  18.0120000  -0.6610000
  22.9530000  21.9430000   1.4420000  25.5290000  17.6510000  -0.8940000
  26.4790000  22.1550000  -1.9000000  25.5390000  23.5790000   2.6570000
  27.4550000  23.1320000   2.0650000  30.7030000  20.4140000   1.5630000
  27.4560000  18.3200000  -0.7010000  29.3850000  19.2150000   3.2100000
  30.1730000  22.1380000  -1.2350000  30.7000000  23.0490000   7.3780000
  22.0480000  27.9450000   7.3800000  32.2000000  23.5880000   7.2300000
  23.5000000  17.4180000  -0.9200000  25.8390000  16.3930000  -1.4780000
  25.9120000  24.5940000   3.5590000  29.6720000  22.7710000  -2.3540000
  31.1090000  22.1280000  -1.0720000  29.2890000  18.3680000   4.3480000
  30.6240000  19.6290000   2.7040000  31.5480000  20.7030000   1.2390000
  28.5550000  24.4770000  -4.4030000  26.5810000  23.0560000  -4.3960000
  27.1870000  24.5220000   4.2050000  24.9830000  25.5510000   4.0700000
  27.0320000  21.1080000  -4.7190000  25.1330000  15.2220000  -1.0620000
  28.2740000  17.3580000   4.3130000  31.4220000  19.3680000   3.1490000
  28.7740000  24.4440000  -5.7780000  29.0620000  25.5410000  -3.6730000
  26.3700000  21.7740000  -4.8660000  25.5910000  24.0190000  -4.6060000
  30.8520000  19.6570000   5.7340000  27.9720000  25.6690000   4.2830000
  27.6640000  23.3440000   4.7600000  24.2090000  26.3380000   3.2160000
  28.0190000  15.2530000  -1.5600000  24.7690000  15.0170000   0.2650000
  28.2150000  16.4730000   3.2400000  24.8440000  14.2380000  -1.9980000
  29.4800000  25.4540000  -6.3960000  30.2700000  23.2010000  -2.9540000
  29.7900000  26.5550000  -4.2910000  25.7150000  24.9010000  -4.2780000
  28.4350000  23.7210000  -6.2930000  24.4360000  23.6990000  -5.2860000
  26.9460000  17.6290000  -3.4850000  28.7950000  16.8330000  -3.6960000
  25.2020000  21.4390000  -5.5560000  28.9100000  25.5790000  -2.7360000
  29.1880000  25.6420000   4.9250000  30.7280000  20.4170000   5.1770000
  23.3540000  27.2950000   3.7330000  24.2700000  26.2160000   2.2750000
  24.0390000  26.7270000   5.9670000  23.5070000  23.7400000   2.8310000
  24.1280000  13.8520000   0.6470000  25.0780000  14.3730000  -2.9090000
  24.2150000  13.0570000  -1.6190000  24.9610000  15.6840000   0.9140000
  31.1660000  17.4950000   7.4360000  28.8780000  16.5100000   2.5610000
  27.1980000  15.5410000   3.1560000  27.7670000  14.7100000  -0.8220000
  29.9880000  26.5100000  -5.6600000  30.1470000  27.2700000  -3.7780000
  25.0690000  20.5540000  -5.8750000  24.2370000  22.4130000  -5.7690000
  29.6190000  25.4250000  -7.3360000  23.7710000  24.3640000  -5.4250000
  29.2330000  22.4800000   5.7370000  29.6650000  24.4570000   5.4740000
  29.7040000  26.4370000   4.9940000  23.2730000  27.4990000   5.1100000
  22.8190000  27.8170000   3.1470000  23.9910000  26.8610000   6.9060000
  29.6630000  15.8840000  -3.1990000  29.0570000  17.3830000  -4.4240000
  23.8740000  13.7270000   1.5540000  26.2300000  15.4690000   4.1550000
  31.2480000  16.7610000   8.0330000  29.8910000  14.4280000  -1.8160000
  30.6690000  27.4600000  -6.3830000  23.0660000  22.2270000  -6.4560000
  30.8910000  24.5390000   6.0890000  22.4320000  28.5000000   5.5180000
  30.8830000  15.8160000  -3.8480000  25.2340000  14.5450000   3.9580000
  31.1060000  28.6000000  -5.6720000  22.7660000  20.9220000  -6.9250000
  31.3760000  23.3720000   6.7460000  22.3430000  28.7560000   6.9170000
  31.8420000  14.9380000  -3.3200000  23.0470000  10.6520000  -0.7240000
  31.7830000  28.3340000  -5.0120000  30.3440000  29.0090000  -5.2120000
  31.5050000  14.0190000  -3.3670000  21.9010000  20.9310000  -7.3860000
  23.4640000  20.6300000  -7.5470000  22.6420000   9.8960000  -0.2520000
  22.4510000  10.9450000  -1.4450000  31.4970000  29.2450000  -6.2970000
  31.5590000  22.6750000   6.0810000  23.9080000  10.3770000  -1.1030000
  21.6990000  29.4760000   7.0770000  23.2220000  29.0230000   7.2570000
  22.7260000  20.3030000  -6.1660000  32.0190000  15.1730000  -2.3850000
  32.6700000  15.0090000  -3.8380000  33.7230000  18.0020000  10.1860000
  33.3530000  16.9920000   9.0010000  32.2110000  17.5160000   9.9920000
  35.4620000  22.3500000  25.7980000  36.2520000  12.9830000  31.9590000
  35.4430000  10.7750000  31.5300000  43.5610000  17.6170000  39.6900000
  37.5970000  21.5620000  26.6980000  34.2970000  21.0530000  24.8680000
  35.9510000  13.9130000  36.9570000  35.0370000  10.0180000  32.0020000
  39.9380000  17.1030000  29.1230000  36.4270000  12.5090000  29.9880000
  37.2390000  14.3600000  30.2550000  37.4650000  20.6770000  26.3790000
  38.9760000  23.1780000  27.8580000  39.5280000  22.6800000  36.9700000
  35.8950000  17.5410000  31.3340000  38.2340000  16.5160000  30.7760000
  40.6900000  22.9140000  29.6310000  39.5310000  16.3180000  30.2040000
  40.6060000  19.7160000  34.8020000  36.5940000  23.3540000  34.6780000
  40.3680000  25.7910000  36.5370000  39.7120000  17.3900000  37.5650000
  38.6020000  19.8740000  32.2850000  39.7580000  19.4550000  35.1400000
  36.2610000  22.2750000  33.8590000  38.1100000  25.0240000  27.9760000
  44.1180000  19.8540000  39.0560000  40.0610000  26.6000000  36.1440000
  38.6990000  16.4400000  37.5010000  42.2270000  16.7270000  38.4420000
  37.2750000  20.2240000  32.5530000  39.5580000  20.9580000  32.7620000
  35.3530000  19.5620000  32.3560000  44.2880000  18.7720000  39.9080000
  43.6440000  16.8830000  40.2870000  38.0610000  16.3730000  38.2020000
  41.7000000  21.6380000  31.9080000  40.3260000  21.6580000  31.6400000
  40.6980000  20.4720000  33.6540000  38.5960000  21.9050000  33.4690000
  35.6480000  11.8530000  32.4450000  42.5690000  22.2600000  31.0190000
  39.8100000  22.2790000  30.5190000  38.9410000  22.9900000  34.2410000
  37.2660000  21.5050000  33.2820000  38.9410000  18.6640000  31.7090000
  41.9310000  20.8980000  33.1510000  36.6320000  14.5610000  37.2320000
  42.0670000  22.8940000  29.9000000  35.3490000  22.0650000  33.6960000
  41.7810000  19.3380000  35.4640000  39.8500000  23.2540000  34.3190000
  37.9350000  23.7020000  34.9110000  38.8740000  22.2770000  30.3540000
  43.0980000  20.5370000  33.8170000  39.8510000  18.4420000  31.5530000
  37.9240000  17.7730000  31.3600000  36.2620000  19.3400000  32.1930000
  37.0490000  14.2610000  38.0660000  34.4440000  28.0670000  39.6340000
  36.2140000  15.4370000  37.3730000  40.8310000  23.8430000  25.9610000
  40.2020000  23.5640000  28.4820000  38.3070000  24.7160000  35.8130000
  43.0200000  19.7520000  34.9580000  43.5050000  22.2500000  31.1820000
  41.6840000  18.4900000  36.6020000  36.5900000  18.1350000  31.5930000
  43.9430000  20.8260000  33.4930000  39.5820000  24.6440000  36.4590000
  40.9510000  24.5990000  27.8510000  42.5440000  18.5990000  37.7150000
  37.3790000  25.6730000  36.3240000  39.7490000  17.9850000  38.3040000
  37.5280000  15.3440000  31.1920000  40.6700000  17.4800000  36.5670000
  43.8180000  19.4910000  35.4030000  37.9860000  24.1410000  27.6480000
  41.4570000  25.6630000  28.5810000  38.7660000  21.8960000  27.3870000
  41.1700000  24.5660000  26.4760000  43.2480000  19.7800000  37.9880000
  37.2740000  25.8750000  37.6920000  40.0590000  23.4660000  37.0140000
  36.6050000  26.4600000  35.4700000  40.4140000  15.3750000  30.6940000
  37.1640000  15.1400000  32.5190000  40.6100000  16.5950000  35.4940000
  42.7080000  17.5320000  38.5940000  42.1850000  26.6770000  27.9630000
  41.3050000  25.7010000  29.5180000  41.6890000  15.2100000  30.1060000
  41.2740000  16.6320000  34.8150000  42.6660000  23.3240000  29.3000000
  41.8760000  25.5770000  25.8580000  39.3410000  17.7520000  28.7690000
  36.8310000  23.8220000  26.9680000  41.3010000  23.4190000  37.6340000
  43.1240000  20.5390000  37.4310000  41.5830000  25.7650000  37.1790000
  37.7880000  25.3350000  38.2820000  35.7490000  27.4180000  35.9870000
  36.6650000  26.3380000  34.5290000  36.4340000  26.8490000  38.2210000
  35.9030000  23.8630000  35.0850000  41.1910000  16.9550000  28.5580000
  39.4270000  21.2310000  27.5350000  36.6100000  13.1790000  30.6350000
  37.4740000  14.4960000  29.3450000  36.5240000  13.9740000  32.9010000
  37.3560000  15.8060000  33.1680000  39.5940000  15.6630000  35.4100000
  40.1620000  14.8330000  31.4320000  42.3830000  26.6330000  26.5940000
  42.5420000  27.3920000  28.4760000  44.6060000  20.6550000  39.2100000
  42.0580000  16.0070000  29.0550000  42.0150000  25.5470000  24.9180000
  36.1670000  24.4860000  26.8290000  41.6290000  22.6020000  37.9900000
  42.0600000  24.5800000  37.7280000  42.0990000  26.5590000  37.2480000
  35.6680000  27.6210000  37.3640000  35.2140000  27.9390000  35.4000000
  36.3860000  26.9830000  39.1600000  36.6320000  22.5360000  26.4850000
  41.4530000  17.5060000  27.8300000  42.2870000  14.5510000  30.4380000
  38.6250000  15.5910000  36.4090000  36.2690000  13.8490000  33.8080000
  39.5550000  15.0700000  34.6690000  45.1950000  18.9660000  40.9280000
  43.0650000  27.5820000  25.8710000  43.2870000  24.6610000  38.3430000
  34.8280000  28.6220000  37.7720000  43.2780000  15.9380000  28.4060000
  37.6290000  14.6680000  36.2120000  43.7710000  23.4940000  39.0000000
  43.5020000  28.7220000  26.5820000  45.4350000  17.8790000  41.7810000
  34.7390000  28.8780000  39.1710000  35.1620000  21.0440000  25.3290000
  44.2370000  15.0600000  28.9340000  46.1190000  18.1250000  42.4400000
  43.0960000  23.1720000  39.6320000  43.9550000  22.7970000  38.3350000
  43.8920000  29.3680000  25.9570000  44.1780000  28.4560000  27.2420000
  45.0660000  15.1320000  28.4160000  44.5960000  23.7100000  39.4840000
  34.8460000  11.0670000  30.8090000  35.6180000  29.1450000  39.5110000
  42.7400000  29.1310000  27.0420000  36.3040000  10.4990000  31.1510000
  34.0950000  29.5980000  39.3310000  35.1210000  20.4250000  26.0880000
  44.4150000  15.2950000  29.8690000  35.8590000  20.7520000  24.7070000
  45.7480000  17.1140000  41.2550000  44.6060000  17.6380000  42.2460000
  43.9000000  14.1410000  28.8870000  35.3540000  33.3400000   8.6740000
  34.4470000  33.1460000   7.6540000  35.5940000  32.2530000   9.5270000
  31.7420000  40.1380000   4.9250000  34.2770000  34.2280000   6.8020000
  33.2550000  37.5460000   7.3780000  34.7550000  38.0840000   7.2300000
  36.2770000  32.4980000  10.1860000  30.2180000  37.8400000   4.7600000
  32.2580000  40.9330000   4.9940000  33.4070000  34.1540000   5.7340000
  34.7650000  35.0290000   6.9560000  32.7030000  32.9730000   5.4610000
  32.3860000  31.1010000   6.1880000  33.2830000  34.9130000   5.1770000
  28.4660000  39.0900000   3.5590000  28.0930000  38.0760000   2.6570000
  27.5370000  40.0470000   4.0700000  29.1000000  37.3640000   1.9870000
  33.1790000  34.1250000   2.7040000  27.4330000  40.2490000   5.4380000
  26.7630000  40.8340000   3.2160000  28.7550000  36.2780000   1.2150000
  30.0090000  37.6280000   2.0650000  26.4210000  33.7140000  -0.0610000
  33.9770000  33.8650000   3.1490000  25.9080000  41.7920000   3.7330000
  27.9460000  39.7090000   6.0280000  26.5930000  41.2230000   5.9670000
  26.8240000  40.7120000   2.2750000  32.0900000  35.2720000   0.8970000
  29.7170000  35.3320000   0.5080000  34.1020000  35.1990000   1.2390000
  25.8270000  41.9950000   5.1100000  25.3730000  42.3130000   3.1470000
  26.5450000  41.3570000   6.9060000  31.8590000  36.0120000  -0.3460000
  30.8560000  34.8460000   1.4000000  28.7610000  34.2480000   0.0310000
  30.4850000  36.0310000  -0.6140000  24.9860000  42.9960000   5.5180000
  33.2570000  34.9110000   1.5630000  29.1000000  33.0380000  -0.5450000
  30.7650000  34.0900000   2.5480000  27.4340000  34.5980000   0.2990000
  29.9690000  36.6530000  -1.7350000  27.4250000  35.8790000   1.0280000
  24.8980000  43.2520000   6.9170000  26.7490000  32.5090000  -0.6610000
  33.6640000  36.6240000  -1.0720000  28.0830000  32.1470000  -0.8940000
  30.0100000  32.8160000  -0.7010000  31.9390000  33.7120000   3.2100000
  29.9170000  33.8290000   2.8860000  26.4200000  36.6490000   1.6050000
  29.0330000  36.6510000  -1.9000000  30.8490000  37.2880000  -2.6230000
  32.7280000  36.6340000  -1.2350000  25.7760000  43.5190000   7.2570000
  24.2530000  43.9720000   7.0770000  24.6020000  42.4410000   7.3800000
  30.3210000  29.2060000  -0.8220000  31.8430000  32.8640000   4.3480000
  28.3930000  30.8900000  -1.4780000  26.7530000  37.7280000   2.4240000
  25.5120000  33.9360000   0.1020000  30.3610000  37.9380000  -3.7720000
  32.2260000  37.2670000  -2.3540000  25.5070000  36.4390000   1.4420000
  27.6870000  29.7180000  -1.0620000  29.1350000  37.5520000  -4.3960000
  29.6900000  30.6920000  -2.0500000  30.8280000  31.8540000   4.3130000
  26.0610000  38.2370000   2.8310000  29.7410000  39.0180000   4.2050000
  31.1090000  38.9730000  -4.4030000  30.9890000  38.2170000  -6.2930000
  30.7690000  30.9690000   3.2400000  27.3230000  29.5140000   0.2650000
  30.5730000  29.7490000  -1.5600000  30.0970000  31.4770000  -3.1310000
  27.3980000  28.7340000  -1.9980000  30.5270000  40.1650000   4.2830000
  29.8710000  31.7630000   5.3110000  32.8670000  31.9060000   6.3400000
  28.9240000  36.2700000  -4.8660000  31.6160000  40.0370000  -3.6730000
  28.1450000  38.5150000  -4.6060000  31.3280000  38.9400000  -5.7780000
  26.7690000  27.5530000  -1.6190000  27.5150000  30.1800000   0.9140000
  26.6830000  28.3480000   0.6470000  29.5000000  32.1260000  -3.4850000
  27.6330000  28.8690000  -2.9090000  31.3500000  31.3290000  -3.6960000
  29.5860000  35.6050000  -4.7190000  31.8480000  29.5840000  -2.1480000
  27.7560000  35.9350000  -5.5560000  26.0540000  31.9150000  -0.9200000
  28.8580000  30.8140000   5.2470000  29.6870000  37.0540000   4.7160000
  29.7520000  30.0370000   3.1560000  31.4320000  31.0060000   2.5610000
  33.7200000  31.9910000   7.4360000  29.9070000  32.3590000   6.0510000
  26.9900000  38.1960000  -5.2860000  28.2690000  39.3980000  -4.2780000
  31.4600000  37.7930000   5.3800000  30.2200000  40.9740000   3.8900000
  32.3440000  41.0510000  -4.2910000  31.4640000  40.0750000  -2.7360000
  32.0350000  39.9500000  -6.3960000  32.8250000  37.6970000  -2.9540000
  26.4110000  27.3570000  -0.2950000  26.5860000  26.8820000  -2.2660000
  26.3260000  38.8600000  -5.4250000  32.2170000  30.3810000  -3.1990000
  32.4460000  28.9250000  -1.8160000  29.7130000  29.4440000   2.4150000
  27.6240000  35.0510000  -5.8750000  32.5420000  41.0070000  -5.6600000
  28.2200000  30.7470000   5.9480000  28.7840000  29.9650000   4.1550000
  26.4280000  28.2230000   1.5540000  33.8030000  31.2570000   8.0330000
  32.2190000  38.9530000   5.4740000  31.6120000  31.8790000  -4.4240000
  31.7880000  36.9760000   5.7370000  26.7910000  36.9100000  -5.7690000
  32.7010000  41.7660000  -3.7780000  32.1740000  39.9210000  -7.3360000
  25.8070000  26.2270000   0.1910000  33.4370000  30.3120000  -3.8480000
  25.6200000  36.7240000  -6.4560000  27.7880000  29.0420000   3.9580000
  33.4450000  39.0350000   6.0890000  33.2240000  41.9560000  -6.3830000
  25.6020000  25.1490000  -0.7240000  34.3960000  29.4340000  -3.3200000
  33.6610000  43.0960000  -5.6720000  26.7910000  28.9350000   4.9780000
  33.9300000  37.8680000   6.7460000  25.3200000  35.4180000  -6.9250000
  25.1960000  24.3920000  -0.2520000  26.4620000  24.8730000  -1.1030000
  25.0050000  25.4410000  -1.4450000  34.0590000  28.5150000  -3.3670000
  34.5730000  29.6690000  -2.3850000  35.2250000  29.5050000  -3.8380000
  24.4550000  35.4270000  -7.3860000  34.0510000  43.7420000  -6.2970000
  32.8980000  43.5050000  -5.2120000  26.1100000  28.2870000   4.7030000
  26.3720000  29.8110000   5.1190000  27.2080000  28.6350000   5.8120000
  35.9070000  31.4880000   9.0010000  34.1130000  37.1710000   6.0810000
  34.7650000  32.0120000   9.9920000  25.2800000  34.7990000  -6.1660000
  34.3370000  42.8300000  -5.0120000  26.0180000  35.1260000  -7.5470000
  40.4620000  62.3330000   8.6740000  39.5550000  62.1390000   7.6540000
  40.7020000  61.2450000   9.5270000  36.8510000  69.1310000   4.9250000
  39.3850000  63.2210000   6.8020000  38.3630000  66.5380000   7.3780000
  39.8630000  67.0770000   7.2300000  41.3860000  61.4910000  10.1860000
  35.3260000  66.8330000   4.7600000  37.3670000  69.9250000   4.9940000
  38.5150000  63.1460000   5.7340000  39.8730000  64.0210000   6.9560000
  37.8120000  61.9650000   5.4610000  37.4940000  60.0930000   6.1880000
  38.3910000  63.9050000   5.1770000  33.5750000  68.0820000   3.5590000
  33.2020000  67.0680000   2.6570000  32.6460000  69.0390000   4.0700000
  34.2080000  66.3560000   1.9870000  38.2870000  63.1180000   2.7040000
  32.5410000  69.2410000   5.4380000  31.8720000  69.8260000   3.2160000
  33.8630000  65.2710000   1.2150000  35.1170000  66.6200000   2.0650000
  31.5300000  62.7070000  -0.0610000  39.0850000  62.8570000   3.1490000
  31.0170000  70.7840000   3.7330000  33.0550000  68.7020000   6.0280000
  31.7010000  70.2150000   5.9670000  31.9320000  69.7050000   2.2750000
  37.1980000  64.2650000   0.8970000  34.8250000  64.3250000   0.5080000
  39.2110000  64.1920000   1.2390000  30.9360000  70.9880000   5.1100000
  30.4820000  71.3060000   3.1470000  31.6540000  70.3500000   6.9060000
  36.9670000  65.0040000  -0.3460000  35.9650000  63.8390000   1.4000000
  33.8690000  63.2410000   0.0310000  35.5940000  65.0240000  -0.6140000
  30.0950000  71.9890000   5.5180000  38.3660000  63.9030000   1.5630000
  34.2080000  62.0300000  -0.5450000  35.8740000  63.0820000   2.5480000
  32.5420000  63.5900000   0.2990000  35.0770000  65.6460000  -1.7350000
  32.5330000  64.8710000   1.0280000  30.0060000  72.2450000   6.9170000
  31.8570000  61.5010000  -0.6610000  38.7720000  65.6160000  -1.0720000
  33.1920000  61.1390000  -0.8940000  35.1180000  61.8080000  -0.7010000
  37.0480000  62.7040000   3.2100000  35.0250000  62.8210000   2.8860000
  31.5280000  65.6410000   1.6050000  34.1420000  65.6430000  -1.9000000
  35.9570000  66.2800000  -2.6230000  37.8360000  65.6270000  -1.2350000
  30.8850000  72.5110000   7.2570000  29.3620000  72.9640000   7.0770000
  29.7110000  71.4330000   7.3800000  35.4290000  58.1990000  -0.8220000
  36.9520000  61.8570000   4.3480000  33.5020000  59.8820000  -1.4780000
  31.8620000  66.7200000   2.4240000  30.6210000  62.9280000   0.1020000
  35.4700000  66.9300000  -3.7720000  37.3350000  66.2600000  -2.3540000
  30.6160000  65.4320000   1.4420000  32.7950000  58.7110000  -1.0620000
  34.2430000  66.5440000  -4.3960000  34.7980000  59.6840000  -2.0500000
  35.9370000  60.8470000   4.3130000  31.1700000  67.2290000   2.8310000
  34.8490000  68.0110000   4.2050000  36.2180000  67.9650000  -4.4030000
  36.0980000  67.2090000  -6.2930000  35.8780000  59.9610000   3.2400000
  32.4310000  58.5060000   0.2650000  35.6810000  58.7410000  -1.5600000
  35.2050000  60.4690000  -3.1310000  32.5060000  57.7270000  -1.9980000
  35.6350000  69.1580000   4.2830000  34.9790000  60.7560000   5.3110000
  37.9760000  60.8980000   6.3400000  34.0330000  65.2630000  -4.8660000
  36.7240000  69.0290000  -3.6730000  33.2530000  67.5070000  -4.6060000
  36.4370000  67.9320000  -5.7780000  31.8780000  56.5460000  -1.6190000
  32.6240000  59.1720000   0.9140000  31.7910000  57.3410000   0.6470000
  34.6090000  61.1180000  -3.4850000  32.7410000  57.8620000  -2.9090000
  36.4580000  60.3210000  -3.6960000  34.6940000  64.5970000  -4.7190000
  36.9570000  58.5770000  -2.1480000  32.8640000  64.9280000  -5.5560000
  31.1630000  60.9070000  -0.9200000  33.9660000  59.8060000   5.2470000
  34.7950000  66.0460000   4.7160000  34.8610000  59.0290000   3.1560000
  36.5410000  59.9980000   2.5610000  38.8280000  60.9840000   7.4360000
  35.0160000  61.3520000   6.0510000  32.0990000  67.1880000  -5.2860000
  33.3770000  68.3900000  -4.2780000  36.5690000  66.7860000   5.3800000
  35.3290000  69.9660000   3.8900000  37.4520000  70.0430000  -4.2910000
  36.5720000  69.0680000  -2.7360000  37.1430000  68.9430000  -6.3960000
  37.9330000  66.6900000  -2.9540000  31.5190000  56.3490000  -0.2950000
  31.6940000  55.8750000  -2.2660000  31.4340000  67.8520000  -5.4250000
  37.3260000  59.3730000  -3.1990000  37.5540000  57.9170000  -1.8160000
  34.8220000  58.4360000   2.4150000  32.7320000  64.0430000  -5.8750000
  37.6510000  69.9990000  -5.6600000  33.3290000  59.7390000   5.9480000
  33.8930000  58.9580000   4.1550000  31.5360000  57.2160000   1.5540000
  38.9110000  60.2500000   8.0330000  37.3270000  67.9460000   5.4740000
  36.7200000  60.8720000  -4.4240000  36.8960000  65.9680000   5.7370000
  31.8990000  65.9020000  -5.7690000  37.8100000  70.7580000  -3.7780000
  37.2820000  68.9140000  -7.3360000  30.9160000  55.2190000   0.1910000
  38.5460000  59.3050000  -3.8480000  30.7290000  65.7160000  -6.4560000
  32.8960000  58.0340000   3.9580000  38.5540000  68.0280000   6.0890000
  38.3320000  70.9480000  -6.3830000  30.7100000  54.1410000  -0.7240000
  39.5050000  58.4260000  -3.3200000  38.7690000  72.0880000  -5.6720000
  31.8990000  57.9270000   4.9780000  39.0380000  66.8600000   6.7460000
  30.4290000  64.4100000  -6.9250000  30.3050000  53.3840000  -0.2520000
  31.5710000  53.8650000  -1.1030000  30.1140000  54.4340000  -1.4450000
  39.1670000  57.5080000  -3.3670000  39.6820000  58.6610000  -2.3850000
  40.3330000  58.4980000  -3.8380000  29.5640000  64.4190000  -7.3860000
  39.1590000  72.7340000  -6.2970000  38.0070000  72.4970000  -5.2120000
  31.2180000  57.2790000   4.7030000  31.4810000  58.8030000   5.1190000
  32.3160000  57.6270000   5.8120000  41.0160000  60.4800000   9.0010000
  39.2220000  66.1630000   6.0810000  39.8740000  61.0050000   9.9920000
  30.3890000  63.7920000  -6.1660000  39.4450000  71.8230000  -5.0120000
  31.1260000  64.1180000  -7.5470000  30.2450000   4.3480000   8.6740000
  29.3380000   4.1540000   7.6540000  30.4850000   3.2600000   9.5270000
  28.6110000   2.9990000   7.4360000  29.1680000   5.2360000   6.8020000
  28.1460000   8.5530000   7.3780000  29.6460000   9.0920000   7.2300000
  31.1690000   3.5060000  10.1860000  28.2980000   5.1610000   5.7340000
  28.6940000   2.2650000   8.0330000  27.7590000   2.9140000   6.3400000
  29.6570000   6.0360000   6.9560000  25.7200000   2.8620000   4.3130000
  28.1740000   5.9210000   5.1770000  28.8680000   4.8720000   3.1490000
  26.7350000   3.8720000   4.3480000  26.8310000   4.7190000   3.2100000
  27.5950000   3.9810000   5.4610000  25.6570000   5.0980000   2.5480000
  28.0700000   5.1330000   2.7040000  22.3240000  11.2560000   5.4380000
  26.5070000  11.0450000  -3.6730000  25.7480000   5.8540000   1.4000000
  24.9000000   8.6360000   2.0650000  28.1490000   5.9180000   1.5630000
  24.7990000   3.3670000   6.0510000  26.6340000  11.1460000   4.9250000
  22.8380000  10.7170000   6.0280000  26.3520000   8.8010000   5.3800000
  27.2770000   2.1090000   6.1880000  26.9810000   6.2800000   0.8970000
  24.6080000   6.3400000   0.5080000  28.9940000   6.2070000   1.2390000
  27.1100000   9.9610000   5.4740000  27.1500000  11.9410000   4.9940000
  27.5930000  12.7730000  -3.7780000  22.3250000   5.6060000   0.2990000
  23.6520000   5.2560000   0.0310000  23.6460000   7.2860000   1.2150000
  25.3770000   7.0390000  -0.6140000  28.3370000  10.0430000   6.0890000
  21.3130000   4.7220000  -0.0610000  23.9910000   4.0460000  -0.5450000
  23.9910000   8.3710000   1.9870000  22.3160000   6.8860000   1.0280000
  24.8600000   7.6610000  -1.7350000  26.7500000   7.0200000  -0.3460000
  19.7890000  14.2600000   6.9170000  21.6400000   3.5160000  -0.6610000
  20.4040000   4.9430000   0.1020000  22.9750000   3.1540000  -0.8940000
  24.9010000   3.8240000  -0.7010000  22.9850000   9.0830000   2.6570000
  23.9250000   7.6580000  -1.9000000  21.3110000   7.6560000   1.6050000
  24.8080000   4.8360000   2.8860000  25.7400000   8.2960000  -2.6230000
  27.6190000   7.6420000  -1.2350000  20.6680000  14.5270000   7.2570000
  19.1450000  14.9800000   7.0770000  29.2280000  13.8380000  -5.0120000
  22.4070000   1.1880000   0.9140000  23.2850000   1.8970000  -1.4780000
  23.3580000  10.0980000   3.5590000  21.6450000   8.7360000   2.4240000
  20.3990000   7.4470000   1.4420000  25.2530000   8.9450000  -3.7720000
  27.1180000   8.2750000  -2.3540000  28.5550000   7.6320000  -1.0720000
  24.0260000   8.5600000  -4.3960000  22.5780000   0.7260000  -1.0620000
  24.6320000  10.0260000   4.2050000  22.4290000  11.0540000   4.0700000
  26.3550000  11.0830000  -2.7360000  24.5810000   1.7000000  -2.0500000
  26.0010000   9.9810000  -4.4030000  27.7160000   8.7050000  -2.9540000
  24.7620000   2.7710000   5.3110000  23.8160000   7.2780000  -4.8660000
  22.2140000   0.5210000   0.2650000  25.6610000   1.9770000   3.2400000
  23.0360000   9.5230000  -4.6060000  25.4180000  11.1730000   4.2830000
  25.1090000   8.8480000   4.7600000  21.6550000  11.8420000   3.2160000
  25.4640000   0.7570000  -1.5600000  22.2890000  -0.2580000  -1.9980000
  26.2200000   9.9470000  -5.7780000  24.9880000   2.4840000  -3.1310000
  26.7400000   0.5920000  -2.1480000  24.5790000   8.0620000   4.7160000
  22.6480000   6.9430000  -5.5560000  22.5240000  -0.1230000  -2.9090000
  20.9460000   2.9220000  -0.9200000  21.6610000  -1.4390000  -1.6190000
  25.2130000   0.2140000  -0.8220000  21.5740000  -0.6440000   0.6470000
  21.8820000   9.2030000  -5.2860000  23.1600000  10.4050000  -4.2780000
  20.8000000  12.7990000   3.7330000  21.7150000  11.7200000   2.2750000
  23.7500000   1.8210000   5.2470000  25.1120000  11.9810000   3.8900000
  21.4840000  12.2310000   5.9670000  20.9530000   9.2440000   2.8310000
  24.6440000   1.0440000   3.1560000  24.3920000   3.1330000  -3.4850000
  26.2410000   2.3370000  -3.6960000  26.3240000   2.0140000   2.5610000
  26.9260000  10.9580000  -6.3960000  25.8810000   9.2250000  -6.2930000
  27.2360000  12.0580000  -4.2910000  24.4770000   6.6120000  -4.7190000
  21.6820000   7.9170000  -5.7690000  24.6050000   0.4510000   2.4150000
  22.5150000   6.0580000  -5.8750000  21.3020000  -1.6360000  -0.2950000
  21.4770000  -2.1100000  -2.2660000  21.3190000  -0.7690000   1.5540000
  21.2170000   9.8680000  -5.4250000  27.4340000  12.0140000  -5.6600000
  20.2650000  13.3210000   3.1470000  20.7190000  13.0030000   5.1100000
  23.1120000   1.7540000   5.9480000  21.4370000  12.3650000   6.9060000
  23.6760000   0.9730000   4.1550000  26.5030000   2.8870000  -4.4240000
  27.3370000  -0.0680000  -1.8160000  27.1090000   1.3880000  -3.1990000
  27.0650000  10.9290000  -7.3360000  26.6790000   7.9830000   5.7370000
  28.3290000   1.3200000  -3.8480000  20.6990000  -2.7650000   0.1910000
  20.5120000   7.7310000  -6.4560000  19.8780000  14.0040000   5.5180000
  22.6790000   0.0490000   3.9580000  28.1150000  12.9630000  -6.3830000
  20.2120000   6.4260000  -6.9250000  20.4930000  -3.8440000  -0.7240000
  29.2880000   0.4420000  -3.3200000  21.6820000  -0.0570000   4.9780000
  28.8210000   8.8750000   6.7460000  28.5520000  14.1030000  -5.6720000
  20.9100000   6.1340000  -7.5470000  19.3470000   6.4340000  -7.3860000
  20.1720000   5.8070000  -6.1660000  20.0880000  -4.6010000  -0.2520000
  21.0010000  -0.7060000   4.7030000  21.3540000  -4.1200000  -1.1030000
  28.9500000  -0.4770000  -3.3670000  29.4650000   0.6770000  -2.3850000
  30.1160000   0.5130000  -3.8380000  22.0990000  -0.3580000   5.8120000
  21.2640000   0.8180000   5.1190000  19.4940000  13.4490000   7.3800000
  19.8970000  -3.5510000  -1.4450000  29.6570000   3.0200000   9.9920000
  30.7990000   2.4960000   9.0010000  27.7900000  14.5130000  -5.2120000
  28.9420000  14.7490000  -6.2970000  29.0050000   8.1790000   6.0810000
  26.8960000  -2.7040000  16.3180000  27.5000000  -1.5750000  15.8320000
  27.8800000   0.0040000  21.1050000  34.8090000   3.0600000  23.5630000
  27.8580000  -1.3780000  14.5080000  28.2970000  -0.2970000  21.9390000
  27.1990000  -0.6440000  20.8300000  27.4620000   0.8790000  21.2460000
  31.6160000  11.2340000  20.4100000  34.8920000   2.3260000  24.1600000
  28.4120000   0.5820000  16.3920000  27.5170000  -0.7080000  17.6810000
  28.7760000   0.7870000  15.0650000  30.7760000   8.1230000  20.8430000
  31.3090000  12.0420000  20.0170000  29.5550000  10.1590000  19.6860000
  29.1720000   3.2160000  15.2330000  28.6270000  11.1160000  20.1970000
  30.1890000   8.4320000  18.1140000  27.8380000   3.5770000  15.4660000
  28.5220000  11.3180000  21.5650000  27.8530000  11.9030000  19.3430000
  29.8500000   5.3170000  16.1580000  31.0980000   8.6970000  18.1920000
  27.5110000   4.7830000  16.0660000  28.6040000   1.2490000  17.0410000
  26.9970000  12.8600000  19.8600000  27.1430000   2.9830000  15.2070000
  27.6820000  12.2920000  22.0940000  27.1510000   9.3050000  18.9580000
  28.5230000   5.6670000  16.4260000  30.8060000   6.4010000  16.6350000
  26.6010000   5.0040000  16.2290000  26.9160000  13.0640000  21.2370000
  35.8540000   6.0970000  23.0830000  26.4620000  13.3820000  19.2740000
  33.1790000   6.3410000  17.0240000  31.9460000   5.9150000  17.5270000
  31.5750000   7.1000000  15.5130000  29.8440000   7.3470000  17.3420000
  26.0760000  14.0650000  21.6450000  33.8170000   7.7030000  14.8920000
  30.1890000   4.1070000  15.5820000  31.0580000   7.7220000  14.3920000
  32.9480000   7.0810000  15.7810000  31.8540000   5.1590000  18.6750000
  28.5140000   6.9480000  17.1550000  25.9870000  14.3210000  23.0440000
  33.3150000   8.3360000  13.7730000  35.1910000   6.2680000  17.3660000
  31.9380000   8.3570000  13.5040000  31.0990000   3.8850000  15.4260000
  29.1830000   9.1440000  18.7840000  30.1220000   7.7200000  14.2270000
  27.5090000   7.7170000  17.7320000  31.0060000   4.8980000  19.0130000
  33.0290000   4.7800000  19.3370000  34.3460000   5.9790000  17.6900000
  25.3430000  15.0410000  23.2040000  26.8660000  14.5880000  23.3840000
  25.6920000  13.5100000  23.5070000  28.7220000  -0.0620000  13.2180000
  29.4820000   1.9580000  14.6490000  31.4500000   9.0060000  12.3550000
  27.8420000   8.7970000  18.5510000  26.5970000   7.5080000  17.5690000
  32.9320000   3.9330000  20.4750000  34.2680000   5.1940000  18.8310000
  34.7530000   7.6930000  15.0550000  30.2240000   8.6210000  11.7310000
  30.7790000   1.7610000  14.0770000  32.1990000  10.0420000  11.7240000
  30.8300000  10.0870000  20.3320000  27.9130000  11.7810000  18.4020000
  31.9180000   2.9230000  20.4400000  33.7930000   4.0420000  21.5880000
  29.0360000  10.7780000  22.1550000  28.4870000  -0.1970000  14.1290000
  31.3070000   8.9090000  20.8870000  31.1860000   2.5460000  12.9960000
  31.6620000   0.8180000  14.5670000  32.7050000  11.1060000  12.4540000
  32.4180000  10.0090000  10.3490000  30.0140000   7.3390000  11.2600000
  29.2340000   9.5840000  11.5210000  31.8580000   2.0380000  19.3670000
  33.9560000   2.9750000  22.4670000  30.9600000   2.8320000  21.4380000
  34.4960000   5.2220000  21.8610000  35.3660000   5.2970000  22.9290000
  30.5890000   3.1940000  12.6420000  32.5490000   8.8620000  21.5070000
  33.4750000   2.1700000  22.3150000  30.6750000   6.6730000  11.4080000
  32.9370000   0.6530000  13.9790000  31.4100000   0.2750000  15.3050000
  32.4390000   2.3980000  12.4310000  33.4330000  12.1190000  11.8360000
  33.9140000   8.7660000  13.1730000  33.1240000  11.0190000   9.7310000
  32.5530000  11.1440000  13.3910000  28.8450000   7.0040000  10.5710000
  32.0790000   9.2860000   9.8340000  28.0790000   9.2640000  10.8410000
  29.3580000  10.4660000  11.8490000  30.8420000   1.1060000  19.2830000
  35.0660000   4.9330000  19.2760000  27.7720000  -0.5830000  16.7740000
  30.9970000   3.4280000  22.1770000  32.8310000  11.2070000  21.0520000
  34.3720000   5.9820000  21.3040000  29.9470000   1.8820000  21.3740000
  32.5220000   2.0750000  18.6880000  35.5360000   4.2150000  23.7810000
  28.7130000   6.1190000  10.2520000  32.8770000   8.0450000  21.8640000
  33.3060000   1.4490000  12.9280000  33.5350000  -0.0070000  14.3110000
  27.6750000  -2.0490000  13.8610000  33.7900000  12.8350000  12.3490000
  33.6310000  12.0750000  10.4670000  33.2630000  10.9900000   8.7910000
  27.8800000   7.9780000  10.3580000  32.7010000   2.9480000  11.7030000
  27.4150000   9.9290000  10.7020000  29.8730000   1.0340000  20.2820000
  30.8030000   0.5120000  18.5420000  29.3090000   1.8150000  22.0750000
  33.3080000  10.0220000  21.6010000  27.6340000  12.4260000  23.0330000
  33.3470000  12.0020000  21.1210000  36.4430000   4.4090000  24.8010000
  34.5260000   1.3810000  12.2790000  34.3130000  13.0250000   9.7440000
  26.7100000   7.7920000   9.6710000  28.8770000   0.1100000  20.0850000
  34.5350000  10.1040000  22.2160000  36.6830000   3.3210000  25.6540000
  35.4850000   0.5030000  12.8070000  34.7500000  14.1650000  10.4550000
  26.4100000   6.4870000   9.2020000  26.6910000  -3.7830000  15.4030000
  35.0190000   8.9370000  22.8730000  35.8540000   3.0810000  26.1190000
  25.5450000   6.4960000   8.7410000  36.9960000   2.5570000  25.1280000
  35.1480000  -0.4160000  12.7600000  35.6630000   0.7380000  13.7420000
  36.3140000   0.5740000  12.2890000  35.4260000  13.8990000  11.1150000
  35.1400000  14.8100000   9.8300000  33.9880000  14.5740000  10.9150000
  26.0940000  -3.4900000  14.6820000  26.3690000   5.8680000   9.9610000
  27.1070000   6.1950000   8.5800000  26.2850000  -4.5390000  15.8750000
  37.3670000   3.5670000  26.3130000  27.5520000  -4.0590000  15.0240000
  35.2030000   8.2400000  22.2080000  35.8440000   9.1530000  23.3570000
  34.3440000   8.6140000  23.5050000  29.2640000  22.2880000   9.6710000
  30.0540000  12.9220000  15.8320000  29.2450000  10.7140000  15.4030000
  37.3630000  17.5560000  23.5630000  31.3990000  21.5000000  10.5710000
  28.0990000  20.9920000   8.7410000  29.7530000  13.8520000  20.8300000
  28.8400000   9.9570000  15.8750000  33.7400000  17.0420000  12.9960000
  30.2290000  12.4470000  13.8610000  31.0410000  14.2990000  14.1290000
  31.2670000  20.6150000  10.2520000  32.7780000  23.1170000  11.7310000
  33.3300000  22.6190000  20.8430000  29.6980000  17.4800000  15.2070000
  32.0360000  16.4540000  14.6490000  34.4920000  22.8530000  13.5040000
  33.3330000  16.2570000  14.0770000  34.4090000  19.6550000  18.6750000
  30.3970000  23.2930000  18.5510000  34.1700000  25.7300000  20.4100000
  33.5140000  17.3280000  21.4380000  32.4040000  19.8130000  16.1580000
  33.5600000  19.3940000  19.0130000  30.0630000  22.2130000  17.7320000
  31.9120000  24.9630000  11.8490000  37.9200000  19.7930000  22.9290000
  33.8640000  26.5390000  20.0170000  32.5010000  16.3790000  21.3740000
  36.0290000  16.6660000  22.3150000  31.0770000  20.1630000  16.4260000
  33.3600000  20.8970000  16.6350000  29.1560000  19.5000000  16.2290000
  38.0900000  18.7110000  23.7810000  37.4460000  16.8220000  24.1600000
  31.8640000  16.3120000  22.0750000  35.5020000  21.5770000  15.7810000
  34.1290000  21.5960000  15.5130000  34.5000000  20.4110000  17.5270000
  32.3980000  21.8430000  17.3420000  29.4510000  11.7920000  16.3180000
  36.3710000  22.1990000  14.8920000  33.6120000  22.2180000  14.3920000
  32.7430000  22.9290000  18.1140000  31.0680000  21.4440000  17.1550000
  32.7430000  18.6030000  15.5820000  35.7330000  20.8370000  17.0240000
  30.4340000  14.5000000  21.1050000  35.8700000  22.8320000  13.7730000
  29.1510000  22.0040000  17.5690000  35.5830000  19.2770000  19.3370000
  33.6520000  23.1930000  18.1920000  31.7370000  23.6410000  18.7840000
  32.6770000  22.2160000  14.2270000  36.9010000  20.4760000  17.6900000
  33.6530000  18.3810000  15.4260000  31.7260000  17.7120000  15.2330000
  30.0650000  19.2790000  16.0660000  30.8510000  14.2000000  21.9390000
  28.2460000  28.0060000  23.5070000  30.0160000  15.3750000  21.2460000
  34.6330000  23.7820000   9.8340000  34.0050000  23.5030000  12.3550000
  32.1100000  24.6550000  19.6860000  36.8220000  19.6900000  18.8310000
  37.3070000  22.1890000  15.0550000  35.4870000  18.4290000  20.4750000
  30.3920000  18.0740000  15.4660000  37.7460000  20.7640000  17.3660000
  33.3840000  24.5830000  20.3320000  34.7530000  24.5380000  11.7240000
  36.3470000  18.5380000  21.5880000  31.1810000  25.6120000  20.1970000
  33.5510000  17.9240000  22.1770000  31.3300000  15.2830000  15.0650000
  34.4720000  17.4190000  20.4400000  37.6200000  19.4300000  19.2760000
  31.7880000  24.0800000  11.5210000  35.2590000  25.6020000  12.4540000
  32.5680000  21.8350000  11.2600000  34.9720000  24.5050000  10.3490000
  37.0500000  19.7190000  21.8610000  31.0760000  25.8140000  21.5650000
  33.8610000  23.4050000  20.8870000  30.4070000  26.3990000  19.3430000
  34.2160000  15.3140000  14.5670000  30.9660000  15.0790000  16.3920000
  34.4130000  16.5340000  19.3670000  36.5110000  17.4710000  22.4670000
  35.9870000  26.6160000  11.8360000  35.1070000  25.6400000  13.3910000
  35.4920000  15.1490000  13.9790000  35.0760000  16.5710000  18.6880000
  36.4680000  23.2620000  13.1730000  35.6780000  25.5150000   9.7310000
  33.1440000  17.6910000  12.6420000  30.6340000  23.7610000  10.8410000
  35.1040000  23.3580000  21.5070000  36.9260000  20.4780000  21.3040000
  35.3860000  25.7030000  21.0520000  31.5900000  25.2740000  22.1550000
  29.5520000  27.3570000  19.8600000  30.4670000  26.2770000  18.4020000
  30.2360000  26.7880000  22.0940000  29.7050000  23.8020000  18.9580000
  34.9930000  16.8940000  12.4310000  33.2290000  21.1700000  11.4080000
  30.4130000  13.1180000  14.5080000  31.2760000  14.4340000  13.2180000
  30.3260000  13.9130000  16.7740000  31.1590000  15.7450000  17.0410000
  33.3960000  15.6020000  19.2830000  33.9640000  14.7710000  15.3050000
  36.1860000  26.5710000  10.4670000  36.3450000  27.3310000  12.3490000
  38.4080000  20.5940000  23.0830000  35.8610000  15.9460000  12.9280000
  35.8170000  25.4860000   8.7910000  29.9690000  24.4250000  10.7020000
  35.4310000  22.5410000  21.8640000  35.8620000  24.5180000  21.6010000
  35.9020000  26.4980000  21.1210000  29.4710000  27.5600000  21.2370000
  29.0170000  27.8780000  19.2740000  30.1890000  26.9220000  23.0330000
  30.4340000  22.4750000  10.3580000  35.2550000  17.4440000  11.7030000
  36.0890000  14.4900000  14.3110000  32.4280000  15.5300000  20.2820000
  30.0710000  13.7880000  17.6810000  33.3570000  15.0080000  18.5420000
  38.9970000  18.9050000  24.8010000  36.8670000  27.5210000   9.7440000
  37.0890000  24.6000000  22.2160000  28.6300000  28.5610000  21.6450000
  37.0810000  15.8770000  12.2790000  31.4310000  14.6070000  20.0850000
  37.5730000  23.4330000  22.8730000  37.3040000  28.6610000  10.4550000
  39.2370000  17.8180000  25.6540000  28.5410000  28.8170000  23.0440000
  28.9640000  20.9830000   9.2020000  38.0400000  14.9990000  12.8070000
  39.9210000  18.0630000  26.3130000  36.8980000  23.1110000  23.5050000
  37.7570000  22.7360000  22.2080000  37.6940000  29.3070000   9.8300000
  37.9800000  28.3950000  11.1150000  38.8680000  15.0700000  12.2890000
  38.3980000  23.6490000  23.3570000  28.6490000  11.0060000  14.6820000
  29.4200000  29.0840000  23.3840000  36.5420000  29.0700000  10.9150000
  30.1060000  10.4380000  15.0240000  27.8970000  29.5370000  23.2040000
  28.9240000  20.3640000   9.9610000  38.2170000  15.2340000  13.7420000
  29.6610000  20.6910000   8.5800000  39.5510000  17.0530000  25.1280000
  38.4090000  17.5770000  26.1190000  37.7020000  14.0800000  12.7600000
  33.0940000  -2.6430000  32.4450000  33.6980000  -1.5130000  31.9590000
  34.0780000   0.0650000  37.2320000  41.0070000   3.1210000  39.6900000
  34.0560000  -1.3170000  30.6350000  34.4950000  -0.2350000  38.0660000
  33.3970000  -0.5830000  36.9570000  33.6590000   0.9400000  37.3730000
  37.8140000  11.2950000  36.5370000  41.0900000   2.3870000  40.2870000
  34.6100000   0.6440000  32.5190000  33.7150000  -0.6470000  33.8080000
  34.9740000   0.8480000  31.1920000  36.9740000   8.1840000  36.9700000
  37.5070000  12.1030000  36.1440000  35.7530000  10.2200000  35.8130000
  35.3700000   3.2770000  31.3600000  34.8240000  11.1770000  36.3240000
  36.3870000   8.4940000  34.2410000  34.0360000   3.6390000  31.5930000
  34.7190000  11.3790000  37.6920000  34.0500000  11.9640000  35.4700000
  36.0480000   5.3780000  32.2850000  37.2960000   8.7580000  34.3190000
  33.7080000   4.8440000  32.1930000  34.8020000   1.3100000  33.1680000
  33.1950000  12.9210000  35.9870000  33.3410000   3.0450000  31.3340000
  33.8800000  12.3530000  38.2210000  33.3480000   9.3670000  35.0850000
  34.7210000   5.7280000  32.5530000  37.0040000   6.4620000  32.7620000
  32.7990000   5.0650000  32.3560000  33.1140000  13.1250000  37.3640000
  42.0520000   6.1580000  39.2100000  32.6600000  13.4430000  35.4000000
  39.3770000   6.4020000  33.1510000  38.1430000   5.9760000  33.6540000
  37.7720000   7.1610000  31.6400000  36.0420000   7.4080000  33.4690000
  32.2730000  14.1260000  37.7720000  40.0150000   7.7640000  31.0190000
  36.3870000   4.1680000  31.7090000  37.2560000   7.7830000  30.5190000
  39.1460000   7.1420000  31.9080000  38.0520000   5.2200000  34.8020000
  34.7120000   7.0090000  33.2820000  32.1850000  14.3820000  39.1710000
  39.5130000   8.3970000  29.9000000  41.3890000   6.3290000  33.4930000
  38.1360000   8.4180000  29.6310000  37.2970000   3.9460000  31.5530000
  35.3800000   9.2060000  34.9110000  36.3200000   7.7810000  30.3540000
  33.7070000   7.7780000  33.8590000  37.2040000   4.9590000  35.1400000
  39.2260000   4.8420000  35.4640000  40.5440000   6.0400000  33.8170000
  31.5400000  15.1020000  39.3310000  33.0630000  14.6490000  39.5110000
  31.8890000  13.5710000  39.6340000  34.9200000  -0.0010000  29.3450000
  35.6800000   2.0190000  30.7760000  37.6480000   9.0670000  28.4820000
  34.0400000   8.8580000  34.6780000  32.7940000   7.5690000  33.6960000
  39.1300000   3.9940000  36.6020000  40.4660000   5.2550000  34.9580000
  40.9510000   7.7540000  31.1820000  36.4220000   8.6820000  27.8580000
  36.9770000   1.8220000  30.2040000  38.3960000  10.1030000  27.8510000
  37.0280000  10.1480000  36.4590000  34.1110000  11.8420000  34.5290000
  38.1150000   2.9840000  36.5670000  39.9900000   4.1030000  37.7150000
  35.2330000  10.8390000  38.2820000  34.6850000  -0.1360000  30.2550000
  37.5050000   8.9700000  37.0140000  37.3840000   2.6070000  29.1230000
  37.8600000   0.8790000  30.6940000  38.9030000  11.1670000  28.5810000
  38.6150000  10.0700000  26.4760000  36.2110000   7.4000000  27.3870000
  35.4320000   9.6450000  27.6480000  38.0560000   2.0990000  35.4940000
  40.1540000   3.0360000  38.5940000  37.1580000   2.8930000  37.5650000
  40.6940000   5.2830000  37.9880000  41.5640000   5.3580000  39.0560000
  36.7870000   3.2550000  28.7690000  38.7470000   8.9230000  37.6340000
  39.6730000   2.2310000  38.4420000  36.8730000   6.7350000  27.5350000
  39.1350000   0.7140000  30.1060000  37.6080000   0.3360000  31.4320000
  38.6360000   2.4590000  28.5580000  39.6310000  12.1810000  27.9630000
  40.1120000   8.8270000  29.3000000  39.3220000  11.0800000  25.8580000
  38.7510000  11.2050000  29.5180000  35.0430000   7.0650000  26.6980000
  38.2760000   9.3470000  25.9610000  34.2770000   9.3260000  26.9680000
  35.5560000  10.5280000  27.9760000  37.0390000   1.1670000  35.4100000
  41.2640000   4.9940000  35.4030000  33.9700000  -0.5220000  32.9010000
  37.1940000   3.4890000  38.3040000  39.0290000  11.2680000  37.1790000
  40.5690000   6.0430000  37.4310000  36.1450000   1.9430000  37.5010000
  38.7190000   2.1360000  34.8150000  41.7330000   4.2760000  39.9080000
  34.9110000   6.1800000  26.3790000  39.0750000   8.1060000  37.9900000
  39.5040000   1.5100000  29.0550000  39.7330000   0.0550000  30.4380000
  33.8730000  -1.9880000  29.9880000  39.9880000  12.8960000  28.4760000
  39.8290000  12.1360000  26.5940000  39.4610000  11.0510000  24.9180000
  34.0780000   8.0400000  26.4850000  38.8990000   3.0090000  27.8300000
  33.6130000   9.9900000  26.8290000  36.0710000   1.0950000  36.4090000
  37.0000000   0.5730000  34.6690000  35.5070000   1.8770000  38.2020000
  39.5060000  10.0830000  37.7280000  33.8320000  12.4870000  39.1600000
  39.5450000  12.0630000  37.2480000  42.6410000   4.4700000  40.9280000
  40.7240000   1.4420000  28.4060000  40.5110000  13.0860000  25.8710000
  32.9070000   7.8530000  25.7980000  35.0750000   0.1710000  36.2120000
  40.7320000  10.1650000  38.3430000  42.8810000   3.3820000  41.7810000
  41.6830000   0.5640000  28.9340000  40.9480000  14.2260000  26.5820000
  32.6070000   6.5480000  25.3290000  32.8880000  -3.7220000  31.5300000
  41.2170000   8.9980000  39.0000000  42.0520000   3.1420000  42.2460000
  31.7420000   6.5570000  24.8680000  43.1940000   2.6180000  41.2550000
  41.3460000  -0.3550000  28.8870000  41.8600000   0.7990000  29.8690000
  42.5120000   0.6350000  28.4160000  41.6240000  13.9600000  27.2420000
  41.3380000  14.8710000  25.9570000  40.1850000  14.6350000  27.0420000
  32.2920000  -3.4290000  30.8090000  32.5670000   5.9290000  26.0880000
  33.3050000   6.2560000  24.7070000  32.4830000  -4.4780000  32.0020000
  43.5640000   3.6280000  42.4400000  33.7490000  -3.9970000  31.1510000
  41.4000000   8.3010000  38.3350000  42.0420000   9.2140000  39.4840000
  40.5420000   8.6750000  39.6320000  36.3310000  13.1810000  19.9300000
  37.0120000  14.1300000  19.2070000  35.8930000  12.0410000  19.2180000
  37.5200000  15.1860000  19.9430000  37.2100000  14.0860000  17.8380000
  35.2170000  12.3070000  18.5590000  36.6560000  11.6320000  18.7590000
  35.5030000  11.3950000  19.8440000  38.2260000  16.1970000  19.3250000
  37.3800000  15.2160000  20.8820000  37.9380000  15.1000000  17.2190000
  36.8530000  13.3710000  17.3250000  38.4450000  16.1640000  17.9490000
  38.5650000  16.9200000  19.8400000  38.0900000  15.0620000  16.2820000
  39.1930000  17.1990000  17.3180000  38.7060000  17.8490000  16.1700000
  40.4190000  17.5850000  17.9420000  39.5860000  18.4840000  15.2810000
  37.3280000  17.8690000  15.9010000  40.6300000  18.8670000  18.4130000
  41.4090000  16.6220000  18.1530000  39.0690000  19.1050000  14.1610000
  40.5210000  18.4860000  15.4470000  36.8270000  18.5030000  14.7820000
  36.7300000  17.4390000  16.5000000  41.7980000  19.2010000  19.1020000
  39.9680000  19.5320000  18.2660000  42.5640000  16.9410000  18.8320000
  41.2850000  15.7390000  17.8240000  37.6950000  19.1250000  13.8930000
  39.8380000  19.8050000  13.0380000  35.8910000  18.5130000  14.6190000
  42.7630000  18.2270000  19.3150000  41.9310000  20.0860000  19.4220000
  43.2290000  16.2770000  18.9720000  37.4640000  19.8650000  12.6500000
  38.6980000  20.2910000  12.1470000  40.7930000  20.8880000  13.5150000
  40.7990000  18.8580000  12.3320000  43.9340000  18.4130000  20.0030000
  36.2970000  20.2260000  11.9830000  38.7890000  21.0470000  10.9980000
  40.4550000  22.0990000  14.0910000  42.1200000  20.5390000  13.2470000
  40.4540000  17.7730000  11.5600000  42.1290000  19.2580000  12.5190000
  44.2340000  19.7190000  20.4720000  36.3750000  21.0110000  10.8430000
  35.4520000  19.9370000  12.3080000  37.6150000  21.4250000  10.3370000
  39.6380000  21.3080000  10.6600000  41.4710000  22.9900000  14.4400000
  39.5440000  22.3210000  14.2480000  43.1330000  21.4230000  13.6080000
  39.5450000  17.5090000  11.4810000  41.4610000  17.0610000  10.8890000
  43.1350000  18.4880000  11.9410000  44.2740000  20.3380000  19.7120000
  43.5360000  20.0110000  21.0940000  45.0990000  19.7100000  20.9330000
  35.5780000  21.2720000  10.3980000  37.7110000  22.2730000   9.1980000
  41.1610000  24.2470000  15.0240000  42.8050000  22.6280000  14.2080000
  44.0420000  21.2010000  13.4440000  41.0880000  16.0470000   9.9880000
  42.8010000  17.4090000  11.1220000  44.0470000  18.6980000  12.1040000
  38.7260000  23.2830000   9.2340000  36.8510000  22.1640000   8.0860000
  41.8670000  25.4190000  14.6080000  39.8640000  24.4450000  15.5960000
  43.5000000  23.2220000  14.4670000  39.8130000  16.1190000   9.3420000
  42.0170000  15.0900000   9.4760000  43.4930000  16.9000000  10.7160000
  38.7850000  24.1680000  10.3070000  39.6830000  23.3730000   8.2350000
  36.6870000  23.2310000   7.2070000  36.1470000  20.9830000   7.8120000
  42.2310000  25.6230000  13.2820000  42.1560000  26.4030000  15.5450000
  38.9810000  25.3880000  15.1070000  39.4570000  23.6600000  16.6770000
  39.3360000  17.2970000   8.7860000  39.0270000  14.9720000   9.2630000
  42.7910000  14.3030000  10.3310000  42.1220000  14.8880000   8.1080000
  39.8020000  25.1000000  10.3910000  38.1220000  24.1310000  10.9860000
  40.6960000  24.3230000   8.2990000  39.6470000  22.7780000   7.4960000
  37.1690000  24.0360000   7.3590000  35.8340000  23.1460000   6.1110000
  36.2720000  20.2240000   8.3690000  35.2770000  20.9090000   6.7450000
  42.8720000  26.7890000  12.8990000  42.0390000  24.9570000  12.6330000
  42.7850000  27.5840000  15.1660000  41.9220000  26.2670000  16.4560000
  37.7060000  25.5520000  15.6950000  39.2330000  25.9300000  14.3690000
  38.2050000  23.8080000  17.2430000  40.0540000  23.0110000  17.0320000
  38.0940000  17.3440000   8.1670000  39.8670000  18.0830000   8.8300000
  37.8120000  14.9980000   8.6210000  39.3340000  14.1630000   9.6570000
  43.6460000  13.3450000   9.8140000  42.7300000  14.4250000  11.2710000
  42.9610000  13.9140000   7.5800000  41.6080000  15.4280000   7.5190000
  40.7700000  25.1720000   9.3920000  39.8410000  25.6930000  11.1320000
  41.3340000  24.3900000   7.5980000  35.1080000  21.9910000   5.8930000
  35.7520000  23.8800000   5.5140000  34.7890000  20.1080000   6.5910000
  43.1260000  26.9140000  11.9930000  43.1440000  27.7800000  13.8410000
  42.9680000  28.2540000  15.8130000  37.3370000  24.7560000  16.7450000
  37.1080000  26.2120000  15.3630000  37.9430000  23.2570000  17.9710000
  37.3350000  16.1830000   8.0730000  37.7660000  18.1610000   7.8100000
  37.2960000  14.2040000   8.5530000  43.7270000  13.1420000   8.4360000
  44.1810000  12.8240000  10.4000000  43.0090000  13.7800000   6.6400000
  41.7660000  26.0950000   9.5880000  34.2000000  21.7970000   4.8720000
  43.7470000  28.9100000  13.3560000  36.1170000  24.8250000  17.3950000
  36.1090000  16.1020000   7.4580000  44.5680000  12.1410000   8.0290000
  42.7630000  26.2020000   8.5680000  33.9600000  22.8840000   4.0190000
  43.9530000  29.9880000  14.2710000  35.1580000  25.7030000  16.8660000
  35.6240000  17.2690000   6.8010000  44.6560000  11.8850000   6.6290000
  42.3460000  26.5020000   7.7340000  43.4450000  26.8500000   8.8440000
  43.1820000  25.3260000   8.4280000  33.2770000  22.6380000   3.3610000
  33.6470000  23.6490000   4.5460000  34.7890000  23.1250000   3.5540000
  44.3580000  30.7450000  13.7990000  43.0920000  30.2640000  14.6500000
  44.5490000  29.6960000  14.9920000  34.9810000  25.4680000  15.9320000
  34.3300000  25.6310000  17.3850000  35.4950000  26.6220000  16.9140000
  35.4410000  17.9660000   7.4650000  36.3000000  17.5910000   6.1690000
  34.8000000  17.0530000   6.3170000  44.9520000  12.6960000   6.1670000
  45.3010000  11.1650000   6.4690000  43.7780000  11.6180000   6.2900000
  41.4390000  42.1740000  19.9300000  42.1210000  43.1230000  19.2070000
  41.0020000  41.0330000  19.2180000  42.6280000  44.1790000  19.9430000
  42.3190000  43.0790000  17.8380000  40.3260000  41.2990000  18.5590000
  40.6120000  40.3880000  19.8440000  41.7640000  40.6240000  18.7590000
  43.3340000  45.1890000  19.3250000  42.4890000  44.2080000  20.8820000
  43.0470000  44.0920000  17.2190000  41.9610000  42.3630000  17.3250000
  43.5530000  45.1560000  17.9490000  43.6730000  45.9120000  19.8400000
  43.1990000  44.0540000  16.2820000  44.3010000  46.1920000  17.3180000
  43.8140000  46.8410000  16.1700000  45.5280000  46.5770000  17.9420000
  44.6940000  47.4760000  15.2810000  42.4370000  46.8620000  15.9010000
  45.7380000  47.8590000  18.4130000  46.5180000  45.6140000  18.1530000
  44.1770000  48.0980000  14.1610000  45.6290000  47.4780000  15.4470000
  41.9350000  47.4950000  14.7820000  41.8380000  46.4320000  16.5000000
  47.6720000  45.9340000  18.8320000  45.0770000  48.5250000  18.2660000
  46.9070000  48.1940000  19.1020000  46.3940000  44.7320000  17.8240000
  42.8040000  48.1170000  13.8930000  44.9460000  48.7970000  13.0380000
  40.9990000  47.5050000  14.6190000  47.8720000  47.2200000  19.3150000
  47.0390000  49.0790000  19.4220000  48.3370000  45.2690000  18.9720000
  42.5730000  48.8570000  12.6500000  43.8060000  49.2830000  12.1470000
  45.9020000  49.8810000  13.5150000  45.9080000  47.8510000  12.3320000
  49.0420000  47.4060000  20.0030000  41.4060000  49.2190000  11.9830000
  43.8980000  50.0390000  10.9980000  45.5630000  51.0910000  14.0910000
  47.2290000  49.5310000  13.2470000  45.5630000  46.7660000  11.5600000
  47.2380000  48.2500000  12.5190000  49.3420000  48.7110000  20.4720000
  41.4840000  50.0040000  10.8430000  40.5610000  48.9300000  12.3080000
  42.7230000  50.4180000  10.3370000  44.7460000  50.3000000  10.6600000
  46.5800000  51.9820000  14.4400000  44.6530000  51.3130000  14.2480000
  48.2410000  50.4150000  13.6080000  44.6540000  46.5010000  11.4810000
  46.5690000  46.0540000  10.8890000  48.2430000  47.4810000  11.9410000
  48.6450000  49.0030000  21.0940000  49.3830000  49.3300000  19.7120000
  50.2070000  48.7020000  20.9330000  47.8390000  43.4170000  11.2710000
  42.8200000  51.2650000   9.1980000  46.2700000  53.2400000  15.0240000
  47.9140000  51.6210000  14.2080000  49.1510000  50.1940000  13.4440000
  46.1970000  45.0390000   9.9880000  47.9100000  46.4010000  11.1220000
  49.1550000  47.6900000  12.1040000  43.8340000  52.2750000   9.2340000
  41.9590000  51.1560000   8.0860000  46.9760000  54.4110000  14.6080000
  44.9730000  53.4370000  15.5960000  48.6090000  52.2150000  14.4670000
  44.9220000  45.1110000   9.3420000  47.1250000  44.0820000   9.4760000
  48.6010000  45.8930000  10.7160000  43.8940000  53.1600000  10.3070000
  44.7920000  52.3660000   8.2350000  41.7960000  52.2230000   7.2070000
  41.2560000  49.9760000   7.8120000  47.3400000  54.6160000  13.2820000
  47.2650000  55.3950000  15.5450000  44.0900000  54.3800000  15.1070000
  44.5660000  52.6530000  16.6770000  44.4450000  46.2890000   8.7860000
  44.1360000  43.9640000   9.2630000  47.8990000  43.2950000  10.3310000
  47.2300000  43.8800000   8.1080000  44.9100000  54.0920000  10.3910000
  43.2300000  53.1230000  10.9860000  45.8050000  53.3160000   8.2990000
  44.7550000  51.7700000   7.4960000  42.2770000  53.0280000   7.3590000
  40.9430000  52.1380000   6.1110000  40.6860000  50.2650000  10.3980000
  40.3860000  49.9010000   6.7450000  47.9800000  55.7810000  12.8990000
  47.1470000  53.9490000  12.6330000  47.8930000  56.5760000  15.1660000
  47.0300000  55.2600000  16.4560000  43.3130000  52.8000000  17.2430000
  44.3420000  54.9230000  14.3690000  42.8150000  54.5450000  15.6950000
  45.1620000  52.0040000  17.0320000  43.2030000  46.3360000   8.1670000
  41.3800000  49.2160000   8.3690000  42.9210000  43.9910000   8.6210000
  44.4430000  43.1560000   9.6570000  48.0700000  42.9060000   7.5800000
  46.7160000  44.4200000   7.5190000  48.7540000  42.3380000   9.8140000
  44.9760000  47.0750000   8.8300000  45.8780000  54.1640000   9.3920000
  44.9490000  54.6860000  11.1320000  46.4420000  53.3830000   7.5980000
  40.2160000  50.9830000   5.8930000  40.8600000  52.8720000   5.5140000
  39.8980000  49.1010000   6.5910000  48.2350000  55.9060000  11.9930000
  48.2520000  56.7730000  13.8410000  48.0770000  57.2470000  15.8130000
  42.4460000  53.7490000  16.7450000  42.2170000  55.2050000  15.3630000
  43.0510000  52.2500000  17.9710000  42.4440000  45.1760000   8.0730000
  42.8750000  47.1530000   7.8100000  42.4050000  43.1960000   8.5530000
  48.8350000  42.1340000   8.4360000  49.2890000  41.8160000  10.4000000
  48.1180000  42.7720000   6.6400000  46.8750000  55.0880000   9.5880000
  39.3090000  50.7890000   4.8720000  48.8550000  57.9020000  13.3560000
  41.2260000  53.8170000  17.3950000  41.2170000  45.0940000   7.4580000
  49.6760000  41.1330000   8.0290000  47.8720000  55.1940000   8.5680000
  39.0690000  51.8770000   4.0190000  49.0610000  58.9810000  14.2710000
  40.2670000  54.6950000  16.8660000  40.7330000  46.2610000   6.8010000
  49.7650000  40.8770000   6.6290000  47.4550000  55.4950000   7.7340000
  48.5530000  55.8420000   8.8440000  48.2900000  54.3190000   8.4280000
  38.7560000  52.6410000   4.5460000  39.8980000  52.1170000   3.5540000
  38.3850000  51.6310000   3.3610000  49.4670000  59.7370000  13.7990000
  48.2000000  59.2570000  14.6500000  49.6580000  58.6880000  14.9920000
  40.0890000  54.4600000  15.9320000  39.4380000  54.6240000  17.3850000
  40.6040000  55.6140000  16.9140000  39.9080000  46.0450000   6.3170000
  40.5490000  46.9580000   7.4650000  41.4080000  46.5840000   6.1690000
  50.4090000  40.1570000   6.4690000  50.0600000  41.6880000   6.1670000
  48.8860000  40.6100000   6.2900000  38.8850000  27.6770000  19.9300000
  39.5660000  28.6270000  19.2070000  38.4480000  26.5370000  19.2180000
  40.0740000  29.6830000  19.9430000  39.7640000  28.5820000  17.8380000
  37.7720000  26.8030000  18.5590000  38.0580000  25.8910000  19.8440000
  39.2100000  26.1280000  18.7590000  40.7800000  30.6930000  19.3250000
  39.9350000  29.7120000  20.8820000  40.4930000  29.5960000  17.2190000
  39.4070000  27.8670000  17.3250000  40.9990000  30.6600000  17.9490000
  41.1190000  31.4160000  19.8400000  40.6450000  29.5580000  16.2820000
  41.7470000  31.6950000  17.3180000  41.2600000  32.3450000  16.1700000
  42.9730000  32.0810000  17.9420000  42.1400000  32.9800000  15.2810000
  39.8820000  32.3660000  15.9010000  43.1840000  33.3630000  18.4130000
  43.9640000  31.1180000  18.1530000  41.6230000  33.6020000  14.1610000
  43.0750000  32.9820000  15.4470000  39.3810000  32.9990000  14.7820000
  39.2840000  31.9360000  16.5000000  45.1180000  31.4370000  18.8320000
  42.5220000  34.0280000  18.2660000  44.3520000  33.6980000  19.1020000
  43.8390000  30.2350000  17.8240000  40.2500000  33.6210000  13.8930000
  42.3920000  34.3010000  13.0380000  38.4450000  33.0090000  14.6190000
  45.3180000  32.7230000  19.3150000  44.4850000  34.5830000  19.4220000
  45.7830000  30.7730000  18.9720000  40.0190000  34.3610000  12.6500000
  41.2520000  34.7870000  12.1470000  43.3480000  35.3850000  13.5150000
  43.3530000  33.3550000  12.3320000  46.4880000  32.9100000  20.0030000
  38.8510000  34.7220000  11.9830000  41.3430000  35.5430000  10.9980000
  43.0090000  36.5950000  14.0910000  44.6750000  35.0350000  13.2470000
  43.0090000  32.2690000  11.5600000  44.6840000  33.7540000  12.5190000
  46.7880000  34.2150000  20.4720000  38.9300000  35.5080000  10.8430000
  38.0060000  34.4340000  12.3080000  40.1690000  35.9210000  10.3370000
  42.1920000  35.8040000  10.6600000  44.0250000  37.4860000  14.4400000
  42.0980000  36.8170000  14.2480000  45.6870000  35.9190000  13.6080000
  42.1000000  32.0050000  11.4810000  44.0150000  31.5570000  10.8890000
  45.6890000  32.9850000  11.9410000  46.0900000  34.5070000  21.0940000
  46.8280000  34.8340000  19.7120000  47.6530000  34.2060000  20.9330000
  45.2850000  28.9210000  11.2710000  40.2650000  36.7690000   9.1980000
  43.7150000  38.7440000  15.0240000  45.3600000  37.1240000  14.2080000
  46.5960000  35.6980000  13.4440000  43.6420000  30.5430000   9.9880000
  45.3550000  31.9050000  11.1220000  46.6010000  33.1940000  12.1040000
  41.2800000  37.7790000   9.2340000  39.4050000  36.6600000   8.0860000
  44.4220000  39.9150000  14.6080000  42.4190000  38.9410000  15.5960000
  46.0540000  37.7180000  14.4670000  42.3680000  30.6150000   9.3420000
  44.5710000  29.5860000   9.4760000  46.0470000  31.3960000  10.7160000
  41.3390000  38.6640000  10.3070000  42.2380000  37.8700000   8.2350000
  39.2410000  37.7270000   7.2070000  38.7020000  35.4790000   7.8120000
  44.7860000  40.1190000  13.2820000  44.7100000  40.8990000  15.5450000
  41.5360000  39.8840000  15.1070000  42.0120000  38.1560000  16.6770000
  41.8910000  31.7930000   8.7860000  41.5820000  29.4680000   9.2630000
  45.3450000  28.7990000  10.3310000  44.6760000  29.3840000   8.1080000
  42.3560000  39.5960000  10.3910000  40.6760000  38.6270000  10.9860000
  43.2500000  38.8190000   8.2990000  42.2010000  37.2740000   7.4960000
  39.7230000  38.5320000   7.3590000  38.3890000  37.6420000   6.1110000
  38.1320000  35.7680000  10.3980000  37.8320000  35.4050000   6.7450000
  45.4260000  41.2850000  12.8990000  44.5930000  39.4530000  12.6330000
  45.3390000  42.0800000  15.1660000  44.4760000  40.7640000  16.4560000
  40.7590000  38.3040000  17.2430000  41.7870000  40.4270000  14.3690000
  40.2600000  40.0490000  15.6950000  42.6080000  37.5080000  17.0320000
  40.6480000  31.8400000   8.1670000  38.8260000  34.7200000   8.3690000
  40.3660000  29.4950000   8.6210000  41.8880000  28.6590000   9.6570000
  45.5160000  28.4100000   7.5800000  44.1620000  29.9240000   7.5190000
  46.2000000  27.8410000   9.8140000  42.4210000  32.5790000   8.8300000
  43.3240000  39.6680000   9.3920000  42.3950000  40.1900000  11.1320000
  43.8880000  38.8860000   7.5980000  37.6620000  36.4870000   5.8930000
  38.3060000  38.3760000   5.5140000  37.3430000  34.6040000   6.5910000
  45.6810000  41.4100000  11.9930000  45.6980000  42.2760000  13.8410000
  45.5220000  42.7510000  15.8130000  39.8910000  39.2520000  16.7450000
  39.6630000  40.7080000  15.3630000  40.4970000  37.7540000  17.9710000
  39.8900000  30.6800000   8.0730000  40.3210000  32.6570000   7.8100000
  39.8500000  28.7000000   8.5530000  46.2810000  27.6380000   8.4360000
  46.7350000  27.3200000  10.4000000  45.5630000  28.2760000   6.6400000
  44.3210000  40.5910000   9.5880000  36.7540000  36.2930000   4.8720000
  46.3010000  43.4060000  13.3560000  38.6710000  39.3210000  17.3950000
  38.6630000  30.5980000   7.4580000  47.1220000  26.6370000   8.0290000
  45.3180000  40.6980000   8.5680000  36.5150000  37.3800000   4.0190000
  46.5070000  44.4840000  14.2710000  37.7120000  40.1990000  16.8660000
  38.1790000  31.7650000   6.8010000  47.2110000  26.3810000   6.6290000
  44.9010000  40.9980000   7.7340000  45.9990000  41.3460000   8.8440000
  45.7360000  39.8230000   8.4280000  36.2010000  38.1450000   4.5460000
  37.3430000  37.6210000   3.5540000  35.8310000  37.1350000   3.3610000
  46.9120000  45.2410000  13.7990000  45.6460000  44.7600000  14.6500000
  47.1030000  44.1920000  14.9920000  37.5350000  39.9640000  15.9320000
  36.8840000  40.1280000  17.3850000  38.0500000  41.1180000  16.9140000
  37.3540000  31.5490000   6.3170000  37.9950000  32.4620000   7.4650000
  38.8540000  32.0880000   6.1690000  47.8550000  25.6610000   6.4690000
  47.5060000  27.1920000   6.1670000  46.3320000  26.1140000   6.2900000
  43.9930000  56.6700000  19.9300000  44.6750000  57.6190000  19.2070000
  43.5560000  55.5300000  19.2180000  45.1820000  58.6750000  19.9430000
  44.8730000  57.5750000  17.8380000  42.8800000  55.7950000  18.5590000
  43.1660000  54.8840000  19.8440000  44.3190000  55.1200000  18.7590000
  45.8880000  59.6860000  19.3250000  45.0430000  58.7040000  20.8820000
  45.6010000  58.5880000  17.2190000  44.5160000  56.8600000  17.3250000
  46.1070000  59.6520000  17.9490000  46.2270000  60.4080000  19.8400000
  45.7530000  58.5500000  16.2820000  46.8560000  60.6880000  17.3180000
  46.3680000  61.3380000  16.1700000  48.0820000  61.0730000  17.9420000
  47.2480000  61.9720000  15.2810000  44.9910000  61.3580000  15.9010000
  48.2930000  62.3550000  18.4130000  49.0720000  60.1100000  18.1530000
  46.7320000  62.5940000  14.1610000  48.1840000  61.9750000  15.4470000
  44.4890000  61.9910000  14.7820000  44.3920000  60.9280000  16.5000000
  50.2270000  60.4300000  18.8320000  47.6310000  63.0210000  18.2660000
  49.4610000  62.6900000  19.1020000  48.9480000  59.2280000  17.8240000
  45.3580000  62.6130000  13.8930000  47.5000000  63.2930000  13.0380000
  43.5530000  62.0020000  14.6190000  50.4260000  61.7160000  19.3150000
  49.5930000  63.5750000  19.4220000  50.8910000  59.7650000  18.9720000
  45.1270000  63.3530000  12.6500000  46.3600000  63.7790000  12.1470000
  48.4560000  64.3770000  13.5150000  48.4620000  62.3470000  12.3320000
  51.5970000  61.9020000  20.0030000  43.9600000  63.7150000  11.9830000
  46.4520000  64.5360000  10.9980000  48.1170000  65.5880000  14.0910000
  49.7830000  64.0270000  13.2470000  48.1170000  61.2620000  11.5600000
  49.7920000  62.7470000  12.5190000  51.8970000  63.2070000  20.4720000
  44.0380000  64.5000000  10.8430000  43.1150000  63.4260000  12.3080000
  45.2780000  64.9140000  10.3370000  47.3000000  64.7970000  10.6600000
  49.1340000  66.4790000  14.4400000  47.2070000  65.8090000  14.2480000
  50.7960000  64.9110000  13.6080000  47.2080000  60.9970000  11.4810000
  49.1240000  60.5500000  10.8890000  50.7970000  61.9770000  11.9410000
  51.1990000  63.4990000  21.0940000  51.9370000  63.8260000  19.7120000
  52.7620000  63.1990000  20.9330000  50.3930000  57.9130000  11.2710000
  45.3740000  65.7610000   9.1980000  48.8240000  67.7360000  15.0240000
  50.4680000  66.1170000  14.2080000  51.7050000  64.6900000  13.4440000
  48.7510000  59.5350000   9.9880000  50.4640000  60.8970000  11.1220000
  51.7090000  62.1860000  12.1040000  46.3880000  66.7710000   9.2340000
  44.5140000  65.6520000   8.0860000  49.5300000  68.9070000  14.6080000
  47.5270000  67.9330000  15.5960000  51.1630000  66.7110000  14.4670000
  47.4760000  59.6070000   9.3420000  49.6800000  58.5790000   9.4760000
  51.1550000  60.3890000  10.7160000  46.4480000  67.6560000  10.3070000
  47.3460000  66.8620000   8.2350000  44.3500000  66.7200000   7.2070000
  43.8100000  64.4720000   7.8120000  49.8940000  69.1120000  13.2820000
  49.8190000  69.8910000  15.5450000  46.6440000  68.8760000  15.1070000
  47.1200000  67.1490000  16.6770000  46.9990000  60.7850000   8.7860000
  46.6900000  58.4600000   9.2630000  50.4540000  57.7910000  10.3310000
  49.7840000  58.3770000   8.1080000  47.4650000  68.5890000  10.3910000
  45.7850000  67.6190000  10.9860000  48.3590000  67.8120000   8.2990000
  47.3090000  66.2660000   7.4960000  44.8310000  67.5240000   7.3590000
  43.4970000  66.6340000   6.1110000  43.2400000  64.7610000  10.3980000
  42.9400000  64.3970000   6.7450000  50.5340000  70.2770000  12.8990000
  49.7020000  68.4460000  12.6330000  50.4480000  71.0720000  15.1660000
  49.5840000  69.7560000  16.4560000  45.8670000  67.2960000  17.2430000
  46.8960000  69.4190000  14.3690000  45.3690000  69.0410000  15.6950000
  47.7170000  66.5000000  17.0320000  45.7570000  60.8320000   8.1670000
  43.9340000  63.7120000   8.3690000  45.4750000  58.4870000   8.6210000
  46.9970000  57.6520000   9.6570000  50.6240000  57.4020000   7.5800000
  49.2710000  58.9160000   7.5190000  51.3090000  56.8340000   9.8140000
  47.5300000  61.5720000   8.8300000  48.4330000  68.6600000   9.3920000
  47.5040000  69.1820000  11.1320000  48.9970000  67.8790000   7.5980000
  42.7700000  65.4790000   5.8930000  43.4140000  67.3680000   5.5140000
  42.4520000  63.5970000   6.5910000  50.7890000  70.4020000  11.9930000
  50.8060000  71.2690000  13.8410000  50.6310000  71.7430000  15.8130000
  45.0000000  68.2450000  16.7450000  44.7710000  69.7010000  15.3630000
  45.6050000  66.7460000  17.9710000  44.9980000  59.6720000   8.0730000
  45.4290000  61.6500000   7.8100000  44.9590000  57.6920000   8.5530000
  51.3900000  56.6300000   8.4360000  51.8440000  56.3120000  10.4000000
  50.6720000  57.2680000   6.6400000  49.4290000  69.5840000   9.5880000
  41.8630000  65.2850000   4.8720000  51.4100000  72.3990000  13.3560000
  43.7800000  68.3130000  17.3950000  43.7720000  59.5900000   7.4580000
  52.2300000  55.6290000   8.0290000  50.4260000  69.6900000   8.5680000
  41.6230000  66.3730000   4.0190000  51.6150000  73.4770000  14.2710000
  42.8210000  69.1910000  16.8660000  43.2870000  60.7580000   6.8010000
  52.3190000  55.3730000   6.6290000  50.0090000  69.9910000   7.7340000
  51.1070000  70.3390000   8.8440000  50.8440000  68.8150000   8.4280000
  41.3100000  67.1370000   4.5460000  42.4520000  66.6130000   3.5540000
  40.9400000  66.1270000   3.3610000  52.0210000  74.2340000  13.7990000
  50.7550000  73.7530000  14.6500000  52.2120000  73.1840000  14.9920000
  42.6440000  68.9560000  15.9320000  41.9920000  69.1200000  17.3850000
  43.1580000  70.1100000  16.9140000  42.4620000  60.5410000   6.3170000
  43.1030000  61.4540000   7.4650000  43.9620000  61.0800000   6.1690000
  52.9640000  54.6530000   6.4690000  52.6150000  56.1850000   6.1670000
  51.4400000  55.1060000   6.2900000  41.1930000  14.4140000  13.3560000
  40.5890000  13.2840000  13.8410000  41.3980000  15.4920000  14.2710000
  40.3170000  12.2920000  12.8990000  40.2310000  13.0880000  15.1660000
  41.8040000  16.2490000  13.7990000  41.9950000  15.2000000  14.9920000
  40.5380000  15.7680000  14.6500000  37.1290000   8.8770000   8.2350000
  40.5720000  12.4170000  11.9930000  39.6770000  11.1270000  13.2820000
  40.4140000  13.7580000  15.8130000  39.3130000  10.9220000  14.6080000
  35.5680000   9.6350000  10.9860000  40.9460000   8.7260000  14.4670000
  35.1570000   7.7760000   9.1980000  38.9170000   8.4940000  14.4400000
  36.1710000   8.7860000   9.2340000  36.2350000   6.5510000  10.9980000
  40.2510000   8.1320000  14.2080000  36.2310000   9.6720000  10.3070000
  34.1330000   8.7350000   7.2070000  38.2390000   6.3920000  13.5150000
  37.0830000   6.8120000  10.6600000  40.5790000   6.9270000  13.6080000
  39.4850000  10.4610000  12.6330000  37.2480000  10.6040000  10.3910000
  36.6790000  11.4340000  14.3690000  38.1420000   9.8270000   8.2990000
  37.0920000   8.2820000   7.4960000  34.9100000   5.3680000  12.6500000
  37.2830000   5.3090000  13.0380000  41.4880000   6.7050000  13.4440000
  38.2160000  10.6750000   9.3920000  37.2870000  11.1970000  11.1320000
  38.7800000   9.8940000   7.5980000  39.5660000   6.0430000  13.2470000
  36.5150000   4.6090000  14.1610000  36.1430000   5.7940000  12.1470000
  38.2450000   4.3620000  12.3320000  39.2120000  11.5990000   9.5880000
  34.2720000   4.0060000  14.7820000  37.9000000   7.6030000  14.0910000
  37.9000000   3.2770000  11.5600000  35.1410000   4.6290000  13.8930000
  37.0310000   3.9880000  15.2810000  39.5750000   4.7620000  12.5190000
  33.0700000   2.7730000   6.8010000  34.7740000   3.3730000  15.9010000
  41.4920000   4.2010000  12.1040000  36.1510000   3.3530000  16.1700000
  37.9670000   3.9900000  15.4470000  35.0610000   6.9290000  10.3370000
  36.9900000   7.8250000  14.2480000  33.7430000   5.7300000  11.9830000
  36.9910000   3.0130000  11.4810000  38.9070000   2.5650000  10.8890000
  40.5800000   3.9920000  11.9410000  32.8860000   3.4700000   7.4650000
  30.7230000   8.1420000   3.3610000  33.7450000   3.0950000   6.1690000
  39.3670000  11.7710000  16.4560000  38.6070000   9.7510000  15.0240000
  38.5340000   1.5510000   9.9880000  33.8210000   6.5150000  10.8430000
  33.3360000   4.0170000  14.6190000  36.6390000   2.7030000  17.3180000
  40.2470000   2.9130000  11.1220000  32.8980000   5.4410000  12.3080000
  35.8910000   1.6680000  17.9490000  37.8650000   3.0890000  17.9420000
  39.4630000   0.5940000   9.4760000  34.2970000   7.6680000   8.0860000
  33.7170000   5.7280000   8.3690000  37.3100000   9.9490000  15.5960000
  37.2590000   1.6220000   9.3420000  36.7800000  -0.3330000   9.6570000
  35.3840000   0.6040000  17.2190000  38.8550000   2.1260000  18.1530000
  35.6720000   1.7010000  19.3250000  38.0760000   4.3700000  18.4130000
  36.4730000   0.4760000   9.2630000  39.5670000   0.3920000   8.1080000
  36.4270000  10.8920000  15.1070000  33.5930000   6.4870000   7.8120000
  36.9030000   9.1640000  16.6770000  39.6020000  11.9070000  15.5450000
  36.7820000   2.8000000   8.7860000  40.2370000  -0.1930000  10.3310000
  32.7230000   6.4120000   6.7450000  34.1750000   2.9430000  16.5000000
  34.6560000  -0.4100000  17.8380000  35.5360000   0.5650000  16.2820000
  36.0110000   2.4240000  19.8400000  34.9650000   0.6900000  19.9430000
  37.5000000   8.5150000  17.0320000  40.0100000   2.4450000  18.8320000
  35.2580000   0.5020000   8.6210000  40.1760000  -0.0720000  11.2710000
  35.5400000   2.8470000   8.1670000  34.6140000   9.5400000   7.3590000
  35.6500000   9.3120000  17.2430000  37.4140000   5.0360000  18.2660000
  35.1520000  11.0560000  15.6950000  33.0230000   6.7760000  10.3980000
  39.2440000   4.7050000  19.1020000  38.7310000   1.2430000  17.8240000
  41.0920000  -1.1510000   9.8140000  39.0540000   0.9310000   7.5190000
  33.2800000   8.6490000   6.1110000  37.3130000   3.5870000   8.8300000
  40.4070000  -0.5820000   7.5800000  40.9390000   2.4040000  10.7160000
  34.4580000  -0.3660000  19.2070000  35.2120000   3.6650000   7.8100000
  34.2990000  -1.1250000  17.3250000  40.2090000   3.7310000  19.3150000
  34.8260000   0.7190000  20.8820000  40.6740000   1.7810000  18.9720000
  34.7420000  -0.2920000   8.5530000  34.7810000   1.6870000   8.0730000
  32.2350000   5.6120000   6.5910000  34.7830000  10.2600000  16.7450000
  35.3880000   8.7610000  17.9710000  34.5540000  11.7160000  15.3630000
  41.1730000  -1.3540000   8.4360000  39.3760000   5.5900000  19.4220000
  40.4550000  -0.7160000   6.6400000  32.5530000   7.4950000   5.8930000
  33.1970000   9.3840000   5.5140000  41.6270000  -1.6730000  10.4000000
  33.7760000  -1.3150000  19.9300000  41.3800000   3.9170000  20.0030000
  33.5550000   1.6050000   7.4580000  33.5630000  10.3290000  17.3950000
  42.0140000  -2.3550000   8.0290000  31.6460000   7.3000000   4.8720000
  33.3390000  -2.4550000  19.2180000  40.2090000  11.7060000   8.5680000
  31.4060000   8.3880000   4.0190000  32.6040000  11.2070000  16.8660000
  41.6800000   5.2230000  20.4720000  42.1020000  -2.6110000   6.6290000
  32.6630000  -2.1900000  18.5590000  32.9490000  -3.1010000  19.8440000
  34.1020000  -2.8640000  18.7590000  40.6270000  10.8300000   8.4280000
  39.7920000  12.0060000   7.7340000  40.8900000  12.3540000   8.8440000
  32.2350000   8.6290000   3.5540000  31.0930000   9.1530000   4.5460000
  32.2450000   2.5560000   6.3170000  32.4270000  10.9720000  15.9320000
  31.7750000  11.1350000  17.3850000  32.9410000  12.1260000  16.9140000
  41.7200000   5.8410000  19.7120000  42.5450000   5.2140000  20.9330000
  40.9820000   5.5150000  21.0940000  42.3980000  -1.8000000   6.1670000
  42.7470000  -3.3310000   6.4690000  41.2230000  -2.8780000   6.2900000
  42.5280000  13.2420000  36.0570000  43.2100000  14.1910000  35.3340000
  42.0910000  12.1020000  35.3450000  43.7170000  15.2480000  36.0700000
  43.4080000  14.1470000  33.9650000  41.4150000  12.3680000  34.6860000
  42.8540000  11.6930000  34.8860000  41.7010000  11.4560000  35.9710000
  44.4230000  16.2580000  35.4520000  43.5780000  15.2770000  37.0090000
  44.1360000  15.1610000  33.3460000  43.0510000  13.4320000  33.4520000
  44.6420000  16.2250000  34.0760000  44.7620000  16.9810000  35.9670000
  44.2880000  15.1230000  32.4090000  45.3910000  17.2600000  33.4450000
  44.9030000  17.9100000  32.2970000  46.6170000  17.6460000  34.0690000
  45.7830000  18.5450000  31.4080000  43.5260000  17.9310000  32.0280000
  46.8280000  18.9280000  34.5400000  47.6070000  16.6830000  34.2800000
  45.2670000  19.1670000  30.2880000  46.7190000  18.5470000  31.5740000
  43.0240000  18.5640000  30.9080000  42.9270000  17.5010000  32.6270000
  47.9960000  19.2630000  35.2290000  46.1660000  19.5930000  34.3930000
  48.7620000  17.0020000  34.9590000  47.4830000  15.8000000  33.9510000
  43.8930000  19.1860000  30.0200000  46.0350000  19.8660000  29.1650000
  42.0880000  18.5740000  30.7460000  48.9610000  18.2880000  35.4420000
  48.1280000  20.1470000  35.5490000  49.4260000  16.3380000  35.0990000
  43.6620000  19.9260000  28.7770000  44.8950000  20.3520000  28.2740000
  46.9910000  20.9500000  29.6420000  46.9970000  18.9200000  28.4590000
  50.1320000  18.4750000  36.1300000  42.4950000  20.2870000  28.1100000
  44.9870000  21.1080000  27.1250000  46.6520000  22.1600000  30.2180000
  48.3180000  20.6000000  29.3740000  46.6520000  17.8340000  27.6870000
  48.3270000  19.3190000  28.6460000  50.4320000  19.7800000  36.5990000
  42.5730000  21.0730000  26.9700000  41.6500000  19.9990000  28.4350000
  43.8130000  21.4860000  26.4640000  45.8350000  21.3690000  26.7870000
  47.6690000  23.0510000  30.5670000  45.7420000  22.3820000  30.3750000
  49.3310000  21.4840000  29.7350000  45.7430000  17.5700000  27.6080000
  47.6590000  17.1220000  27.0160000  49.3320000  18.5490000  28.0680000
  50.4720000  20.3990000  35.8390000  51.2970000  19.7710000  37.0600000
  49.7340000  20.0720000  37.2210000  41.7750000  21.3330000  26.5250000
  43.9090000  22.3340000  25.3250000  47.3590000  24.3080000  31.1510000
  49.0030000  22.6890000  30.3350000  50.2400000  21.2620000  29.5710000
  47.2860000  16.1080000  26.1150000  48.9990000  17.4700000  27.2490000
  50.2440000  18.7590000  28.2310000  44.9230000  23.3440000  25.3610000
  43.0490000  22.2250000  24.2130000  48.0650000  25.4800000  30.7350000
  46.0620000  24.5060000  31.7230000  49.6980000  23.2830000  30.5940000
  46.0110000  16.1800000  25.4690000  48.2150000  15.1510000  25.6030000
  49.6900000  16.9610000  26.8430000  44.9830000  24.2290000  26.4340000
  45.8810000  23.4350000  24.3620000  42.8850000  23.2920000  23.3340000
  42.3450000  21.0440000  23.9390000  48.4290000  25.6840000  29.4090000
  48.3540000  26.4640000  31.6720000  45.1790000  25.4490000  31.2340000
  45.6550000  23.7210000  32.8040000  45.5340000  17.3580000  24.9130000
  45.2250000  15.0330000  25.3900000  48.3190000  14.9490000  24.2350000
  48.9890000  14.3640000  26.4580000  46.0000000  25.1610000  26.5180000
  44.3200000  24.1920000  27.1130000  46.8940000  24.3840000  24.4260000
  45.8440000  22.8390000  23.6230000  43.3660000  24.0970000  23.4860000
  42.0320000  23.2070000  22.2380000  42.4690000  20.2850000  24.4960000
  41.4750000  20.9700000  22.8720000  49.0690000  26.8500000  29.0260000
  48.2370000  25.0180000  28.7600000  48.9830000  27.6450000  31.2930000
  48.1190000  26.3290000  32.5830000  43.9040000  25.6140000  31.8220000
  45.4310000  25.9920000  30.4960000  44.4020000  23.8690000  33.3700000
  46.2520000  23.0720000  33.1590000  44.2920000  17.4050000  24.2940000
  46.0650000  18.1440000  24.9570000  44.0100000  15.0600000  24.7480000
  45.5320000  14.2240000  25.7840000  49.8440000  13.4060000  25.9410000
  48.9280000  14.4860000  27.3980000  49.1590000  13.9750000  23.7070000
  47.8060000  15.4890000  23.6460000  46.9680000  25.2330000  25.5190000
  46.0390000  25.7540000  27.2590000  47.5320000  24.4510000  23.7250000
  41.3050000  22.0520000  22.0200000  41.9490000  23.9410000  21.6410000
  40.9870000  20.1690000  22.7180000  49.3240000  26.9750000  28.1200000
  49.3410000  27.8410000  29.9680000  49.1660000  28.3160000  31.9400000
  43.5350000  24.8170000  32.8720000  43.3060000  26.2730000  31.4900000
  44.1400000  23.3190000  34.0980000  43.5330000  16.2450000  24.2000000
  43.9640000  18.2220000  23.9370000  43.4940000  14.2650000  24.6800000
  49.9250000  13.2030000  24.5630000  50.3790000  12.8850000  26.5270000
  49.2070000  13.8410000  22.7670000  47.9640000  26.1560000  25.7150000
  40.3980000  21.8580000  20.9990000  49.9450000  28.9710000  29.4830000
  42.3150000  24.8860000  33.5220000  42.3070000  16.1630000  23.5850000
  50.7650000  12.2020000  24.1560000  48.9610000  26.2630000  24.6950000
  40.1580000  22.9450000  20.1460000  50.1500000  30.0490000  30.3980000
  41.3560000  25.7640000  32.9930000  41.8220000  17.3300000  22.9280000
  50.8540000  11.9460000  22.7560000  48.5440000  26.5630000  23.8610000
  49.6420000  26.9110000  24.9710000  49.3790000  25.3870000  24.5550000
  39.8450000  23.7100000  20.6730000  39.4750000  22.7000000  19.4880000
  40.9870000  23.1860000  19.6810000  50.7470000  29.7570000  31.1190000
  49.2900000  30.3250000  30.7770000  50.5560000  30.8060000  29.9260000
  41.6930000  26.6830000  33.0410000  40.5270000  25.6930000  33.5120000
  41.1790000  25.5290000  32.0590000  42.4970000  17.6520000  22.2960000
  41.6380000  18.0270000  23.5920000  40.9970000  17.1140000  22.4440000
  51.1500000  12.7570000  22.2940000  49.9750000  11.6790000  22.4170000
  51.4990000  11.2260000  22.5960000  48.7260000  13.3030000  52.1840000
  49.4080000  14.2530000  51.4610000  48.2890000  12.1630000  51.4720000
  49.9150000  15.3090000  52.1970000  49.6060000  14.2080000  50.0920000
  47.6130000  12.4290000  50.8130000  49.0510000  11.7540000  51.0130000
  47.8990000  11.5180000  52.0980000  50.6210000  16.3190000  51.5790000
  49.7760000  15.3380000  53.1360000  50.3340000  15.2220000  49.4730000
  49.2480000  13.4930000  49.5790000  50.8400000  16.2860000  50.2030000
  50.9600000  17.0420000  52.0940000  50.4860000  15.1840000  48.5360000
  51.5880000  17.3220000  49.5720000  51.1010000  17.9710000  48.4240000
  52.8150000  17.7070000  50.1960000  51.9810000  18.6060000  47.5350000
  49.7230000  17.9920000  48.1550000  53.0250000  18.9890000  50.6670000
  53.8050000  16.7440000  50.4070000  51.4640000  19.2280000  46.4150000
  52.9160000  18.6080000  47.7010000  49.2220000  18.6250000  47.0350000
  49.1250000  17.5620000  48.7540000  54.1940000  19.3240000  51.3560000
  52.3640000  19.6550000  50.5200000  54.9590000  17.0630000  51.0860000
  53.6810000  15.8620000  50.0780000  50.0910000  19.2470000  46.1470000
  52.2330000  19.9270000  45.2920000  48.2860000  18.6350000  46.8730000
  55.1590000  18.3500000  51.5690000  54.3260000  20.2090000  51.6760000
  55.6240000  16.3990000  51.2260000  49.8600000  19.9870000  44.9040000
  51.0930000  20.4130000  44.4010000  53.1890000  21.0110000  45.7690000
  53.1950000  18.9810000  44.5860000  56.3290000  18.5360000  52.2570000
  48.6920000  20.3490000  44.2370000  51.1850000  21.1690000  43.2520000
  52.8500000  22.2210000  46.3450000  54.5160000  20.6610000  45.5010000
  52.8500000  17.8960000  43.8140000  54.5250000  19.3800000  44.7730000
  56.6290000  19.8410000  52.7260000  48.7710000  21.1340000  43.0970000
  47.8480000  20.0600000  44.5620000  50.0100000  21.5480000  42.5910000
  52.0330000  21.4300000  42.9140000  53.8670000  23.1120000  46.6940000
  51.9400000  22.4430000  46.5020000  55.5280000  21.5450000  45.8620000
  51.9410000  17.6310000  43.7350000  53.8560000  17.1840000  43.1430000
  55.5300000  18.6110000  44.1950000  56.6690000  20.4600000  51.9660000
  57.4940000  19.8320000  53.1870000  55.9320000  20.1330000  53.3480000
  47.9730000  21.3950000  42.6520000  50.1060000  22.3950000  41.4520000
  53.5570000  24.3700000  47.2780000  55.2010000  22.7500000  46.4620000
  56.4380000  21.3240000  45.6980000  53.4830000  16.1690000  42.2420000
  55.1960000  17.5310000  43.3760000  56.4420000  18.8200000  44.3580000
  51.1210000  23.4050000  41.4880000  49.2460000  22.2860000  40.3400000
  54.2630000  25.5410000  46.8620000  52.2600000  24.5670000  47.8500000
  55.8960000  23.3440000  46.7210000  52.2090000  16.2410000  41.5950000
  54.4120000  15.2120000  41.7300000  55.8880000  17.0230000  42.9700000
  51.1810000  24.2900000  42.5610000  52.0790000  23.4960000  40.4890000
  49.0820000  23.3530000  39.4610000  48.5430000  21.1060000  40.0660000
  54.6270000  25.7460000  45.5360000  54.5520000  26.5250000  47.7990000
  51.3770000  25.5100000  47.3610000  51.8530000  23.7820000  48.9310000
  51.7320000  17.4190000  41.0400000  51.4230000  15.0940000  41.5170000
  54.5170000  15.0100000  40.3620000  55.1860000  14.4250000  42.5850000
  52.1970000  25.2220000  42.6450000  50.5170000  24.2530000  43.2390000
  53.0920000  24.4460000  40.5530000  52.0420000  22.9000000  39.7500000
  49.5640000  24.1580000  39.6130000  48.2300000  23.2680000  38.3650000
  48.6670000  20.3460000  40.6230000  47.6730000  21.0310000  38.9990000
  55.2670000  26.9110000  45.1530000  54.4340000  25.0790000  44.8870000
  55.1800000  27.7060000  47.4200000  54.3170000  26.3900000  48.7100000
  50.1010000  25.6750000  47.9490000  51.6290000  26.0530000  46.6230000
  50.6000000  23.9300000  49.4970000  52.4490000  23.1340000  49.2850000
  50.4890000  17.4660000  40.4200000  52.2630000  18.2050000  41.0840000
  50.2080000  15.1210000  40.8750000  51.7300000  14.2860000  41.9110000
  56.0410000  13.4680000  42.0680000  55.1260000  14.5470000  43.5250000
  55.3570000  14.0360000  39.8340000  54.0030000  15.5500000  39.7730000
  53.1650000  25.2940000  41.6460000  52.2360000  25.8160000  43.3860000
  53.7290000  24.5130000  39.8520000  47.5030000  22.1130000  38.1470000
  48.1470000  24.0020000  37.7680000  47.1850000  20.2310000  38.8450000
  55.5220000  27.0360000  44.2470000  55.5390000  27.9020000  46.0950000
  55.3640000  28.3770000  48.0670000  49.7330000  24.8790000  48.9990000
  49.5040000  26.3350000  47.6170000  50.3380000  23.3800000  50.2250000
  49.7310000  16.3060000  40.3270000  50.1620000  18.2830000  40.0640000
  49.6910000  14.3260000  40.8070000  56.1220000  13.2640000  40.6900000
  56.5760000  12.9460000  42.6540000  55.4050000  13.9020000  38.8940000
  54.1620000  26.2180000  41.8420000  46.5960000  21.9190000  37.1260000
  56.1420000  29.0320000  45.6100000  48.5130000  24.9470000  49.6490000
  48.5040000  16.2240000  39.7120000  56.9630000  12.2630000  40.2830000
  55.1590000  26.3240000  40.8220000  46.3560000  23.0070000  36.2730000
  56.3480000  30.1110000  46.5250000  47.5540000  25.8250000  49.1200000
  48.0200000  17.3910000  39.0550000  57.0520000  12.0070000  38.8830000
  54.7420000  26.6250000  39.9880000  55.8400000  26.9720000  41.0980000
  55.5770000  25.4490000  40.6820000  46.0430000  23.7710000  36.8000000
  45.6720000  22.7610000  35.6150000  47.1850000  23.2470000  35.8080000
  56.9440000  29.8180000  47.2460000  55.4870000  30.3860000  46.9040000
  56.7540000  30.8670000  46.0530000  47.8910000  26.7440000  49.1680000
  46.7250000  25.7540000  49.6390000  47.3760000  25.5900000  48.1860000
  48.6950000  17.7140000  38.4230000  47.8360000  18.0880000  39.7190000
  47.1950000  17.1750000  38.5710000  57.3470000  12.8180000  38.4210000
  56.1730000  11.7400000  38.5440000  57.6960000  11.2870000  38.7230000
  52.4990000  43.4670000  29.4830000  51.8950000  42.3380000  29.9680000
  52.9860000  34.2760000  36.5990000  51.5370000  42.1410000  31.2930000
  50.5500000  33.7590000  35.2290000  53.0260000  34.8950000  35.8390000
  52.2880000  34.5680000  37.2210000  53.8510000  34.2670000  37.0600000
  50.9080000  40.9600000  31.6720000  48.5930000  40.2510000  27.2590000
  50.8740000  29.4450000  24.2350000  50.6830000  34.6440000  35.5490000
  48.6160000  39.0020000  31.7230000  50.6740000  40.8250000  32.5830000
  52.2520000  37.7800000  30.5940000  49.9130000  38.8050000  31.1510000
  50.2230000  37.5470000  30.5670000  50.6190000  39.9760000  30.7350000
  49.2070000  36.6560000  30.2180000  51.5570000  37.1860000  30.3350000
  47.5370000  38.7250000  26.4340000  50.9830000  40.1810000  29.4090000
  49.5450000  35.4460000  29.6420000  48.3900000  35.8650000  26.7870000
  51.8850000  35.9800000  29.7350000  48.8060000  37.5690000  33.1590000
  48.5540000  39.6570000  26.5180000  50.7910000  39.5140000  28.7600000
  51.6230000  41.3460000  29.0260000  51.4820000  28.9820000  27.3980000
  50.8720000  35.0960000  29.3740000  48.5900000  34.3620000  29.1650000
  52.7940000  35.7590000  29.5710000  49.5220000  39.7290000  25.5190000
  45.8600000  40.7700000  31.4900000  51.8780000  41.4710000  28.1200000
  46.4470000  33.6820000  30.0200000  47.8210000  33.6630000  30.2880000
  47.4500000  34.8480000  28.2740000  49.5510000  33.4160000  28.4590000
  50.5180000  40.6530000  25.7150000  45.5780000  33.0600000  30.9080000
  48.3380000  33.0410000  31.4080000  47.5410000  35.6040000  27.1250000
  46.2160000  34.4220000  28.7770000  49.2060000  32.3310000  27.6870000
  50.8810000  33.8150000  28.6460000  52.7050000  44.5460000  30.3980000
  46.0800000  32.4270000  32.0280000  44.6420000  33.0700000  30.7460000
  47.4580000  32.4060000  32.2970000  48.2970000  32.0660000  27.6080000
  46.3670000  35.9830000  26.4640000  48.2960000  36.8780000  30.3750000
  45.0490000  34.7840000  28.1100000  49.2730000  33.0430000  31.5740000
  50.2130000  31.6190000  27.0160000  51.8860000  33.0460000  28.0680000
  53.3010000  44.2530000  31.1190000  53.1100000  45.3020000  29.9260000
  51.8440000  44.8210000  30.7770000  45.4820000  31.9970000  32.6270000
  47.9450000  31.7570000  33.4450000  46.4630000  36.8300000  25.3250000
  45.1270000  35.5690000  26.9700000  44.2040000  34.4950000  28.4350000
  49.8400000  30.6040000  26.1150000  51.5530000  31.9660000  27.2490000
  52.7990000  33.2550000  28.2310000  49.1710000  32.1420000  34.0690000
  47.1970000  30.7210000  34.0760000  47.4780000  37.8400000  25.3610000
  45.6030000  36.7210000  24.2130000  48.3990000  37.3350000  23.6230000
  48.5650000  30.6760000  25.4690000  50.7690000  29.6470000  25.6030000
  45.9210000  38.5930000  23.4860000  49.3820000  33.4240000  34.5400000
  46.6900000  29.6570000  33.3460000  50.1610000  31.1790000  34.2800000
  46.9780000  30.7540000  35.4520000  45.4390000  37.7880000  23.3340000
  44.8990000  35.5410000  23.9390000  48.2090000  38.2170000  32.8040000
  47.7330000  39.9450000  31.2340000  48.0880000  31.8540000  24.9130000
  51.5430000  28.8600000  26.4580000  48.4350000  37.9310000  24.3620000
  47.7790000  29.5290000  25.3900000  46.8460000  31.9010000  24.2940000
  47.3170000  31.4770000  35.9670000  46.5640000  29.5560000  24.7480000
  45.0240000  34.7810000  24.4960000  50.3600000  29.9850000  23.6460000
  45.9620000  28.6430000  33.9650000  46.8420000  29.6190000  32.4090000
  46.2720000  29.7440000  36.0700000  44.0290000  35.4660000  22.8720000
  44.3290000  35.8300000  26.5250000  44.5860000  37.7030000  22.2380000
  46.8740000  38.6880000  27.1130000  46.4580000  40.1100000  31.8220000
  48.7200000  34.0900000  34.3930000  46.9570000  38.3650000  33.3700000
  47.9850000  40.4880000  30.4960000  51.3160000  31.4990000  34.9590000
  50.0370000  30.2970000  33.9510000  52.3980000  27.9030000  25.9410000
  52.2450000  31.4580000  26.8430000  49.4480000  38.8810000  24.4260000
  48.6190000  32.6400000  24.9570000  51.7130000  28.4710000  23.7070000
  48.0860000  28.7210000  25.7840000  46.0870000  30.7410000  24.2000000
  46.5180000  32.7180000  23.9370000  46.0480000  28.7610000  24.6800000
  45.7640000  28.6880000  35.3340000  45.6050000  27.9280000  33.4520000
  46.1320000  29.7730000  37.0090000  43.5410000  34.6660000  22.7180000
  43.8600000  36.5480000  22.0200000  44.5040000  38.4370000  21.6410000
  46.0890000  39.3140000  32.8720000  51.7200000  42.8120000  31.9400000
  46.6940000  37.8150000  34.0980000  51.5150000  32.7850000  35.4420000
  52.9330000  27.3810000  26.5270000  51.9810000  30.8340000  35.0990000
  52.4790000  27.6990000  24.5630000  50.0860000  38.9480000  23.7250000
  51.7610000  28.3370000  22.7670000  44.8610000  30.6590000  23.5850000
  45.0830000  27.7380000  36.0570000  42.9520000  36.3540000  20.9990000
  44.8690000  39.3820000  33.5220000  52.6860000  32.9710000  36.1300000
  53.3200000  26.6980000  24.1560000  42.7120000  37.4420000  20.1460000
  44.6450000  26.5980000  35.3450000  44.3760000  31.8260000  22.9280000
  43.9100000  40.2600000  32.9930000  51.5150000  40.7590000  24.6950000
  53.4080000  26.4420000  22.7560000  43.5410000  37.6820000  19.6810000
  43.5520000  31.6100000  22.4440000  45.0510000  32.1490000  22.2960000
  45.4080000  26.1890000  34.8860000  43.9690000  26.8640000  34.6860000
  44.2550000  25.9530000  35.9710000  42.3990000  38.2060000  20.6730000
  44.1930000  32.5230000  23.5920000  42.0290000  37.1960000  19.4880000
  44.2470000  41.1790000  33.0410000  43.0820000  40.1890000  33.5120000
  43.7330000  40.0250000  32.0590000  51.0980000  41.0600000  23.8610000
  52.1960000  41.4070000  24.9710000  51.9340000  39.8840000  24.5550000
  53.7040000  27.2530000  22.2940000  52.5300000  26.1750000  22.4170000
  54.0530000  25.7220000  22.5960000  61.2510000  58.0250000  45.6100000
  60.6470000  56.8950000  46.0950000  61.7380000  48.8330000  52.7260000
  60.2890000  56.6980000  47.4200000  59.3020000  48.3160000  51.3560000
  61.7780000  49.4520000  51.9660000  61.0400000  49.1250000  53.3480000
  62.6030000  48.8250000  53.1870000  59.6600000  55.5170000  47.7990000
  57.3450000  54.8080000  43.3860000  59.6260000  44.0030000  40.3620000
  59.4350000  49.2010000  51.6760000  57.3680000  53.5600000  47.8500000
  59.4260000  55.3820000  48.7100000  61.0040000  52.3370000  46.7210000
  58.6650000  53.3620000  47.2780000  58.9750000  52.1050000  46.6940000
  59.3710000  54.5330000  46.8620000  57.9580000  51.2140000  46.3450000
  60.3090000  51.7430000  46.4620000  56.2890000  53.2820000  42.5610000
  59.7350000  54.7380000  45.5360000  58.2970000  50.0030000  45.7690000
  57.1420000  50.4230000  42.9140000  60.6370000  50.5370000  45.8620000
  57.5580000  52.1260000  49.2850000  57.3060000  54.2150000  42.6450000
  59.5430000  54.0720000  44.8870000  60.3750000  55.9030000  45.1530000
  60.2340000  43.5390000  43.5250000  59.6240000  49.6540000  45.5010000
  57.3420000  48.9190000  45.2920000  61.5460000  50.3160000  45.6980000
  58.2740000  54.2860000  41.6460000  54.6120000  55.3270000  47.6170000
  60.6300000  56.0280000  44.2470000  55.1990000  48.2400000  46.1470000
  56.5730000  48.2200000  46.4150000  56.2020000  49.4050000  44.4010000
  58.3030000  47.9730000  44.5860000  59.2700000  55.2100000  41.8420000
  54.3300000  47.6170000  47.0350000  57.0900000  47.5980000  47.5350000
  56.2930000  50.1620000  43.2520000  54.9680000  48.9790000  44.9040000
  57.9580000  46.8880000  43.8140000  59.6330000  48.3730000  44.7730000
  61.4570000  59.1030000  46.5250000  54.8320000  46.9840000  48.1550000
  53.3940000  47.6280000  46.8730000  56.2100000  46.9640000  48.4240000
  57.0490000  46.6230000  43.7350000  55.1190000  50.5400000  42.5910000
  57.0480000  51.4360000  46.5020000  53.8010000  49.3410000  44.2370000
  58.0250000  47.6010000  47.7010000  58.9650000  46.1760000  43.1430000
  60.6380000  47.6030000  44.1950000  62.0530000  58.8100000  47.2460000
  61.8620000  59.8600000  46.0530000  60.5960000  59.3790000  46.9040000
  54.2340000  46.5540000  48.7540000  56.6970000  46.3140000  49.5720000
  55.2150000  51.3870000  41.4520000  53.8790000  50.1260000  43.0970000
  52.9560000  49.0520000  44.5620000  58.5920000  45.1620000  42.2420000
  60.3050000  46.5240000  43.3760000  61.5510000  47.8120000  44.3580000
  57.9230000  46.6990000  50.1960000  55.9490000  45.2790000  50.2030000
  56.2300000  52.3970000  41.4880000  54.3550000  51.2790000  40.3400000
  57.1510000  51.8920000  39.7500000  57.3170000  45.2330000  41.5950000
  59.5210000  44.2050000  41.7300000  54.6720000  53.1500000  39.6130000
  58.1340000  47.9810000  50.6670000  55.4420000  44.2150000  49.4730000
  58.9130000  45.7370000  50.4070000  55.7300000  45.3120000  51.5790000
  54.1910000  52.3460000  39.4610000  53.6510000  50.0980000  40.0660000
  56.9610000  52.7750000  48.9310000  56.4850000  54.5030000  47.3610000
  56.8400000  46.4110000  41.0400000  60.2950000  43.4170000  42.5850000
  57.1870000  52.4880000  40.4890000  56.5310000  44.0860000  41.5170000
  55.5980000  46.4580000  40.4200000  56.0690000  46.0350000  52.0940000
  55.3160000  44.1130000  40.8750000  53.7760000  49.3390000  40.6230000
  59.1120000  44.5420000  39.7730000  54.7140000  43.2010000  50.0920000
  55.5940000  44.1760000  48.5360000  55.0240000  44.3010000  52.1970000
  52.7810000  50.0230000  38.9990000  53.0810000  50.3870000  42.6520000
  53.3380000  52.2600000  38.3650000  55.6260000  53.2450000  43.2390000
  55.2100000  54.6670000  47.9490000  57.4720000  48.6470000  50.5200000
  55.7090000  52.9220000  49.4970000  56.7370000  55.0450000  46.6230000
  60.0680000  46.0560000  51.0860000  58.7890000  44.8540000  50.0780000
  61.1500000  42.4600000  42.0680000  60.9970000  46.0150000  42.9700000
  58.2000000  53.4380000  40.5530000  57.3710000  47.1980000  41.0840000
  60.4650000  43.0290000  39.8340000  56.8380000  43.2780000  41.9110000
  54.8390000  45.2980000  40.3270000  55.2700000  47.2760000  40.0640000
  54.8000000  43.3190000  40.8070000  54.5160000  43.2450000  51.4610000
  54.3570000  42.4860000  49.5790000  54.8840000  44.3300000  53.1360000
  52.2930000  49.2230000  38.8450000  52.6120000  51.1050000  38.1470000
  53.2560000  52.9940000  37.7680000  54.8410000  53.8710000  48.9990000
  60.4720000  57.3690000  48.0670000  55.4460000  52.3720000  50.2250000
  60.2670000  47.3420000  51.5690000  61.6850000  41.9380000  42.6540000
  60.7330000  45.3910000  51.2260000  61.2310000  42.2560000  40.6900000
  58.8380000  53.5050000  39.8520000  60.5130000  42.8940000  38.8940000
  53.6130000  45.2160000  39.7120000  53.8350000  42.2960000  52.1840000
  51.7040000  50.9110000  37.1260000  53.6210000  53.9390000  49.6490000
  61.4380000  47.5280000  52.2570000  62.0720000  41.2550000  40.2830000
  51.4640000  51.9990000  36.2730000  53.3970000  41.1560000  51.4720000
  53.1280000  46.3840000  39.0550000  52.6620000  54.8170000  49.1200000
  60.2670000  55.3170000  40.8220000  62.1600000  40.9990000  38.8830000
  52.2930000  52.2390000  35.8080000  52.3030000  46.1670000  38.5710000
  53.8030000  46.7060000  38.4230000  54.1600000  40.7460000  51.0130000
  52.7210000  41.4210000  50.8130000  53.0070000  40.5100000  52.0980000
  51.1510000  52.7640000  36.8000000  52.9450000  47.0810000  39.7190000
  50.7810000  51.7530000  35.6150000  52.9990000  55.7360000  49.1680000
  51.8330000  54.7460000  49.6390000  52.4850000  54.5830000  48.1860000
  59.8500000  55.6170000  39.9880000  60.9480000  55.9650000  41.0980000
  60.6860000  54.4410000  40.6820000  62.4560000  41.8110000  38.4210000
  61.2820000  40.7330000  38.5440000  62.8050000  40.2800000  38.7230000
  57.6070000  72.4600000  29.4830000  57.0040000  71.3300000  29.9680000
  58.0940000  63.2680000  36.5990000  56.6450000  71.1330000  31.2930000
  55.6590000  62.7510000  35.2290000  58.1340000  63.8870000  35.8390000
  57.3970000  63.5600000  37.2210000  58.9590000  63.2600000  37.0600000
  56.0170000  69.9520000  31.6720000  53.7010000  69.2430000  27.2590000
  55.9820000  58.4380000  24.2350000  55.7910000  63.6360000  35.5490000
  53.7250000  67.9950000  31.7230000  55.7820000  69.8170000  32.5830000
  57.3610000  66.7720000  30.5940000  55.0220000  67.7970000  31.1510000
  55.3320000  66.5400000  30.5670000  55.7280000  68.9680000  30.7350000
  54.3150000  65.6490000  30.2180000  56.6660000  66.1780000  30.3350000
  52.6460000  67.7180000  26.4340000  56.0920000  69.1730000  29.4090000
  54.6540000  64.4380000  29.6420000  53.4980000  64.8580000  26.7870000
  56.9930000  64.9720000  29.7350000  53.9140000  66.5610000  33.1590000
  53.6620000  68.6500000  26.5180000  55.8990000  68.5070000  28.7600000
  56.7320000  70.3380000  29.0260000  56.5910000  57.9740000  27.3980000
  55.9810000  64.0890000  29.3740000  53.6980000  63.3540000  29.1650000
  57.9030000  64.7510000  29.5710000  54.6300000  68.7210000  25.5190000
  50.9690000  69.7620000  31.4900000  56.9870000  70.4630000  28.1200000
  51.5560000  62.6750000  30.0200000  52.9290000  62.6550000  30.2880000
  52.5580000  63.8400000  28.2740000  54.6600000  62.4080000  28.4590000
  55.6270000  69.6450000  25.7150000  50.6870000  62.0520000  30.9080000
  53.4460000  62.0330000  31.4080000  52.6500000  64.5970000  27.1250000
  51.3250000  63.4140000  28.7770000  54.3150000  61.3230000  27.6870000
  55.9900000  62.8080000  28.6460000  57.8130000  73.5380000  30.3980000
  51.1880000  61.4190000  32.0280000  49.7510000  62.0630000  30.7460000
  52.5660000  61.3990000  32.2970000  53.4060000  61.0590000  27.6080000
  51.4750000  64.9750000  26.4640000  53.4050000  65.8710000  30.3750000
  50.1570000  63.7760000  28.1100000  54.3810000  62.0360000  31.5740000
  55.3210000  60.6110000  27.0160000  56.9950000  62.0380000  28.0680000
  58.4090000  73.2450000  31.1190000  58.2190000  74.2950000  29.9260000
  56.9520000  73.8140000  30.7770000  50.5900000  60.9890000  32.6270000
  53.0530000  60.7490000  33.4450000  51.5710000  65.8220000  25.3250000
  50.2360000  64.5610000  26.9700000  49.3130000  63.4870000  28.4350000
  54.9490000  59.5970000  26.1150000  56.6610000  60.9590000  27.2490000
  57.9070000  62.2470000  28.2310000  54.2800000  61.1340000  34.0690000
  52.3050000  59.7140000  34.0760000  52.5860000  66.8320000  25.3610000
  50.7110000  65.7140000  24.2130000  53.5070000  66.3270000  23.6230000
  53.6740000  59.6680000  25.4690000  55.8770000  58.6400000  25.6030000
  51.0290000  67.5850000  23.4860000  54.4900000  62.4160000  34.5400000
  51.7990000  58.6500000  33.3460000  55.2700000  60.1720000  34.2800000
  52.0860000  59.7470000  35.4520000  50.5480000  66.7810000  23.3340000
  50.0080000  64.5330000  23.9390000  53.3180000  67.2100000  32.8040000
  52.8420000  68.9380000  31.2340000  53.1970000  60.8460000  24.9130000
  56.6510000  57.8530000  26.4580000  53.5440000  66.9230000  24.3620000
  52.8880000  58.5210000  25.3900000  51.9540000  60.8930000  24.2940000
  52.4250000  60.4700000  35.9670000  51.6730000  58.5480000  24.7480000
  50.1320000  63.7740000  24.4960000  55.4680000  58.9770000  23.6460000
  51.0710000  57.6360000  33.9650000  51.9510000  58.6110000  32.4090000
  51.3800000  58.7360000  36.0700000  49.1380000  64.4580000  22.8720000
  49.4380000  64.8220000  26.5250000  49.6950000  66.6950000  22.2380000
  51.9820000  67.6810000  27.1130000  51.5660000  69.1020000  31.8220000
  53.8290000  63.0820000  34.3930000  52.0650000  67.3580000  33.3700000
  53.0940000  69.4800000  30.4960000  56.4240000  60.4910000  34.9590000
  55.1460000  59.2890000  33.9510000  57.5060000  56.8950000  25.9410000
  57.3530000  60.4500000  26.8430000  54.5570000  67.8730000  24.4260000
  53.7280000  61.6330000  24.9570000  56.8220000  57.4640000  23.7070000
  53.1950000  57.7130000  25.7840000  51.1960000  59.7330000  24.2000000
  51.6270000  61.7110000  23.9370000  51.1560000  57.7540000  24.6800000
  50.8730000  57.6800000  35.3340000  50.7130000  56.9210000  33.4520000
  51.2410000  58.7650000  37.0090000  48.6500000  63.6580000  22.7180000
  48.9680000  65.5400000  22.0200000  49.6120000  67.4290000  21.6410000
  51.1980000  68.3060000  32.8720000  56.8290000  71.8040000  31.9400000
  51.8030000  66.8070000  34.0980000  56.6240000  61.7770000  35.4420000
  58.0410000  56.3730000  26.5270000  57.0890000  59.8260000  35.0990000
  57.5870000  56.6910000  24.5630000  55.1940000  67.9400000  23.7250000
  56.8700000  57.3290000  22.7670000  49.9690000  59.6510000  23.5850000
  50.1910000  56.7310000  36.0570000  48.0610000  65.3460000  20.9990000
  49.9780000  68.3740000  33.5220000  57.7940000  61.9630000  36.1300000
  58.4280000  55.6900000  24.1560000  47.8210000  66.4340000  20.1460000
  49.7540000  55.5910000  35.3450000  49.4850000  60.8190000  22.9280000
  49.0190000  69.2520000  32.9930000  56.6240000  69.7520000  24.6950000
  58.5170000  55.4340000  22.7560000  48.6500000  66.6740000  19.6810000
  48.6600000  60.6020000  22.4440000  50.1600000  61.1410000  22.2960000
  50.5160000  55.1820000  34.8860000  49.0780000  55.8560000  34.6860000
  49.3640000  54.9450000  35.9710000  47.5080000  67.1990000  20.6730000
  49.3010000  61.5160000  23.5920000  47.1370000  66.1880000  19.4880000
  49.3560000  70.1710000  33.0410000  48.1900000  69.1810000  33.5120000
  48.8410000  69.0180000  32.0590000  56.2070000  70.0520000  23.8610000
  57.3050000  70.4000000  24.9710000  57.0420000  68.8760000  24.5550000
  58.8120000  56.2460000  22.2940000  57.6380000  55.1680000  22.4170000
  59.1610000  54.7150000  22.5960000  58.6970000  43.5280000  45.6100000
  58.0930000  42.3990000  46.0950000  59.1840000  34.3370000  52.7260000
  57.7350000  42.2020000  47.4200000  56.7480000  33.8200000  51.3560000
  59.2240000  34.9560000  51.9660000  58.4860000  34.6290000  53.3480000
  60.0490000  34.3290000  53.1870000  57.1060000  41.0210000  47.7990000
  54.7900000  40.3120000  43.3860000  57.0710000  29.5060000  40.3620000
  56.8800000  34.7050000  51.6760000  54.8140000  39.0630000  47.8500000
  56.8710000  40.8860000  48.7100000  58.4500000  37.8410000  46.7210000
  56.1110000  38.8660000  47.2780000  56.4210000  37.6090000  46.6940000
  56.8170000  40.0370000  46.8620000  55.4040000  36.7170000  46.3450000
  57.7550000  37.2470000  46.4620000  53.7350000  38.7860000  42.5610000
  57.1810000  40.2420000  45.5360000  55.7430000  35.5070000  45.7690000
  54.5870000  35.9270000  42.9140000  58.0830000  36.0410000  45.8620000
  55.0040000  37.6300000  49.2850000  54.7520000  39.7190000  42.6450000
  56.9890000  39.5750000  44.8870000  57.8210000  41.4070000  45.1530000
  57.6800000  29.0430000  43.5250000  57.0700000  35.1570000  45.5010000
  54.7870000  34.4230000  45.2920000  58.9920000  35.8200000  45.6980000
  55.7200000  39.7900000  41.6460000  52.0580000  40.8310000  47.6170000
  58.0760000  41.5320000  44.2470000  52.6450000  33.7430000  46.1470000
  54.0190000  33.7240000  46.4150000  53.6470000  34.9090000  44.4010000
  55.7490000  33.4770000  44.5860000  56.7160000  40.7140000  41.8420000
  51.7760000  33.1210000  47.0350000  54.5350000  33.1020000  47.5350000
  53.7390000  35.6650000  43.2520000  52.4140000  34.4830000  44.9040000
  55.4040000  32.3920000  43.8140000  57.0790000  33.8770000  44.7730000
  58.9020000  44.6070000  46.5250000  52.2780000  32.4880000  48.1550000
  50.8400000  33.1310000  46.8730000  53.6550000  32.4670000  48.4240000
  54.4950000  32.1270000  43.7350000  52.5640000  36.0440000  42.5910000
  54.4940000  36.9390000  46.5020000  51.2470000  34.8450000  44.2370000
  55.4710000  33.1050000  47.7010000  56.4100000  31.6800000  43.1430000
  58.0840000  33.1070000  44.1950000  59.4990000  44.3140000  47.2460000
  59.3080000  45.3640000  46.0530000  58.0420000  44.8830000  46.9040000
  51.6790000  32.0580000  48.7540000  54.1430000  31.8180000  49.5720000
  52.6610000  36.8910000  41.4520000  51.3250000  35.6300000  43.0970000
  50.4020000  34.5560000  44.5620000  56.0380000  30.6650000  42.2420000
  57.7510000  32.0270000  43.3760000  58.9960000  33.3160000  44.3580000
  55.3690000  32.2030000  50.1960000  53.3940000  30.7820000  50.2030000
  53.6750000  37.9010000  41.4880000  51.8010000  36.7820000  40.3400000
  54.5960000  37.3960000  39.7500000  54.7630000  30.7370000  41.5950000
  56.9660000  29.7090000  41.7300000  52.1180000  38.6540000  39.6130000
  55.5790000  33.4850000  50.6670000  52.8880000  29.7180000  49.4730000
  56.3590000  31.2400000  50.4070000  53.1750000  30.8160000  51.5790000
  51.6370000  37.8490000  39.4610000  51.0970000  35.6020000  40.0660000
  54.4070000  38.2790000  48.9310000  53.9310000  40.0060000  47.3610000
  54.2860000  31.9150000  41.0400000  57.7410000  28.9210000  42.5850000
  54.6330000  37.9920000  40.4890000  53.9770000  29.5900000  41.5170000
  53.0440000  31.9620000  40.4200000  53.5140000  31.5380000  52.0940000
  52.7620000  29.6170000  40.8750000  51.2210000  34.8420000  40.6230000
  56.5570000  30.0460000  39.7730000  52.1600000  28.7050000  50.0920000
  53.0400000  29.6800000  48.5360000  52.4690000  29.8050000  52.1970000
  50.2270000  35.5270000  38.9990000  50.5270000  35.8910000  42.6520000
  50.7840000  37.7640000  38.3650000  53.0710000  38.7490000  43.2390000
  52.6560000  40.1710000  47.9490000  54.9180000  34.1510000  50.5200000
  53.1540000  38.4260000  49.4970000  54.1830000  40.5490000  46.6230000
  57.5140000  31.5600000  51.0860000  56.2350000  30.3580000  50.0780000
  58.5960000  27.9640000  42.0680000  58.4420000  31.5190000  42.9700000
  55.6460000  38.9420000  40.5530000  54.8170000  32.7010000  41.0840000
  57.9110000  28.5320000  39.8340000  54.2840000  28.7820000  41.9110000
  52.2850000  30.8020000  40.3270000  52.7160000  32.7790000  40.0640000
  52.2460000  28.8220000  40.8070000  51.9620000  28.7490000  51.4610000
  51.8030000  27.9890000  49.5790000  52.3300000  29.8340000  53.1360000
  49.7390000  34.7270000  38.8450000  50.0570000  36.6090000  38.1470000
  50.7010000  38.4980000  37.7680000  52.2870000  39.3750000  48.9990000
  57.9180000  42.8730000  48.0670000  52.8920000  37.8760000  50.2250000
  57.7130000  32.8460000  51.5690000  59.1310000  27.4420000  42.6540000
  58.1780000  30.8950000  51.2260000  58.6770000  27.7600000  40.6900000
  56.2840000  39.0090000  39.8520000  57.9590000  28.3980000  38.8940000
  51.0580000  30.7200000  39.7120000  51.2800000  27.8000000  52.1840000
  49.1500000  36.4150000  37.1260000  51.0670000  39.4430000  49.6490000
  58.8830000  33.0320000  52.2570000  59.5170000  26.7590000  40.2830000
  48.9100000  37.5030000  36.2730000  50.8430000  26.6600000  51.4720000
  50.5740000  31.8870000  39.0550000  50.1080000  40.3210000  49.1200000
  57.7130000  40.8200000  40.8220000  59.6060000  26.5030000  38.8830000
  49.7390000  37.7430000  35.8080000  49.7490000  31.6710000  38.5710000
  51.2490000  32.2100000  38.4230000  51.6060000  26.2500000  51.0130000
  50.1670000  26.9250000  50.8130000  50.4530000  26.0140000  52.0980000
  48.5970000  38.2670000  36.8000000  50.3900000  32.5840000  39.7190000
  48.2270000  37.2570000  35.6150000  50.4450000  41.2400000  49.1680000
  49.2790000  40.2500000  49.6390000  49.9300000  40.0860000  48.1860000
  57.2960000  41.1210000  39.9880000  58.3940000  41.4680000  41.0980000
  58.1310000  39.9450000  40.6820000  59.9020000  27.3140000  38.4210000
  58.7270000  26.2360000  38.5440000  60.2500000  25.7830000  38.7230000
  55.0530000  57.9630000  29.4830000  54.4500000  56.8340000  29.9680000
  55.5400000  48.7720000  36.5990000  54.0910000  56.6370000  31.2930000
  53.1040000  48.2550000  35.2290000  55.5800000  49.3910000  35.8390000
  54.8420000  49.0640000  37.2210000  56.4050000  48.7640000  37.0600000
  53.4620000  55.4560000  31.6720000  51.1470000  54.7470000  27.2590000
  53.4280000  43.9420000  24.2350000  53.2370000  49.1400000  35.5490000
  51.1710000  53.4980000  31.7230000  53.2280000  55.3210000  32.5830000
  54.8060000  52.2760000  30.5940000  52.4670000  53.3010000  31.1510000
  52.7770000  52.0440000  30.5670000  53.1740000  54.4720000  30.7350000
  51.7610000  51.1520000  30.2180000  54.1120000  51.6820000  30.3350000
  50.0910000  53.2210000  26.4340000  53.5380000  54.6770000  29.4090000
  52.0990000  49.9420000  29.6420000  50.9440000  50.3620000  26.7870000
  54.4390000  50.4760000  29.7350000  51.3600000  52.0650000  33.1590000
  51.1080000  54.1540000  26.5180000  53.3450000  54.0110000  28.7600000
  54.1780000  55.8420000  29.0260000  54.0370000  43.4780000  27.3980000
  53.4270000  49.5920000  29.3740000  51.1440000  48.8580000  29.1650000
  55.3480000  50.2550000  29.5710000  52.0760000  54.2250000  25.5190000
  48.4150000  55.2660000  31.4900000  54.4320000  55.9670000  28.1200000
  49.0010000  48.1780000  30.0200000  50.3750000  48.1590000  30.2880000
  50.0040000  49.3440000  28.2740000  52.1050000  47.9120000  28.4590000
  53.0720000  55.1490000  25.7150000  48.1330000  47.5560000  30.9080000
  50.8920000  47.5370000  31.4080000  50.0950000  50.1000000  27.1250000
  48.7700000  48.9180000  28.7770000  51.7610000  46.8270000  27.6870000
  53.4360000  48.3120000  28.6460000  55.2590000  59.0420000  30.3980000
  48.6340000  46.9230000  32.0280000  47.1970000  47.5670000  30.7460000
  50.0120000  46.9030000  32.2970000  50.8520000  46.5620000  27.6080000
  48.9210000  50.4790000  26.4640000  50.8500000  51.3740000  30.3750000
  47.6030000  49.2800000  28.1100000  51.8270000  47.5400000  31.5740000
  52.7670000  46.1150000  27.0160000  54.4410000  47.5420000  28.0680000
  55.8550000  58.7490000  31.1190000  55.6640000  59.7990000  29.9260000
  54.3980000  59.3180000  30.7770000  48.0360000  46.4930000  32.6270000
  50.4990000  46.2530000  33.4450000  49.0170000  51.3260000  25.3250000
  47.6820000  50.0650000  26.9700000  46.7580000  48.9910000  28.4350000
  52.3940000  45.1000000  26.1150000  54.1070000  46.4620000  27.2490000
  55.3530000  47.7510000  28.2310000  51.7250000  46.6380000  34.0690000
  49.7510000  45.2170000  34.0760000  50.0320000  52.3360000  25.3610000
  48.1570000  51.2170000  24.2130000  50.9530000  51.8310000  23.6230000
  51.1200000  45.1720000  25.4690000  53.3230000  44.1440000  25.6030000
  48.4750000  53.0890000  23.4860000  51.9360000  47.9200000  34.5400000
  49.2450000  44.1530000  33.3460000  52.7160000  45.6750000  34.2800000
  49.5320000  45.2510000  35.4520000  47.9930000  52.2840000  23.3340000
  47.4540000  50.0370000  23.9390000  50.7640000  52.7140000  32.8040000
  50.2880000  54.4410000  31.2340000  50.6420000  46.3500000  24.9130000
  54.0970000  43.3560000  26.4580000  50.9900000  52.4270000  24.3620000
  50.3340000  44.0250000  25.3900000  49.4000000  46.3970000  24.2940000
  49.8710000  45.9730000  35.9670000  49.1180000  44.0520000  24.7480000
  47.5780000  49.2770000  24.4960000  52.9140000  44.4810000  23.6460000
  48.5160000  43.1400000  33.9650000  49.3960000  44.1150000  32.4090000
  48.8260000  44.2400000  36.0700000  46.5840000  49.9620000  22.8720000
  46.8840000  50.3260000  26.5250000  47.1410000  52.1990000  22.2380000
  49.4280000  53.1840000  27.1130000  49.0120000  54.6060000  31.8220000
  51.2740000  48.5860000  34.3930000  49.5110000  52.8610000  33.3700000
  50.5390000  54.9840000  30.4960000  53.8700000  45.9950000  34.9590000
  52.5910000  44.7930000  33.9510000  54.9520000  42.3990000  25.9410000
  54.7990000  45.9540000  26.8430000  52.0020000  53.3770000  24.4260000
  51.1730000  47.1360000  24.9570000  54.2680000  42.9670000  23.7070000
  50.6400000  43.2170000  25.7840000  48.6420000  45.2370000  24.2000000
  49.0730000  47.2150000  23.9370000  48.6020000  43.2570000  24.6800000
  48.3180000  43.1840000  35.3340000  48.1590000  42.4250000  33.4520000
  48.6870000  44.2690000  37.0090000  46.0950000  49.1620000  22.7180000
  46.4140000  51.0440000  22.0200000  47.0580000  52.9330000  21.6410000
  48.6430000  53.8100000  32.8720000  54.2740000  57.3080000  31.9400000
  49.2490000  52.3110000  34.0980000  54.0700000  47.2810000  35.4420000
  55.4870000  41.8770000  26.5270000  54.5350000  45.3300000  35.0990000
  55.0330000  42.1950000  24.5630000  52.6400000  53.4440000  23.7250000
  54.3150000  42.8330000  22.7670000  47.4150000  45.1550000  23.5850000
  47.6370000  42.2350000  36.0570000  45.5060000  50.8500000  20.9990000
  47.4230000  53.8780000  33.5220000  55.2400000  47.4670000  36.1300000
  55.8740000  41.1940000  24.1560000  45.2670000  51.9380000  20.1460000
  47.2000000  41.0950000  35.3450000  46.9300000  46.3230000  22.9280000
  46.4640000  54.7560000  32.9930000  54.0700000  55.2550000  24.6950000
  55.9630000  40.9380000  22.7560000  46.0950000  52.1780000  19.6810000
  46.1060000  46.1060000  22.4440000  47.6060000  46.6450000  22.2960000
  47.9620000  40.6850000  34.8860000  46.5240000  41.3600000  34.6860000
  46.8100000  40.4490000  35.9710000  44.9530000  52.7020000  20.6730000
  46.7470000  47.0190000  23.5920000  44.5830000  51.6920000  19.4880000
  46.8020000  55.6750000  33.0410000  45.6360000  54.6850000  33.5120000
  46.2870000  54.5210000  32.0590000  53.6520000  55.5560000  23.8610000
  54.7510000  55.9040000  24.9710000  54.4880000  54.3800000  24.5550000
  56.2580000  41.7490000  22.2940000  55.0840000  40.6710000  22.4170000
  56.6070000  40.2180000  22.5960000  63.8050000  72.5210000  45.6100000
  63.2020000  71.3910000  46.0950000  64.2920000  63.3300000  52.7260000
  62.8430000  71.1950000  47.4200000  61.8560000  62.8120000  51.3560000
  64.3320000  63.9480000  51.9660000  63.5940000  63.6220000  53.3480000
  65.1570000  63.3210000  53.1870000  62.2140000  70.0140000  47.7990000
  59.8990000  69.3040000  43.3860000  62.1800000  58.4990000  40.3620000
  61.9890000  63.6970000  51.6760000  59.9230000  68.0560000  47.8500000
  61.9800000  69.8780000  48.7100000  63.5580000  66.8330000  46.7210000
  61.2190000  67.8580000  47.2780000  61.5290000  66.6010000  46.6940000
  61.9260000  69.0290000  46.8620000  60.5130000  65.7100000  46.3450000
  62.8640000  66.2390000  46.4620000  58.8430000  67.7790000  42.5610000
  62.2900000  69.2340000  45.5360000  60.8510000  64.4990000  45.7690000
  59.6960000  64.9190000  42.9140000  63.1910000  65.0340000  45.8620000
  60.1120000  66.6220000  49.2850000  59.8600000  68.7110000  42.6450000
  62.0970000  68.5680000  44.8870000  62.9300000  70.3990000  45.1530000
  62.7880000  58.0360000  43.5250000  62.1790000  64.1500000  45.5010000
  59.8960000  63.4160000  45.2920000  64.1000000  64.8120000  45.6980000
  60.8280000  68.7820000  41.6460000  57.1670000  69.8230000  47.6170000
  63.1840000  70.5240000  44.2470000  57.7530000  62.7360000  46.1470000
  59.1270000  62.7160000  46.4150000  58.7560000  63.9010000  44.4010000
  60.8570000  62.4690000  44.5860000  61.8240000  69.7060000  41.8420000
  56.8850000  62.1130000  47.0350000  59.6440000  62.0950000  47.5350000
  58.8470000  64.6580000  43.2520000  57.5220000  63.4750000  44.9040000
  60.5130000  61.3840000  43.8140000  62.1880000  62.8690000  44.7730000
  64.0110000  73.5990000  46.5250000  57.3860000  61.4800000  48.1550000
  55.9490000  62.1240000  46.8730000  58.7640000  61.4600000  48.4240000
  59.6040000  61.1200000  43.7350000  57.6730000  65.0360000  42.5910000
  59.6020000  65.9320000  46.5020000  56.3550000  63.8370000  44.2370000
  60.5790000  62.0970000  47.7010000  61.5190000  60.6720000  43.1430000
  63.1930000  62.0990000  44.1950000  64.6070000  73.3070000  47.2460000
  64.4160000  74.3560000  46.0530000  63.1500000  73.8750000  46.9040000
  56.7880000  61.0500000  48.7540000  59.2510000  60.8100000  49.5720000
  57.7690000  65.8830000  41.4520000  56.4340000  64.6220000  43.0970000
  55.5100000  63.5480000  44.5620000  61.1460000  59.6580000  42.2420000
  62.8590000  61.0200000  43.3760000  64.1050000  62.3080000  44.3580000
  60.4770000  61.1960000  50.1960000  58.5030000  59.7750000  50.2030000
  58.7840000  66.8930000  41.4880000  56.9090000  65.7750000  40.3400000
  59.7050000  66.3890000  39.7500000  59.8710000  59.7290000  41.5950000
  62.0750000  58.7010000  41.7300000  57.2270000  67.6470000  39.6130000
  60.6880000  62.4770000  50.6670000  57.9970000  58.7110000  49.4730000
  61.4680000  60.2330000  50.4070000  58.2840000  59.8080000  51.5790000
  56.7450000  66.8420000  39.4610000  56.2060000  64.5940000  40.0660000
  59.5160000  67.2710000  48.9310000  59.0400000  68.9990000  47.3610000
  59.3940000  60.9070000  41.0400000  62.8490000  57.9140000  42.5850000
  59.7420000  66.9840000  40.4890000  59.0860000  58.5830000  41.5170000
  58.1520000  60.9540000  40.4200000  58.6230000  60.5310000  52.0940000
  57.8700000  58.6090000  40.8750000  56.3300000  63.8350000  40.6230000
  61.6660000  59.0380000  39.7730000  57.2680000  57.6970000  50.0920000
  58.1480000  58.6720000  48.5360000  57.5780000  58.7970000  52.1970000
  55.3350000  64.5190000  38.9990000  55.6360000  64.8830000  42.6520000
  55.8920000  66.7560000  38.3650000  58.1800000  67.7420000  43.2390000
  57.7640000  69.1630000  47.9490000  60.0260000  63.1430000  50.5200000
  58.2630000  67.4190000  49.4970000  59.2910000  69.5410000  46.6230000
  62.6220000  60.5520000  51.0860000  61.3430000  59.3500000  50.0780000
  63.7040000  56.9560000  42.0680000  63.5510000  60.5110000  42.9700000
  60.7540000  67.9340000  40.5530000  59.9250000  61.6940000  41.0840000
  63.0200000  57.5250000  39.8340000  59.3920000  57.7740000  41.9110000
  57.3940000  59.7940000  40.3270000  57.8250000  61.7720000  40.0640000
  57.3540000  57.8150000  40.8070000  57.0700000  57.7410000  51.4610000
  56.9110000  56.9820000  49.5790000  57.4390000  58.8260000  53.1360000
  54.8470000  63.7190000  38.8450000  55.1660000  65.6020000  38.1470000
  55.8100000  67.4910000  37.7680000  57.3950000  68.3670000  48.9990000
  63.0260000  71.8650000  48.0670000  58.0010000  66.8680000  50.2250000
  62.8220000  61.8380000  51.5690000  64.2390000  56.4340000  42.6540000
  63.2870000  59.8880000  51.2260000  63.7850000  56.7530000  40.6900000
  61.3920000  68.0010000  39.8520000  63.0670000  57.3910000  38.8940000
  56.1670000  59.7120000  39.7120000  56.3890000  56.7920000  52.1840000
  54.2580000  65.4070000  37.1260000  56.1750000  68.4360000  49.6490000
  63.9920000  62.0240000  52.2570000  64.6260000  55.7520000  40.2830000
  54.0180000  66.4950000  36.2730000  55.9520000  55.6520000  51.4720000
  55.6820000  60.8800000  39.0550000  55.2160000  69.3140000  49.1200000
  62.8210000  69.8130000  40.8220000  64.7150000  55.4960000  38.8830000
  54.8470000  66.7360000  35.8080000  54.8580000  60.6630000  38.5710000
  56.3580000  61.2020000  38.4230000  56.7140000  55.2430000  51.0130000
  55.2760000  55.9170000  50.8130000  55.5620000  55.0060000  52.0980000
  53.7050000  67.2600000  36.8000000  55.4990000  61.5770000  39.7190000
  53.3350000  66.2490000  35.6150000  55.5530000  70.2330000  49.1680000
  54.3880000  69.2420000  49.6390000  55.0390000  69.0790000  48.1860000
  62.4040000  70.1130000  39.9880000  63.5030000  70.4610000  41.0980000
  63.2400000  68.9370000  40.6820000  65.0100000  56.3070000  38.4210000
  63.8360000  55.2290000  38.5440000  65.3590000  54.7760000  38.7230000
  37.8440000   7.3610000  20.9990000  38.7510000   7.5560000  22.0200000
  37.6040000   8.4490000  20.1460000  47.2890000  -1.0900000  25.9410000
  39.4780000   8.7110000  22.2380000  38.4330000   8.6900000  19.6810000
  36.9200000   8.2030000  19.4880000  37.2910000   9.2140000  20.6730000
  45.7650000   0.4530000  24.2350000  43.4840000  11.2580000  27.2590000
  42.4290000   9.7330000  26.4340000  39.3950000   9.4450000  21.6410000
  40.4940000   7.7290000  24.2130000  46.3740000  -0.0100000  27.3980000
  39.2210000   6.8370000  26.5250000  41.3550000   7.8380000  25.3250000
  41.2580000   6.9900000  26.4640000  45.6600000   0.6550000  25.6030000
  42.4330000   6.6120000  27.1250000  40.0190000   6.5760000  26.9700000
  39.7910000   6.5480000  23.9390000  40.3310000   8.7960000  23.3340000
  42.3410000   5.8560000  28.2740000  43.1890000   3.0740000  27.6080000
  39.9400000   5.7910000  28.1100000  42.8770000  11.4950000  30.4960000
  41.4560000   0.5630000  24.7480000  45.2510000   0.9920000  23.6460000
  38.9210000   6.4740000  22.8720000  39.9150000   5.7890000  24.4960000
  41.1080000   5.4290000  28.7770000  43.4810000   5.3700000  29.1650000
  39.0960000   5.5020000  28.4350000  40.9790000   1.7480000  24.2000000
  40.9400000  -0.2310000  24.6800000  38.4330000   5.6730000  22.7180000
  45.7640000   6.1040000  29.3740000  44.4370000   6.4530000  29.6420000
  42.7120000   4.6700000  30.2880000  44.4430000   4.4230000  28.4590000
  39.7520000   1.6670000  23.5850000  46.7760000   6.9880000  29.7350000
  44.0980000   7.6640000  30.2180000  43.2290000   4.0490000  31.4080000
  41.3390000   4.6900000  30.0200000  44.0980000   3.3380000  27.6870000
  45.7730000   4.8230000  28.6460000  39.2680000   2.8340000  22.9280000
  46.4490000   8.1930000  30.3350000  47.6860000   6.7660000  29.5710000
  45.1150000   8.5550000  30.5670000  43.1880000   7.8860000  30.3750000
  42.3490000   3.4140000  32.2970000  44.1640000   4.0510000  31.5740000
  40.4700000   4.0680000  30.9080000  43.2810000   6.8730000  26.7870000
  45.1040000   2.6260000  27.0160000  46.7780000   4.0530000  28.0680000
  39.9430000   3.1560000  22.2960000  39.0840000   3.5310000  23.5920000
  38.4430000   2.6180000  22.4440000  45.5650000  11.8320000  32.5830000
  44.8050000   9.8120000  31.1510000  42.8360000   2.7640000  33.4450000
  40.9720000   3.4340000  32.0280000  39.5340000   4.0780000  30.7460000
  44.7320000   1.6120000  26.1150000  46.4450000   2.9740000  27.2490000
  47.6900000   4.2630000  28.2310000  43.5080000  10.0100000  31.7230000
  45.5110000  10.9840000  30.7350000  42.0880000   1.7290000  34.0760000
  44.0630000   3.1500000  34.0690000  42.9780000  -0.2720000  25.7840000
  42.3690000   8.8470000  25.3610000  43.4570000   1.6840000  25.4690000
  43.5110000   3.6480000  24.9570000  44.2730000   4.4320000  34.5400000
  43.1010000   9.2250000  32.8040000  42.6250000  10.9530000  31.2340000
  45.8750000  11.1880000  29.4090000  45.0530000   2.1870000  34.2800000
  41.5820000   0.6650000  33.3460000  41.8690000   1.7620000  35.4520000
  42.6710000   0.5370000  25.3900000  45.8000000  11.9680000  31.6720000
  43.3270000   8.9380000  24.3620000  42.9800000   2.8610000  24.9130000
  46.4340000  -0.1320000  26.4580000  46.2070000   2.5060000  34.9590000
  43.6970000   8.5760000  33.1590000  45.4420000   4.7660000  35.2290000
  43.6120000   5.0970000  34.3930000  47.1440000   8.7870000  30.5940000
  46.6050000  -0.5210000  23.7070000  45.6820000  10.5220000  28.7600000
  46.4280000  13.1490000  31.2930000  40.8540000  -0.3490000  33.9650000
  44.9290000   1.3040000  33.9510000  41.1630000   0.7510000  36.0700000
  41.7340000   0.6260000  32.4090000  41.8480000   9.3730000  33.3700000
  42.2080000   2.4850000  35.9670000  41.3500000  11.1170000  31.8220000
  40.3730000   3.0040000  32.6270000  46.5150000  12.3540000  29.0260000
  41.7650000   9.6960000  27.1130000  43.4450000  10.6650000  26.5180000
  43.2900000   8.3430000  23.6230000  44.3400000   9.8880000  24.4260000
  40.8120000   9.6010000  23.4860000  41.7370000   2.9090000  24.2940000
  47.1360000   2.4650000  26.8430000  46.4070000   3.7920000  35.4420000
  46.8720000   1.8420000  35.0990000  47.8240000  -1.6110000  26.5270000
  47.3700000  -1.2930000  24.5630000  45.5740000   5.6510000  35.5490000
  46.6120000  13.8190000  31.9400000  41.0240000   0.7810000  37.0090000
  40.6560000  -0.3050000  35.3340000  40.4960000  -1.0640000  33.4520000
  40.9810000  10.3210000  32.8720000  41.5860000   8.8220000  34.0980000
  40.7520000  11.7770000  31.4900000  46.7870000  13.3450000  29.9680000
  46.7700000  12.4790000  28.1200000  44.9770000   9.9550000  23.7250000
  44.4130000  10.7370000  25.5190000  41.4100000   3.7260000  23.9370000
  46.6530000  -0.6550000  22.7670000  47.5770000   3.9780000  36.1300000
  45.4100000  11.6600000  25.7150000  39.9740000  -1.2540000  36.0570000
  39.7610000  10.3900000  33.5220000  47.3900000  14.4750000  29.4830000
  48.2110000  -2.2940000  24.1560000  47.8770000   5.2840000  36.5990000
  46.4070000  11.7670000  24.6950000  39.5370000  -2.3940000  35.3450000
  38.8020000  11.2680000  32.9930000  47.5960000  15.5530000  30.3980000
  48.3000000  -2.5500000  22.7560000  47.1800000   5.5760000  37.2210000
  46.8250000  10.8910000  24.5550000  48.9440000  -3.2700000  22.5960000
  47.0880000  12.4150000  24.9710000  47.9180000   5.9020000  35.8390000
  48.7420000   5.2750000  37.0600000  39.1470000  -3.0400000  35.9710000
  40.2990000  -2.8030000  34.8860000  38.8610000  -2.1280000  34.6860000
  37.9730000  11.1960000  33.5120000  38.6240000  11.0330000  32.0590000
  39.1390000  12.1870000  33.0410000  46.7350000  15.8290000  30.7770000
  48.1920000  15.2610000  31.1190000  48.0020000  16.3100000  29.9260000
  48.5950000  -1.7390000  22.2940000  47.4210000  -2.8170000  22.4170000
  45.9900000  12.0670000  23.8610000  44.0410000   7.4230000  37.1260000
  44.9490000   7.6170000  38.1470000  43.8020000   8.5100000  36.2730000
  53.4870000  -1.0290000  42.0680000  45.6750000   8.7720000  38.3650000
  44.6300000   8.7510000  35.8080000  43.1180000   8.2640000  35.6150000
  43.4880000   9.2750000  36.8000000  51.9630000   0.5140000  40.3620000
  49.6820000  11.3190000  43.3860000  48.6260000   9.7940000  42.5610000
  45.5930000   9.5060000  37.7680000  46.6920000   7.7900000  40.3400000
  52.5710000   0.0510000  43.5250000  45.4190000   6.8980000  42.6520000
  47.5520000   7.8990000  41.4520000  47.4560000   7.0510000  42.5910000
  51.8580000   0.7160000  41.7300000  48.6300000   6.6730000  43.2520000
  46.2170000   6.6380000  43.0970000  45.9890000   6.6090000  40.0660000
  46.5280000   8.8570000  39.4610000  48.5390000   5.9170000  44.4010000
  49.3870000   3.1350000  43.7350000  46.1380000   5.8520000  44.2370000
  49.0740000  11.5570000  46.6230000  47.6530000   0.6240000  40.8750000
  51.4490000   1.0540000  39.7730000  45.1180000   6.5350000  38.9990000
  46.1130000   5.8500000  40.6230000  47.3050000   5.4910000  44.9040000
  49.6790000   5.4310000  45.2920000  45.2930000   5.5640000  44.5620000
  47.1770000   1.8100000  40.3270000  47.1370000  -0.1700000  40.8070000
  44.6300000   5.7340000  38.8450000  51.9620000   6.1650000  45.5010000
  50.6340000   6.5150000  45.7690000  48.9100000   4.7320000  46.4150000
  50.6400000   4.4850000  44.5860000  45.9500000   1.7280000  39.7120000
  52.9740000   7.0490000  45.8620000  50.2960000   7.7250000  46.3450000
  49.4270000   4.1100000  47.5350000  47.5360000   4.7510000  46.1470000
  50.2960000   3.3990000  43.8140000  51.9710000   4.8840000  44.7730000
  45.4650000   2.8950000  39.0550000  52.6470000   8.2540000  46.4620000
  53.8830000   6.8270000  45.6980000  51.3120000   8.6160000  46.6940000
  49.3850000   7.9470000  46.5020000  48.5470000   3.4750000  48.4240000
  50.3620000   4.1120000  47.7010000  46.6680000   4.1290000  47.0350000
  49.4790000   6.9340000  42.9140000  51.3020000   2.6870000  43.1430000
  52.9760000   4.1140000  44.1950000  46.1410000   3.2170000  38.4230000
  45.2820000   3.5920000  39.7190000  44.6410000   2.6790000  38.5710000
  51.7630000  11.8940000  48.7100000  51.0020000   9.8730000  47.2780000
  49.0340000   2.8250000  49.5720000  47.1690000   3.4960000  48.1550000
  45.7320000   4.1390000  46.8730000  50.9290000   1.6730000  42.2420000
  52.6420000   3.0350000  43.3760000  53.8880000   4.3240000  44.3580000
  49.7060000  10.0710000  47.8500000  51.7090000  11.0450000  46.8620000
  48.2860000   1.7900000  50.2030000  50.2600000   3.2110000  50.1960000
  49.1750000  -0.2110000  41.9110000  48.5670000   8.9090000  41.4880000
  49.6550000   1.7450000  41.5950000  49.7080000   3.7090000  41.0840000
  50.4710000   4.4930000  50.6670000  49.2990000   9.2860000  48.9310000
  48.8230000  11.0140000  47.3610000  52.0730000  11.2490000  45.5360000
  51.2510000   2.2480000  50.4070000  47.7800000   0.7260000  49.4730000
  48.0670000   1.8230000  51.5790000  48.8690000   0.5980000  41.5170000
  51.9970000  12.0290000  47.7990000  49.5250000   9.0000000  40.4890000
  49.1770000   2.9230000  41.0400000  52.6320000  -0.0710000  42.5850000
  52.4050000   2.5670000  51.0860000  49.8950000   8.6370000  49.2850000
  51.6390000   4.8280000  51.3560000  49.8090000   5.1580000  50.5200000
  53.3410000   8.8480000  46.7210000  52.8030000  -0.4600000  39.8340000
  51.8800000  10.5830000  44.8870000  52.6260000  13.2100000  47.4200000
  47.0510000  -0.2880000  50.0920000  51.1260000   1.3650000  50.0780000
  47.3610000   0.8130000  52.1970000  47.9310000   0.6880000  48.5360000
  48.0460000   9.4340000  49.4970000  48.4060000   2.5460000  52.0940000
  47.5470000  11.1790000  47.9490000  46.5710000   3.0660000  48.7540000
  52.7130000  12.4150000  45.1530000  47.9630000   9.7570000  43.2390000
  49.6430000  10.7260000  42.6450000  49.4880000   8.4040000  39.7500000
  50.5370000   9.9490000  40.5530000  47.0100000   9.6620000  39.6130000
  47.9350000   2.9700000  40.4200000  53.3340000   2.5260000  42.9700000
  52.6050000   3.8530000  51.5690000  53.0700000   1.9030000  51.2260000
  54.0220000  -1.5500000  42.6540000  53.5680000  -1.2320000  40.6900000
  51.7720000   5.7120000  51.6760000  52.8090000  13.8810000  48.0670000
  47.2220000   0.8420000  53.1360000  46.8530000  -0.2440000  51.4610000
  46.6940000  -1.0030000  49.5790000  47.1780000  10.3820000  48.9990000
  47.7840000   8.8830000  50.2250000  46.9500000  11.8380000  47.6170000
  52.9850000  13.4060000  46.0950000  52.9670000  12.5400000  44.2470000
  51.1750000  10.0160000  39.8520000  50.6110000  10.7980000  41.6460000
  47.6080000   3.7870000  40.0640000  52.8500000  -0.5940000  38.8940000
  53.7750000   4.0390000  52.2570000  51.6070000  11.7210000  41.8420000
  46.1720000  -1.1930000  52.1840000  45.9580000  10.4510000  49.6490000
  53.5880000  14.5360000  45.6100000  54.4090000  -2.2330000  40.2830000
  54.0750000   5.3450000  52.7260000  52.6050000  11.8280000  40.8220000
  45.7350000  -2.3330000  51.4720000  44.9990000  11.3290000  49.1200000
  53.7940000  15.6140000  46.5250000  54.4980000  -2.4890000  38.8830000
  53.3770000   5.6370000  53.3480000  53.0230000  10.9520000  40.6820000
  55.1420000  -3.2090000  38.7230000  53.2860000  12.4760000  41.0980000
  54.1150000   5.9640000  51.9660000  54.9400000   5.3360000  53.1870000
  45.3450000  -2.9790000  52.0980000  46.4970000  -2.7420000  51.0130000
  45.0590000  -2.0670000  50.8130000  44.1710000  11.2570000  49.6390000
  44.8220000  11.0940000  48.1860000  45.3370000  12.2480000  49.1680000
  52.9330000  15.8900000  46.9040000  54.3900000  15.3220000  47.2460000
  54.1990000  16.3710000  46.0530000  54.7930000  -1.6780000  38.4210000
  53.6190000  -2.7560000  38.5440000  52.1870000  12.1280000  39.9880000
  49.0140000  33.3400000   8.6740000  48.1070000  33.1460000   7.6540000
  49.2540000  32.2530000   9.5270000  45.4030000  40.1380000   4.9250000
  47.9370000  34.2280000   6.8020000  46.9150000  37.5460000   7.3780000
  48.4150000  38.0840000   7.2300000  49.9380000  32.4980000  10.1860000
  43.8780000  37.8400000   4.7600000  45.9190000  40.9330000   4.9940000
  47.0670000  34.1540000   5.7340000  48.4250000  35.0290000   6.9560000
  46.3640000  32.9730000   5.4610000  46.0460000  31.1010000   6.1880000
  46.9430000  34.9130000   5.1770000  42.1270000  39.0900000   3.5590000
  41.7540000  38.0760000   2.6570000  41.1980000  40.0470000   4.0700000
  42.7600000  37.3640000   1.9870000  46.8390000  34.1250000   2.7040000
  41.0930000  40.2490000   5.4380000  40.4240000  40.8340000   3.2160000
  42.4150000  36.2780000   1.2150000  43.6690000  37.6280000   2.0650000
  40.0820000  33.7140000  -0.0610000  47.6370000  33.8650000   3.1490000
  39.5690000  41.7920000   3.7330000  41.6070000  39.7090000   6.0280000
  40.2530000  41.2230000   5.9670000  40.4840000  40.7120000   2.2750000
  45.7500000  35.2720000   0.8970000  43.3770000  35.3320000   0.5080000
  47.7630000  35.1990000   1.2390000  39.4880000  41.9950000   5.1100000
  39.0340000  42.3130000   3.1470000  40.2060000  41.3570000   6.9060000
  45.5190000  36.0120000  -0.3460000  44.5170000  34.8460000   1.4000000
  42.4210000  34.2480000   0.0310000  44.1460000  36.0310000  -0.6140000
  38.6470000  42.9960000   5.5180000  46.9180000  34.9110000   1.5630000
  42.7600000  33.0380000  -0.5450000  44.4260000  34.0900000   2.5480000
  41.0940000  34.5980000   0.2990000  43.6290000  36.6530000  -1.7350000
  41.0850000  35.8790000   1.0280000  38.5580000  43.2520000   6.9170000
  40.4090000  32.5090000  -0.6610000  47.3240000  36.6240000  -1.0720000
  41.7440000  32.1470000  -0.8940000  43.6700000  32.8160000  -0.7010000
  45.6000000  33.7120000   3.2100000  43.5770000  33.8290000   2.8860000
  40.0800000  36.6490000   1.6050000  42.6940000  36.6510000  -1.9000000
  44.5090000  37.2880000  -2.6230000  46.3880000  36.6340000  -1.2350000
  39.4370000  43.5190000   7.2570000  37.9140000  43.9720000   7.0770000
  38.2630000  42.4410000   7.3800000  43.9820000  29.2060000  -0.8220000
  45.5040000  32.8640000   4.3480000  42.0540000  30.8900000  -1.4780000
  40.4140000  37.7280000   2.4240000  39.1730000  33.9360000   0.1020000
  44.0220000  37.9380000  -3.7720000  45.8870000  37.2670000  -2.3540000
  39.1680000  36.4390000   1.4420000  41.3470000  29.7180000  -1.0620000
  42.7950000  37.5520000  -4.3960000  43.3500000  30.6920000  -2.0500000
  44.4890000  31.8540000   4.3130000  39.7220000  38.2370000   2.8310000
  43.4010000  39.0180000   4.2050000  44.7700000  38.9730000  -4.4030000
  44.6500000  38.2170000  -6.2930000  44.4300000  30.9690000   3.2400000
  40.9830000  29.5140000   0.2650000  44.2330000  29.7490000  -1.5600000
  43.7570000  31.4770000  -3.1310000  41.0580000  28.7340000  -1.9980000
  44.1870000  40.1650000   4.2830000  43.5310000  31.7630000   5.3110000
  46.5280000  31.9060000   6.3400000  42.5850000  36.2700000  -4.8660000
  45.2760000  40.0370000  -3.6730000  41.8050000  38.5150000  -4.6060000
  44.9890000  38.9400000  -5.7780000  40.4300000  27.5530000  -1.6190000
  41.1760000  30.1800000   0.9140000  40.3430000  28.3480000   0.6470000
  43.1610000  32.1260000  -3.4850000  41.2930000  28.8690000  -2.9090000
  45.0100000  31.3290000  -3.6960000  43.2460000  35.6050000  -4.7190000
  45.5090000  29.5840000  -2.1480000  41.4170000  35.9350000  -5.5560000
  39.7150000  31.9150000  -0.9200000  42.5180000  30.8140000   5.2470000
  43.3480000  37.0540000   4.7160000  43.4130000  30.0370000   3.1560000
  45.0930000  31.0060000   2.5610000  47.3800000  31.9910000   7.4360000
  43.5680000  32.3590000   6.0510000  40.6510000  38.1960000  -5.2860000
  41.9290000  39.3980000  -4.2780000  45.1210000  37.7930000   5.3800000
  43.8810000  40.9740000   3.8900000  46.0040000  41.0510000  -4.2910000
  45.1240000  40.0750000  -2.7360000  45.6950000  39.9500000  -6.3960000
  46.4850000  37.6970000  -2.9540000  40.0710000  27.3570000  -0.2950000
  40.2460000  26.8820000  -2.2660000  39.9860000  38.8600000  -5.4250000
  45.8780000  30.3810000  -3.1990000  46.1060000  28.9250000  -1.8160000
  43.3740000  29.4440000   2.4150000  41.2840000  35.0510000  -5.8750000
  46.2030000  41.0070000  -5.6600000  41.8810000  30.7470000   5.9480000
  42.4450000  29.9650000   4.1550000  40.0880000  28.2230000   1.5540000
  47.4630000  31.2570000   8.0330000  45.8790000  38.9530000   5.4740000
  45.2720000  31.8790000  -4.4240000  45.4480000  36.9760000   5.7370000
  40.4510000  36.9100000  -5.7690000  46.3620000  41.7660000  -3.7780000
  45.8340000  39.9210000  -7.3360000  39.4680000  26.2270000   0.1910000
  47.0980000  30.3120000  -3.8480000  39.2810000  36.7240000  -6.4560000
  41.4480000  29.0420000   3.9580000  47.1060000  39.0350000   6.0890000
  46.8840000  41.9560000  -6.3830000  39.2620000  25.1490000  -0.7240000
  48.0570000  29.4340000  -3.3200000  47.3210000  43.0960000  -5.6720000
  40.4510000  28.9350000   4.9780000  47.5900000  37.8680000   6.7460000
  38.9810000  35.4180000  -6.9250000  38.8570000  24.3920000  -0.2520000
  40.1230000  24.8730000  -1.1030000  38.6660000  25.4410000  -1.4450000
  47.7190000  28.5150000  -3.3670000  48.2340000  29.6690000  -2.3850000
  48.8850000  29.5050000  -3.8380000  38.1160000  35.4270000  -7.3860000
  47.7110000  43.7420000  -6.2970000  46.5590000  43.5050000  -5.2120000
  39.7700000  28.2870000   4.7030000  40.0330000  29.8110000   5.1190000
  40.8680000  28.6350000   5.8120000  49.5680000  31.4880000   9.0010000
  47.7740000  37.1710000   6.0810000  48.4260000  32.0120000   9.9920000
  38.9410000  34.7990000  -6.1660000  47.9970000  42.8300000  -5.0120000
  39.6790000  35.1260000  -7.5470000  54.1230000  62.3330000   8.6740000
  53.2150000  62.1390000   7.6540000  54.3630000  61.2450000   9.5270000
  50.5110000  69.1310000   4.9250000  53.0460000  63.2210000   6.8020000
  52.0240000  66.5380000   7.3780000  53.5240000  67.0770000   7.2300000
  55.0460000  61.4910000  10.1860000  48.9870000  66.8330000   4.7600000
  51.0270000  69.9250000   4.9940000  52.1760000  63.1460000   5.7340000
  53.5340000  64.0210000   6.9560000  51.4720000  61.9650000   5.4610000
  51.1550000  60.0930000   6.1880000  52.0510000  63.9050000   5.1770000
  47.2350000  68.0820000   3.5590000  46.8620000  67.0680000   2.6570000
  46.3060000  69.0390000   4.0700000  47.8690000  66.3560000   1.9870000
  51.9480000  63.1180000   2.7040000  46.2010000  69.2410000   5.4380000
  45.5320000  69.8260000   3.2160000  47.5240000  65.2710000   1.2150000
  48.7780000  66.6200000   2.0650000  45.1900000  62.7070000  -0.0610000
  52.7460000  62.8570000   3.1490000  44.6770000  70.7840000   3.7330000
  46.7150000  68.7020000   6.0280000  45.3620000  70.2150000   5.9670000
  45.5930000  69.7050000   2.2750000  50.8590000  64.2650000   0.8970000
  48.4860000  64.3250000   0.5080000  52.8710000  64.1920000   1.2390000
  44.5960000  70.9880000   5.1100000  44.1420000  71.3060000   3.1470000
  45.3140000  70.3500000   6.9060000  50.6280000  65.0040000  -0.3460000
  49.6250000  63.8390000   1.4000000  47.5300000  63.2410000   0.0310000
  49.2540000  65.0240000  -0.6140000  43.7550000  71.9890000   5.5180000
  52.0260000  63.9030000   1.5630000  47.8690000  62.0300000  -0.5450000
  49.5340000  63.0820000   2.5480000  46.2030000  63.5900000   0.2990000
  48.7380000  65.6460000  -1.7350000  46.1940000  64.8710000   1.0280000
  43.6670000  72.2450000   6.9170000  45.5180000  61.5010000  -0.6610000
  52.4330000  65.6160000  -1.0720000  46.8520000  61.1390000  -0.8940000
  48.7790000  61.8080000  -0.7010000  50.7080000  62.7040000   3.2100000
  48.6860000  62.8210000   2.8860000  45.1890000  65.6410000   1.6050000
  47.8020000  65.6430000  -1.9000000  49.6180000  66.2800000  -2.6230000
  51.4970000  65.6270000  -1.2350000  44.5450000  72.5110000   7.2570000
  43.0220000  72.9640000   7.0770000  43.3710000  71.4330000   7.3800000
  49.0900000  58.1990000  -0.8220000  50.6120000  61.8570000   4.3480000
  47.1620000  59.8820000  -1.4780000  45.5220000  66.7200000   2.4240000
  44.2810000  62.9280000   0.1020000  49.1300000  66.9300000  -3.7720000
  50.9950000  66.2600000  -2.3540000  44.2760000  65.4320000   1.4420000
  46.4560000  58.7110000  -1.0620000  47.9040000  66.5440000  -4.3960000
  48.4590000  59.6840000  -2.0500000  49.5970000  60.8470000   4.3130000
  44.8300000  67.2290000   2.8310000  48.5100000  68.0110000   4.2050000
  49.8780000  67.9650000  -4.4030000  49.7580000  67.2090000  -6.2930000
  49.5380000  59.9610000   3.2400000  46.0920000  58.5060000   0.2650000
  49.3420000  58.7410000  -1.5600000  48.8660000  60.4690000  -3.1310000
  46.1670000  57.7270000  -1.9980000  49.2960000  69.1580000   4.2830000
  48.6400000  60.7560000   5.3110000  51.6360000  60.8980000   6.3400000
  47.6930000  65.2630000  -4.8660000  50.3850000  69.0290000  -3.6730000
  46.9140000  67.5070000  -4.6060000  50.0970000  67.9320000  -5.7780000
  45.5380000  56.5460000  -1.6190000  46.2840000  59.1720000   0.9140000
  45.4520000  57.3410000   0.6470000  48.2690000  61.1180000  -3.4850000
  46.4020000  57.8620000  -2.9090000  50.1190000  60.3210000  -3.6960000
  48.3550000  64.5970000  -4.7190000  50.6170000  58.5770000  -2.1480000
  46.5250000  64.9280000  -5.5560000  44.8230000  60.9070000  -0.9200000
  47.6270000  59.8060000   5.2470000  48.4560000  66.0460000   4.7160000
  48.5210000  59.0290000   3.1560000  50.2010000  59.9980000   2.5610000
  52.4890000  60.9840000   7.4360000  48.6760000  61.3520000   6.0510000
  45.7590000  67.1880000  -5.2860000  47.0380000  68.3900000  -4.2780000
  50.2290000  66.7860000   5.3800000  48.9890000  69.9660000   3.8900000
  51.1130000  70.0430000  -4.2910000  50.2330000  69.0680000  -2.7360000
  50.8040000  68.9430000  -6.3960000  51.5940000  66.6900000  -2.9540000
  45.1800000  56.3490000  -0.2950000  45.3550000  55.8750000  -2.2660000
  45.0950000  67.8520000  -5.4250000  50.9860000  59.3730000  -3.1990000
  51.2150000  57.9170000  -1.8160000  48.4820000  58.4360000   2.4150000
  46.3930000  64.0430000  -5.8750000  51.3110000  69.9990000  -5.6600000
  46.9890000  59.7390000   5.9480000  47.5530000  58.9580000   4.1550000
  45.1970000  57.2160000   1.5540000  52.5720000  60.2500000   8.0330000
  50.9880000  67.9460000   5.4740000  50.3810000  60.8720000  -4.4240000
  50.5570000  65.9680000   5.7370000  45.5600000  65.9020000  -5.7690000
  51.4700000  70.7580000  -3.7780000  50.9430000  68.9140000  -7.3360000
  44.5760000  55.2190000   0.1910000  52.2060000  59.3050000  -3.8480000
  44.3890000  65.7160000  -6.4560000  46.5570000  58.0340000   3.9580000
  52.2140000  68.0280000   6.0890000  51.9930000  70.9480000  -6.3830000
  44.3700000  54.1410000  -0.7240000  53.1650000  58.4260000  -3.3200000
  52.4300000  72.0880000  -5.6720000  45.5600000  57.9270000   4.9780000
  52.6990000  66.8600000   6.7460000  44.0890000  64.4100000  -6.9250000
  43.9650000  53.3840000  -0.2520000  45.2310000  53.8650000  -1.1030000
  43.7740000  54.4340000  -1.4450000  52.8280000  57.5080000  -3.3670000
  53.3420000  58.6610000  -2.3850000  53.9940000  58.4980000  -3.8380000
  43.2240000  64.4190000  -7.3860000  52.8200000  72.7340000  -6.2970000
  51.6670000  72.4970000  -5.2120000  44.8790000  57.2790000   4.7030000
  45.1410000  58.8030000   5.1190000  45.9770000  57.6270000   5.8120000
  54.6760000  60.4800000   9.0010000  52.8820000  66.1630000   6.0810000
  53.5340000  61.0050000   9.9920000  44.0490000  63.7920000  -6.1660000
  53.1060000  71.8230000  -5.0120000  44.7870000  64.1180000  -7.5470000
  36.9140000  11.7310000   0.1910000  37.5170000  12.8600000  -0.2950000
  37.8970000  14.4390000   4.9780000  42.9540000  15.0880000  -2.1480000
  39.9640000  16.3170000   5.2470000  37.2160000  13.7910000   4.7030000
  38.3140000  14.1380000   5.8120000  37.4790000  15.3140000   5.1190000
  41.2030000  16.9810000  -3.1310000  37.6920000  12.3860000  -2.2660000
  40.9770000  17.2670000   5.3110000  39.3270000  16.2500000   5.9480000
  40.7960000  16.1960000  -2.0500000  40.7930000  22.5580000   4.7160000
  43.4920000  16.6050000   6.1880000  41.4670000  23.4410000  -3.7720000
  41.9550000  22.7920000  -2.6230000  43.8100000  18.4770000   5.4610000
  41.8710000  19.5940000   2.5480000  37.8590000  23.2320000   2.4240000
  38.5390000  25.7530000   5.4380000  43.9730000  17.4100000   6.3400000
  39.8670000  19.7520000   0.0310000  41.0230000  19.3330000   2.8860000
  37.5260000  22.1520000   1.6050000  41.3260000  26.4770000   3.8900000
  42.5660000  23.2970000   5.3800000  39.0530000  25.2130000   6.0280000
  45.3830000  19.7320000   6.8020000  41.0140000  17.8630000   6.0510000
  38.5310000  21.3830000   1.0280000  40.8230000  20.8360000   0.5080000
  36.6180000  19.4390000   0.1020000  45.5530000  18.6500000   7.6540000
  40.8200000  14.9470000   2.4150000  45.8710000  20.5320000   6.9560000
  38.5400000  20.1020000   0.2990000  41.5920000  21.5350000  -0.6140000
  41.9630000  20.3500000   1.4000000  39.8610000  21.7820000   1.2150000
  46.4600000  18.8440000   8.6740000  37.5280000  19.2180000  -0.0610000
  41.0750000  22.1570000  -1.7350000  40.2060000  22.8670000   1.9870000
  42.9650000  21.5160000  -0.3460000  40.2060000  18.5420000  -0.5450000
  43.1960000  20.7760000   0.8970000  46.7000000  17.7560000   9.5270000
  37.8550000  18.0120000  -0.6610000  36.6140000  21.9430000   1.4420000
  39.1890000  17.6510000  -0.8940000  40.1390000  22.1550000  -1.9000000
  39.2000000  23.5790000   2.6570000  41.1150000  23.1320000   2.0650000
  44.3630000  20.4140000   1.5630000  41.1160000  18.3200000  -0.7010000
  43.0460000  19.2150000   3.2100000  43.8340000  22.1380000  -1.2350000
  44.3610000  23.0490000   7.3780000  35.7090000  27.9450000   7.3800000
  45.8610000  23.5880000   7.2300000  37.1600000  17.4180000  -0.9200000
  39.4990000  16.3930000  -1.4780000  39.5720000  24.5940000   3.5590000
  43.3320000  22.7710000  -2.3540000  44.7700000  22.1280000  -1.0720000
  42.9490000  18.3680000   4.3480000  44.2850000  19.6290000   2.7040000
  45.2080000  20.7030000   1.2390000  42.2160000  24.4770000  -4.4030000
  40.2410000  23.0560000  -4.3960000  40.8470000  24.5220000   4.2050000
  38.6440000  25.5510000   4.0700000  40.6920000  21.1080000  -4.7190000
  38.7930000  15.2220000  -1.0620000  41.9350000  17.3580000   4.3130000
  45.0830000  19.3680000   3.1490000  42.4350000  24.4440000  -5.7780000
  42.7220000  25.5410000  -3.6730000  40.0310000  21.7740000  -4.8660000
  39.2510000  24.0190000  -4.6060000  44.5130000  19.6570000   5.7340000
  41.6330000  25.6690000   4.2830000  41.3240000  23.3440000   4.7600000
  37.8700000  26.3380000   3.2160000  41.6790000  15.2530000  -1.5600000
  38.4290000  15.0170000   0.2650000  41.8750000  16.4730000   3.2400000
  38.5040000  14.2380000  -1.9980000  43.1410000  25.4540000  -6.3960000
  43.9310000  23.2010000  -2.9540000  43.4500000  26.5550000  -4.2910000
  39.3750000  24.9010000  -4.2780000  42.0960000  23.7210000  -6.2930000
  38.0960000  23.6990000  -5.2860000  40.6060000  17.6290000  -3.4850000
  42.4560000  16.8330000  -3.6960000  38.8620000  21.4390000  -5.5560000
  42.5700000  25.5790000  -2.7360000  42.8480000  25.6420000   4.9250000
  44.3890000  20.4170000   5.1770000  37.0150000  27.2950000   3.7330000
  37.9300000  26.2160000   2.2750000  37.6990000  26.7270000   5.9670000
  37.1680000  23.7400000   2.8310000  37.7890000  13.8520000   0.6470000
  38.7390000  14.3730000  -2.9090000  37.8750000  13.0570000  -1.6190000
  38.6210000  15.6840000   0.9140000  44.8260000  17.4950000   7.4360000
  42.5390000  16.5100000   2.5610000  40.8590000  15.5410000   3.1560000
  41.4270000  14.7100000  -0.8220000  43.6480000  26.5100000  -5.6600000
  43.8070000  27.2700000  -3.7780000  38.7300000  20.5540000  -5.8750000
  37.8970000  22.4130000  -5.7690000  43.2800000  25.4250000  -7.3360000
  37.4320000  24.3640000  -5.4250000  42.8940000  22.4800000   5.7370000
  43.3250000  24.4570000   5.4740000  43.3640000  26.4370000   4.9940000
  36.9330000  27.4990000   5.1100000  36.4800000  27.8170000   3.1470000
  37.6510000  26.8610000   6.9060000  43.3230000  15.8840000  -3.1990000
  42.7180000  17.3830000  -4.4240000  37.5340000  13.7270000   1.5540000
  39.8900000  15.4690000   4.1550000  44.9090000  16.7610000   8.0330000
  43.5520000  14.4280000  -1.8160000  44.3300000  27.4600000  -6.3830000
  36.7270000  22.2270000  -6.4560000  44.5520000  24.5390000   6.0890000
  36.0930000  28.5000000   5.5180000  44.5430000  15.8160000  -3.8480000
  38.8940000  14.5450000   3.9580000  44.7670000  28.6000000  -5.6720000
  36.4270000  20.9220000  -6.9250000  45.0360000  23.3720000   6.7460000
  36.0040000  28.7560000   6.9170000  45.5020000  14.9380000  -3.3200000
  36.7080000  10.6520000  -0.7240000  45.4430000  28.3340000  -5.0120000
  44.0050000  29.0090000  -5.2120000  45.1650000  14.0190000  -3.3670000
  35.5620000  20.9310000  -7.3860000  37.1240000  20.6300000  -7.5470000
  36.3020000   9.8960000  -0.2520000  36.1110000  10.9450000  -1.4450000
  45.1570000  29.2450000  -6.2970000  45.2200000  22.6750000   6.0810000
  37.5690000  10.3770000  -1.1030000  35.3600000  29.4760000   7.0770000
  36.8830000  29.0230000   7.2570000  36.3860000  20.3030000  -6.1660000
  45.6800000  15.1730000  -2.3850000  46.3310000  15.0090000  -3.8380000
  47.3840000  18.0020000  10.1860000  47.0130000  16.9920000   9.0010000
  45.8710000  17.5160000   9.9920000  51.5690000  47.8370000   8.6740000
  50.6610000  47.6420000   7.6540000  51.8090000  46.7490000   9.5270000
  47.9570000  54.6350000   4.9250000  50.4920000  48.7240000   6.8020000
  49.4690000  52.0420000   7.3780000  50.9690000  52.5800000   7.2300000
  52.4920000  46.9950000  10.1860000  46.4330000  52.3370000   4.7600000
  48.4730000  55.4290000   4.9940000  49.6210000  48.6500000   5.7340000
  50.9800000  49.5250000   6.9560000  48.9180000  47.4690000   5.4610000
  48.6000000  45.5970000   6.1880000  49.4970000  49.4090000   5.1770000
  44.6810000  53.5860000   3.5590000  44.3080000  52.5720000   2.6570000
  43.7520000  54.5430000   4.0700000  45.3140000  51.8600000   1.9870000
  49.3930000  48.6220000   2.7040000  43.6470000  54.7450000   5.4380000
  42.9780000  55.3300000   3.2160000  44.9700000  50.7750000   1.2150000
  46.2240000  52.1240000   2.0650000  42.6360000  48.2100000  -0.0610000
  50.1910000  48.3610000   3.1490000  42.1230000  56.2880000   3.7330000
  44.1610000  54.2060000   6.0280000  42.8080000  55.7190000   5.9670000
  43.0390000  55.2080000   2.2750000  48.3050000  49.7690000   0.8970000
  45.9310000  49.8280000   0.5080000  50.3170000  49.6960000   1.2390000
  42.0420000  56.4910000   5.1100000  41.5880000  56.8090000   3.1470000
  42.7600000  55.8530000   6.9060000  48.0740000  50.5080000  -0.3460000
  47.0710000  49.3430000   1.4000000  44.9760000  48.7450000   0.0310000
  46.7000000  50.5280000  -0.6140000  41.2010000  57.4920000   5.5180000
  49.4720000  49.4070000   1.5630000  45.3140000  47.5340000  -0.5450000
  46.9800000  48.5860000   2.5480000  43.6490000  49.0940000   0.2990000
  46.1830000  51.1490000  -1.7350000  43.6400000  50.3750000   1.0280000
  41.1120000  57.7480000   6.9170000  42.9640000  47.0050000  -0.6610000
  49.8780000  51.1200000  -1.0720000  44.2980000  46.6430000  -0.8940000
  46.2250000  47.3120000  -0.7010000  48.1540000  48.2080000   3.2100000
  46.1310000  48.3250000   2.8860000  42.6340000  51.1450000   1.6050000
  45.2480000  51.1470000  -1.9000000  47.0630000  51.7840000  -2.6230000
  48.9420000  51.1300000  -1.2350000  41.9910000  58.0150000   7.2570000
  40.4680000  58.4680000   7.0770000  40.8170000  56.9370000   7.3800000
  46.5360000  43.7030000  -0.8220000  48.0580000  47.3600000   4.3480000
  44.6080000  45.3860000  -1.4780000  42.9680000  52.2240000   2.4240000
  41.7270000  48.4320000   0.1020000  46.5760000  52.4340000  -3.7720000
  48.4410000  51.7640000  -2.3540000  41.7220000  50.9360000   1.4420000
  43.9020000  44.2140000  -1.0620000  45.3500000  52.0480000  -4.3960000
  45.9050000  45.1880000  -2.0500000  47.0430000  46.3510000   4.3130000
  42.2760000  52.7330000   2.8310000  45.9560000  53.5140000   4.2050000
  47.3240000  53.4690000  -4.4030000  47.2040000  52.7130000  -6.2930000
  46.9840000  45.4650000   3.2400000  43.5380000  44.0100000   0.2650000
  46.7870000  44.2450000  -1.5600000  46.3120000  45.9730000  -3.1310000
  43.6130000  43.2300000  -1.9980000  46.7410000  54.6610000   4.2830000
  46.0860000  46.2600000   5.3110000  49.0820000  46.4020000   6.3400000
  45.1390000  50.7660000  -4.8660000  47.8310000  54.5330000  -3.6730000
  44.3600000  53.0110000  -4.6060000  47.5430000  53.4360000  -5.7780000
  42.9840000  42.0490000  -1.6190000  43.7300000  44.6760000   0.9140000
  42.8970000  42.8440000   0.6470000  45.7150000  46.6220000  -3.4850000
  43.8470000  43.3660000  -2.9090000  47.5640000  45.8250000  -3.6960000
  45.8010000  50.1010000  -4.7190000  48.0630000  44.0810000  -2.1480000
  43.9710000  50.4320000  -5.5560000  42.2690000  46.4110000  -0.9200000
  45.0730000  45.3100000   5.2470000  45.9020000  51.5500000   4.7160000
  45.9670000  44.5330000   3.1560000  47.6470000  45.5020000   2.5610000
  49.9350000  46.4870000   7.4360000  46.1220000  46.8550000   6.0510000
  43.2050000  52.6920000  -5.2860000  44.4840000  53.8940000  -4.2780000
  47.6750000  52.2890000   5.3800000  46.4350000  55.4700000   3.8900000
  48.5590000  55.5470000  -4.2910000  47.6790000  54.5720000  -2.7360000
  48.2490000  54.4470000  -6.3960000  49.0390000  52.1940000  -2.9540000
  42.6250000  41.8530000  -0.2950000  42.8010000  41.3790000  -2.2660000
  42.5400000  53.3560000  -5.4250000  48.4320000  44.8770000  -3.1990000
  48.6600000  43.4210000  -1.8160000  45.9280000  43.9400000   2.4150000
  43.8380000  49.5470000  -5.8750000  48.7570000  55.5030000  -5.6600000
  44.4350000  45.2430000   5.9480000  44.9990000  44.4620000   4.1550000
  42.6430000  42.7190000   1.5540000  50.0170000  45.7530000   8.0330000
  48.4340000  53.4500000   5.4740000  47.8260000  46.3760000  -4.4240000
  48.0020000  51.4720000   5.7370000  43.0060000  51.4060000  -5.7690000
  48.9160000  56.2620000  -3.7780000  48.3880000  54.4170000  -7.3360000
  42.0220000  40.7230000   0.1910000  49.6520000  44.8080000  -3.8480000
  41.8350000  51.2200000  -6.4560000  44.0030000  43.5380000   3.9580000
  49.6600000  53.5310000   6.0890000  49.4380000  56.4520000  -6.3830000
  41.8160000  39.6450000  -0.7240000  50.6110000  43.9300000  -3.3200000
  49.8750000  57.5920000  -5.6720000  43.0060000  43.4310000   4.9780000
  50.1450000  52.3640000   6.7460000  41.5350000  49.9140000  -6.9250000
  41.4110000  38.8880000  -0.2520000  42.6770000  39.3690000  -1.1030000
  41.2200000  39.9370000  -1.4450000  50.2740000  43.0110000  -3.3670000
  50.7880000  44.1650000  -2.3850000  51.4390000  44.0020000  -3.8380000
  40.6700000  49.9230000  -7.3860000  50.2660000  58.2380000  -6.2970000
  49.1130000  58.0010000  -5.2120000  42.3240000  42.7830000   4.7030000
  42.5870000  44.3070000   5.1190000  43.4230000  43.1310000   5.8120000
  52.1220000  45.9840000   9.0010000  50.3280000  51.6670000   6.0810000
  50.9800000  46.5080000   9.9920000  41.4950000  49.2960000  -6.1660000
  50.5520000  57.3260000  -5.0120000  42.2330000  49.6220000  -7.5470000
  43.9060000   4.3480000   8.6740000  42.9990000   4.1540000   7.6540000
  44.1460000   3.2600000   9.5270000  42.2720000   2.9990000   7.4360000
  42.8290000   5.2360000   6.8020000  41.8070000   8.5530000   7.3780000
  43.3070000   9.0920000   7.2300000  44.8290000   3.5060000  10.1860000
  41.9590000   5.1610000   5.7340000  42.3550000   2.2650000   8.0330000
  41.4190000   2.9140000   6.3400000  43.3170000   6.0360000   6.9560000
  39.3810000   2.8620000   4.3130000  41.8350000   5.9210000   5.1770000
  42.5290000   4.8720000   3.1490000  40.3950000   3.8720000   4.3480000
  40.4910000   4.7190000   3.2100000  41.2550000   3.9810000   5.4610000
  39.3170000   5.0980000   2.5480000  41.7310000   5.1330000   2.7040000
  35.9850000  11.2560000   5.4380000  40.1680000  11.0450000  -3.6730000
  39.4080000   5.8540000   1.4000000  38.5610000   8.6360000   2.0650000
  41.8090000   5.9180000   1.5630000  38.4590000   3.3670000   6.0510000
  40.2940000  11.1460000   4.9250000  36.4980000  10.7170000   6.0280000
  40.0120000   8.8010000   5.3800000  40.9380000   2.1090000   6.1880000
  40.6420000   6.2800000   0.8970000  38.2690000   6.3400000   0.5080000
  42.6540000   6.2070000   1.2390000  40.7710000   9.9610000   5.4740000
  40.8100000  11.9410000   4.9940000  41.2530000  12.7730000  -3.7780000
  35.9860000   5.6060000   0.2990000  37.3130000   5.2560000   0.0310000
  37.3070000   7.2860000   1.2150000  39.0370000   7.0390000  -0.6140000
  41.9970000  10.0430000   6.0890000  34.9730000   4.7220000  -0.0610000
  37.6520000   4.0460000  -0.5450000  37.6520000   8.3710000   1.9870000
  35.9770000   6.8860000   1.0280000  38.5210000   7.6610000  -1.7350000
  40.4110000   7.0200000  -0.3460000  33.4500000  14.2600000   6.9170000
  35.3010000   3.5160000  -0.6610000  34.0640000   4.9430000   0.1020000
  36.6350000   3.1540000  -0.8940000  38.5620000   3.8240000  -0.7010000
  36.6450000   9.0830000   2.6570000  37.5850000   7.6580000  -1.9000000
  34.9720000   7.6560000   1.6050000  38.4690000   4.8360000   2.8860000
  39.4010000   8.2960000  -2.6230000  41.2800000   7.6420000  -1.2350000
  34.3290000  14.5270000   7.2570000  32.8050000  14.9800000   7.0770000
  42.8890000  13.8380000  -5.0120000  36.0670000   1.1880000   0.9140000
  36.9450000   1.8970000  -1.4780000  37.0180000  10.0980000   3.5590000
  35.3050000   8.7360000   2.4240000  34.0590000   7.4470000   1.4420000
  38.9130000   8.9450000  -3.7720000  40.7780000   8.2750000  -2.3540000
  42.2160000   7.6320000  -1.0720000  37.6870000   8.5600000  -4.3960000
  36.2390000   0.7260000  -1.0620000  38.2930000  10.0260000   4.2050000
  36.0890000  11.0540000   4.0700000  40.0160000  11.0830000  -2.7360000
  38.2420000   1.7000000  -2.0500000  39.6610000   9.9810000  -4.4030000
  41.3770000   8.7050000  -2.9540000  38.4230000   2.7710000   5.3110000
  37.4760000   7.2780000  -4.8660000  35.8750000   0.5210000   0.2650000
  39.3210000   1.9770000   3.2400000  36.6970000   9.5230000  -4.6060000
  39.0790000  11.1730000   4.2830000  38.7700000   8.8480000   4.7600000
  35.3150000  11.8420000   3.2160000  39.1250000   0.7570000  -1.5600000
  35.9500000  -0.2580000  -1.9980000  39.8800000   9.9470000  -5.7780000
  38.6490000   2.4840000  -3.1310000  40.4000000   0.5920000  -2.1480000
  38.2390000   8.0620000   4.7160000  36.3080000   6.9430000  -5.5560000
  36.1850000  -0.1230000  -2.9090000  34.6060000   2.9220000  -0.9200000
  35.3210000  -1.4390000  -1.6190000  38.8730000   0.2140000  -0.8220000
  35.2350000  -0.6440000   0.6470000  35.5420000   9.2030000  -5.2860000
  36.8210000  10.4050000  -4.2780000  34.4600000  12.7990000   3.7330000
  35.3760000  11.7200000   2.2750000  37.4100000   1.8210000   5.2470000
  38.7720000  11.9810000   3.8900000  35.1450000  12.2310000   5.9670000
  34.6130000   9.2440000   2.8310000  38.3040000   1.0440000   3.1560000
  38.0520000   3.1330000  -3.4850000  39.9020000   2.3370000  -3.6960000
  39.9840000   2.0140000   2.5610000  40.5870000  10.9580000  -6.3960000
  39.5410000   9.2250000  -6.2930000  40.8960000  12.0580000  -4.2910000
  38.1380000   6.6120000  -4.7190000  35.3430000   7.9170000  -5.7690000
  38.2650000   0.4510000   2.4150000  36.1760000   6.0580000  -5.8750000
  34.9630000  -1.6360000  -0.2950000  35.1380000  -2.1100000  -2.2660000
  34.9800000  -0.7690000   1.5540000  34.8780000   9.8680000  -5.4250000
  41.0940000  12.0140000  -5.6600000  33.9250000  13.3210000   3.1470000
  34.3790000  13.0030000   5.1100000  36.7720000   1.7540000   5.9480000
  35.0970000  12.3650000   6.9060000  37.3360000   0.9730000   4.1550000
  40.1640000   2.8870000  -4.4240000  40.9980000  -0.0680000  -1.8160000
  40.7690000   1.3880000  -3.1990000  40.7260000  10.9290000  -7.3360000
  40.3400000   7.9830000   5.7370000  41.9890000   1.3200000  -3.8480000
  34.3590000  -2.7650000   0.1910000  34.1720000   7.7310000  -6.4560000
  33.5380000  14.0040000   5.5180000  36.3400000   0.0490000   3.9580000
  41.7760000  12.9630000  -6.3830000  33.8720000   6.4260000  -6.9250000
  34.1540000  -3.8440000  -0.7240000  42.9480000   0.4420000  -3.3200000
  35.3430000  -0.0570000   4.9780000  42.4820000   8.8750000   6.7460000
  42.2130000  14.1030000  -5.6720000  34.5700000   6.1340000  -7.5470000
  33.0070000   6.4340000  -7.3860000  33.8320000   5.8070000  -6.1660000
  33.7480000  -4.6010000  -0.2520000  34.6620000  -0.7060000   4.7030000
  35.0140000  -4.1200000  -1.1030000  42.6110000  -0.4770000  -3.3670000
  43.1250000   0.6770000  -2.3850000  43.7770000   0.5130000  -3.8380000
  35.7600000  -0.3580000   5.8120000  34.9250000   0.8180000   5.1190000
  33.1540000  13.4490000   7.3800000  33.5570000  -3.5510000  -1.4450000
  43.3170000   3.0200000   9.9920000  44.4590000   2.4960000   9.0010000
  41.4500000  14.5130000  -5.2120000  42.6030000  14.7490000  -6.2970000
  42.6650000   8.1790000   6.0810000  42.9240000  22.2880000   9.6710000
  43.7150000  12.9220000  15.8320000  42.9050000  10.7140000  15.4030000
  51.0240000  17.5560000  23.5630000  45.0600000  21.5000000  10.5710000
  41.7590000  20.9920000   8.7410000  43.4140000  13.8520000  20.8300000
  42.5000000   9.9570000  15.8750000  47.4010000  17.0420000  12.9960000
  43.8900000  12.4470000  13.8610000  44.7020000  14.2990000  14.1290000
  44.9280000  20.6150000  10.2520000  46.4390000  23.1170000  11.7310000
  46.9910000  22.6190000  20.8430000  43.3580000  17.4800000  15.2070000
  45.6970000  16.4540000  14.6490000  48.1530000  22.8530000  13.5040000
  46.9940000  16.2570000  14.0770000  48.0690000  19.6550000  18.6750000
  44.0570000  23.2930000  18.5510000  47.8310000  25.7300000  20.4100000
  47.1750000  17.3280000  21.4380000  46.0650000  19.8130000  16.1580000
  47.2210000  19.3940000  19.0130000  43.7240000  22.2130000  17.7320000
  45.5730000  24.9630000  11.8490000  51.5810000  19.7930000  22.9290000
  47.5240000  26.5390000  20.0170000  46.1620000  16.3790000  21.3740000
  49.6900000  16.6660000  22.3150000  44.7380000  20.1630000  16.4260000
  47.0210000  20.8970000  16.6350000  42.8160000  19.5000000  16.2290000
  51.7500000  18.7110000  23.7810000  51.1070000  16.8220000  24.1600000
  45.5240000  16.3120000  22.0750000  49.1630000  21.5770000  15.7810000
  47.7890000  21.5960000  15.5130000  48.1600000  20.4110000  17.5270000
  46.0590000  21.8430000  17.3420000  43.1110000  11.7920000  16.3180000
  50.0320000  22.1990000  14.8920000  47.2730000  22.2180000  14.3920000
  46.4040000  22.9290000  18.1140000  44.7290000  21.4440000  17.1550000
  46.4040000  18.6030000  15.5820000  49.3940000  20.8370000  17.0240000
  44.0950000  14.5000000  21.1050000  49.5300000  22.8320000  13.7730000
  42.8110000  22.0040000  17.5690000  49.2430000  19.2770000  19.3370000
  47.3130000  23.1930000  18.1920000  45.3970000  23.6410000  18.7840000
  46.3370000  22.2160000  14.2270000  50.5610000  20.4760000  17.6900000
  47.3140000  18.3810000  15.4260000  45.3870000  17.7120000  15.2330000
  43.7250000  19.2790000  16.0660000  44.5120000  14.2000000  21.9390000
  41.9060000  28.0060000  23.5070000  43.6760000  15.3750000  21.2460000
  48.2930000  23.7820000   9.8340000  47.6650000  23.5030000  12.3550000
  45.7700000  24.6550000  19.6860000  50.4830000  19.6900000  18.8310000
  50.9680000  22.1890000  15.0550000  49.1470000  18.4290000  20.4750000
  44.0530000  18.0740000  15.4660000  51.4060000  20.7640000  17.3660000
  47.0450000  24.5830000  20.3320000  48.4130000  24.5380000  11.7240000
  50.0070000  18.5380000  21.5880000  44.8410000  25.6120000  20.1970000
  47.2110000  17.9240000  22.1770000  44.9910000  15.2830000  15.0650000
  48.1320000  17.4190000  20.4400000  51.2810000  19.4300000  19.2760000
  45.4490000  24.0800000  11.5210000  48.9200000  25.6020000  12.4540000
  46.2280000  21.8350000  11.2600000  48.6320000  24.5050000  10.3490000
  50.7110000  19.7190000  21.8610000  44.7360000  25.8140000  21.5650000
  47.5220000  23.4050000  20.8870000  44.0670000  26.3990000  19.3430000
  47.8770000  15.3140000  14.5670000  44.6270000  15.0790000  16.3920000
  48.0730000  16.5340000  19.3670000  50.1710000  17.4710000  22.4670000
  49.6480000  26.6160000  11.8360000  48.7680000  25.6400000  13.3910000
  49.1520000  15.1490000  13.9790000  48.7360000  16.5710000  18.6880000
  50.1290000  23.2620000  13.1730000  49.3390000  25.5150000   9.7310000
  46.8040000  17.6910000  12.6420000  44.2940000  23.7610000  10.8410000
  48.7640000  23.3580000  21.5070000  50.5860000  20.4780000  21.3040000
  49.0460000  25.7030000  21.0520000  45.2500000  25.2740000  22.1550000
  43.2120000  27.3570000  19.8600000  44.1280000  26.2770000  18.4020000
  43.8970000  26.7880000  22.0940000  43.3650000  23.8020000  18.9580000
  48.6530000  16.8940000  12.4310000  46.8900000  21.1700000  11.4080000
  44.0730000  13.1180000  14.5080000  44.9370000  14.4340000  13.2180000
  43.9870000  13.9130000  16.7740000  44.8190000  15.7450000  17.0410000
  47.0560000  15.6020000  19.2830000  47.6250000  14.7710000  15.3050000
  49.8460000  26.5710000  10.4670000  50.0050000  27.3310000  12.3490000
  52.0690000  20.5940000  23.0830000  49.5210000  15.9460000  12.9280000
  49.4780000  25.4860000   8.7910000  43.6300000  24.4250000  10.7020000
  49.0920000  22.5410000  21.8640000  49.5230000  24.5180000  21.6010000
  49.5620000  26.4980000  21.1210000  43.1310000  27.5600000  21.2370000
  42.6770000  27.8780000  19.2740000  43.8490000  26.9220000  23.0330000
  44.0950000  22.4750000  10.3580000  48.9160000  17.4440000  11.7030000
  49.7500000  14.4900000  14.3110000  46.0880000  15.5300000  20.2820000
  43.7320000  13.7880000  17.6810000  47.0170000  15.0080000  18.5420000
  52.6580000  18.9050000  24.8010000  50.5280000  27.5210000   9.7440000
  50.7490000  24.6000000  22.2160000  42.2900000  28.5610000  21.6450000
  50.7410000  15.8770000  12.2790000  45.0920000  14.6070000  20.0850000
  51.2340000  23.4330000  22.8730000  50.9650000  28.6610000  10.4550000
  52.8980000  17.8180000  25.6540000  42.2020000  28.8170000  23.0440000
  42.6240000  20.9830000   9.2020000  51.7000000  14.9990000  12.8070000
  53.5810000  18.0630000  26.3130000  50.5590000  23.1110000  23.5050000
  51.4170000  22.7360000  22.2080000  51.3550000  29.3070000   9.8300000
  51.6410000  28.3950000  11.1150000  52.5290000  15.0700000  12.2890000
  52.0590000  23.6490000  23.3570000  42.3090000  11.0060000  14.6820000
  43.0800000  29.0840000  23.3840000  50.2020000  29.0700000  10.9150000
  43.7660000  10.4380000  15.0240000  41.5570000  29.5370000  23.2040000
  42.5840000  20.3640000   9.9610000  51.8770000  15.2340000  13.7420000
  43.3220000  20.6910000   8.5800000  53.2110000  17.0530000  25.1280000
  52.0690000  17.5770000  26.1190000  51.3630000  14.0800000  12.7600000
  49.1220000  22.3500000  25.7980000  49.9120000  12.9830000  31.9590000
  49.1030000  10.7750000  31.5300000  57.2220000  17.6170000  39.6900000
  51.2580000  21.5620000  26.6980000  47.9570000  21.0530000  24.8680000
  49.6110000  13.9130000  36.9570000  48.6980000  10.0180000  32.0020000
  53.5980000  17.1030000  29.1230000  50.0880000  12.5090000  29.9880000
  50.9000000  14.3600000  30.2550000  51.1250000  20.6770000  26.3790000
  52.6370000  23.1780000  27.8580000  53.1890000  22.6800000  36.9700000
  49.5560000  17.5410000  31.3340000  51.8950000  16.5160000  30.7760000
  54.3500000  22.9140000  29.6310000  53.1920000  16.3180000  30.2040000
  54.2670000  19.7160000  34.8020000  50.2550000  23.3540000  34.6780000
  54.0280000  25.7910000  36.5370000  53.3730000  17.3900000  37.5650000
  52.2630000  19.8740000  32.2850000  53.4180000  19.4550000  35.1400000
  49.9210000  22.2750000  33.8590000  51.7710000  25.0240000  27.9760000
  57.7790000  19.8540000  39.0560000  53.7220000  26.6000000  36.1440000
  52.3600000  16.4400000  37.5010000  55.8870000  16.7270000  38.4420000
  50.9350000  20.2240000  32.5530000  53.2180000  20.9580000  32.7620000
  49.0140000  19.5620000  32.3560000  57.9480000  18.7720000  39.9080000
  57.3040000  16.8830000  40.2870000  51.7220000  16.3730000  38.2020000
  55.3610000  21.6380000  31.9080000  53.9870000  21.6580000  31.6400000
  54.3580000  20.4720000  33.6540000  52.2570000  21.9050000  33.4690000
  49.3090000  11.8530000  32.4450000  56.2290000  22.2600000  31.0190000
  53.4700000  22.2790000  30.5190000  52.6010000  22.9900000  34.2410000
  50.9270000  21.5050000  33.2820000  52.6010000  18.6640000  31.7090000
  55.5920000  20.8980000  33.1510000  50.2930000  14.5610000  37.2320000
  55.7280000  22.8940000  29.9000000  49.0090000  22.0650000  33.6960000
  55.4410000  19.3380000  35.4640000  53.5100000  23.2540000  34.3190000
  51.5950000  23.7020000  34.9110000  52.5350000  22.2770000  30.3540000
  56.7590000  20.5370000  33.8170000  53.5120000  18.4420000  31.5530000
  51.5850000  17.7730000  31.3600000  49.9230000  19.3400000  32.1930000
  50.7100000  14.2610000  38.0660000  48.1040000  28.0670000  39.6340000
  49.8740000  15.4370000  37.3730000  54.4910000  23.8430000  25.9610000
  53.8630000  23.5640000  28.4820000  51.9680000  24.7160000  35.8130000
  56.6800000  19.7520000  34.9580000  57.1650000  22.2500000  31.1820000
  55.3450000  18.4900000  36.6020000  50.2500000  18.1350000  31.5930000
  57.6040000  20.8260000  33.4930000  53.2430000  24.6440000  36.4590000
  54.6110000  24.5990000  27.8510000  56.2050000  18.5990000  37.7150000
  51.0390000  25.6730000  36.3240000  53.4090000  17.9850000  38.3040000
  51.1880000  15.3440000  31.1920000  54.3300000  17.4800000  36.5670000
  57.4780000  19.4910000  35.4030000  51.6460000  24.1410000  27.6480000
  55.1180000  25.6630000  28.5810000  52.4260000  21.8960000  27.3870000
  54.8300000  24.5660000  26.4760000  56.9080000  19.7800000  37.9880000
  50.9340000  25.8750000  37.6920000  53.7200000  23.4660000  37.0140000
  50.2650000  26.4600000  35.4700000  54.0740000  15.3750000  30.6940000
  50.8250000  15.1400000  32.5190000  54.2710000  16.5950000  35.4940000
  56.3690000  17.5320000  38.5940000  55.8460000  26.6770000  27.9630000
  54.9660000  25.7010000  29.5180000  55.3500000  15.2100000  30.1060000
  54.9340000  16.6320000  34.8150000  56.3260000  23.3240000  29.3000000
  55.5360000  25.5770000  25.8580000  53.0020000  17.7520000  28.7690000
  50.4920000  23.8220000  26.9680000  54.9620000  23.4190000  37.6340000
  56.7840000  20.5390000  37.4310000  55.2440000  25.7650000  37.1790000
  51.4480000  25.3350000  38.2820000  49.4100000  27.4180000  35.9870000
  50.3260000  26.3380000  34.5290000  50.0940000  26.8490000  38.2210000
  49.5630000  23.8630000  35.0850000  54.8510000  16.9550000  28.5580000
  53.0880000  21.2310000  27.5350000  50.2710000  13.1790000  30.6350000
  51.1340000  14.4960000  29.3450000  50.1840000  13.9740000  32.9010000
  51.0170000  15.8060000  33.1680000  53.2540000  15.6630000  35.4100000
  53.8230000  14.8330000  31.4320000  56.0440000  26.6330000  26.5940000
  56.2030000  27.3920000  28.4760000  58.2670000  20.6550000  39.2100000
  55.7190000  16.0070000  29.0550000  55.6750000  25.5470000  24.9180000
  49.8270000  24.4860000  26.8290000  55.2890000  22.6020000  37.9900000
  55.7200000  24.5800000  37.7280000  55.7600000  26.5590000  37.2480000
  49.3290000  27.6210000  37.3640000  48.8750000  27.9390000  35.4000000
  50.0470000  26.9830000  39.1600000  50.2920000  22.5360000  26.4850000
  55.1130000  17.5060000  27.8300000  55.9470000  14.5510000  30.4380000
  52.2860000  15.5910000  36.4090000  49.9300000  13.8490000  33.8080000
  53.2150000  15.0700000  34.6690000  58.8560000  18.9660000  40.9280000
  56.7250000  27.5820000  25.8710000  56.9470000  24.6610000  38.3430000
  48.4880000  28.6220000  37.7720000  56.9390000  15.9380000  28.4060000
  51.2900000  14.6680000  36.2120000  57.4320000  23.4940000  39.0000000
  57.1620000  28.7220000  26.5820000  59.0960000  17.8790000  41.7810000
  48.3990000  28.8780000  39.1710000  48.8220000  21.0440000  25.3290000
  57.8980000  15.0600000  28.9340000  59.7790000  18.1250000  42.4400000
  56.7560000  23.1720000  39.6320000  57.6150000  22.7970000  38.3350000
  57.5530000  29.3680000  25.9570000  57.8390000  28.4560000  27.2420000
  58.7260000  15.1320000  28.4160000  58.2560000  23.7100000  39.4840000
  48.5070000  11.0670000  30.8090000  49.2780000  29.1450000  39.5110000
  56.4000000  29.1310000  27.0420000  49.9640000  10.4990000  31.1510000
  47.7550000  29.5980000  39.3310000  48.7820000  20.4250000  26.0880000
  58.0750000  15.2950000  29.8690000  49.5200000  20.7520000  24.7070000
  59.4090000  17.1140000  41.2550000  58.2670000  17.6380000  42.2460000
  57.5610000  14.1410000  28.8870000  59.4930000  30.4340000  28.4060000
  54.8400000  30.0880000  36.4090000  51.6570000  25.2710000  31.5300000
  52.8250000  27.6750000  30.6350000  57.4050000  31.4510000  28.5580000
  51.0610000  25.5630000  30.8090000  51.2520000  24.5140000  32.0020000
  52.5180000  24.9950000  31.1510000  53.4540000  28.8560000  30.2550000
  52.6420000  27.0050000  29.9880000  56.6290000  29.8710000  30.6940000
  57.6680000  32.0020000  27.8300000  55.7460000  30.8140000  30.2040000
  53.6890000  28.9920000  29.3450000  56.3770000  29.3290000  31.4320000
  54.4490000  31.0120000  30.7760000  54.1390000  32.2690000  31.3600000
  53.7430000  29.8410000  31.1920000  55.1560000  33.1600000  31.7090000
  52.8050000  32.6310000  31.5930000  53.3790000  29.6360000  32.5190000
  56.8250000  31.0910000  35.4940000  54.8170000  34.3710000  32.2850000
  56.0660000  32.9380000  31.5530000  52.4770000  33.8360000  32.1930000
  55.5560000  32.2480000  28.7690000  52.7390000  28.4710000  32.9010000
  53.5710000  30.3020000  33.1680000  55.8080000  30.1590000  35.4100000
  57.4880000  31.1280000  34.8150000  53.4900000  34.7200000  32.5530000
  55.7730000  35.4540000  32.7620000  51.5680000  34.0580000  32.3560000
  52.4670000  27.4790000  31.9590000  52.4840000  28.3460000  33.8080000
  58.5020000  29.0470000  30.4380000  57.9150000  36.1340000  31.9080000
  56.5410000  36.1540000  31.6400000  54.8110000  36.4010000  33.4690000
  56.9120000  34.9690000  33.6540000  51.8630000  26.3490000  32.4450000
  58.7840000  36.7570000  31.0190000  56.0250000  36.7750000  30.5190000
  55.1560000  37.4860000  34.2410000  53.4810000  36.0010000  33.2820000
  56.8210000  34.2120000  34.8020000  58.1460000  35.3950000  33.1510000
  52.8470000  29.0570000  37.2320000  58.2820000  37.3900000  29.9000000
  59.7200000  36.7460000  31.1820000  56.9050000  37.4100000  29.6310000
  55.0890000  36.7730000  30.3540000  54.1490000  38.1980000  34.9110000
  55.9720000  33.9510000  35.1400000  52.4760000  36.7710000  33.8590000
  56.0650000  37.7500000  34.3190000  57.9950000  33.8340000  35.4640000
  59.3130000  35.0330000  33.8170000  53.2640000  28.7570000  38.0660000
  52.1660000  28.4090000  36.9570000  52.4280000  29.9330000  37.3730000
  57.5200000  40.1980000  29.5180000  54.5220000  39.2120000  35.8130000
  56.4170000  38.0600000  28.4820000  52.8090000  37.8500000  34.6780000
  51.5630000  36.5620000  33.6960000  57.8990000  32.9870000  36.6020000
  59.2350000  34.2480000  34.9580000  60.1580000  35.3220000  33.4930000
  53.5930000  40.1690000  36.3240000  57.1650000  39.0950000  27.8510000
  55.7970000  39.1410000  36.4590000  55.1910000  37.6740000  27.8580000
  55.9630000  32.4810000  38.3040000  58.7590000  33.0950000  37.7150000
  56.8840000  31.9770000  36.5670000  60.0330000  33.9870000  35.4030000
  54.9800000  36.3930000  27.3870000  52.8190000  40.9560000  35.4700000
  54.2010000  38.6370000  27.6480000  57.3840000  39.0620000  26.4760000
  53.4880000  40.3710000  37.6920000  56.2740000  37.9630000  37.0140000
  56.1530000  31.5990000  29.1230000  55.9270000  31.8860000  37.5650000
  57.6720000  40.1590000  28.5810000  56.5830000  40.2870000  36.5370000
  58.9230000  32.0280000  38.5940000  59.4630000  34.2760000  37.9880000
  51.9640000  41.9140000  35.9870000  52.8800000  40.8340000  34.5290000
  52.6490000  41.3450000  38.2210000  54.0020000  39.8320000  38.2820000
  57.0450000  38.3390000  25.9610000  58.4000000  41.1730000  27.9630000
  58.8810000  37.8200000  29.3000000  58.0910000  40.0730000  25.8580000
  60.3330000  34.3510000  39.0560000  52.1170000  38.3590000  35.0850000
  59.7760000  32.1140000  39.6900000  55.7430000  37.1760000  36.9700000
  53.0460000  38.3180000  26.9680000  54.3250000  39.5200000  27.9760000
  54.9140000  30.9360000  37.5010000  52.1100000  32.0370000  31.3340000
  57.7980000  40.2610000  37.1790000  55.6420000  35.7270000  27.5350000
  53.8120000  36.0580000  26.6980000  56.2760000  41.0960000  36.1440000
  57.9040000  29.7070000  30.1060000  59.3380000  35.0350000  37.4310000
  57.5160000  37.9160000  37.6340000  58.4420000  31.2230000  38.4420000
  51.8830000  42.1170000  37.3640000  51.4290000  42.4360000  35.4000000
  58.3140000  41.0550000  37.2480000  58.5980000  41.1290000  26.5940000
  58.2300000  40.0440000  24.9180000  58.7570000  41.8880000  28.4760000
  52.6010000  41.4790000  39.1600000  60.5020000  33.2680000  39.9080000
  54.2760000  30.8690000  38.2020000  52.8470000  37.0320000  26.4850000
  52.3820000  38.9820000  26.8290000  53.6800000  35.1730000  26.3790000
  58.2730000  30.5030000  29.0550000  57.8440000  37.0980000  37.9900000
  59.8590000  31.3790000  40.2870000  58.2750000  39.0760000  37.7280000
  55.7690000  29.5660000  34.6690000  60.8210000  35.1510000  39.2100000
  51.0420000  43.1180000  37.7720000  59.2800000  42.0780000  25.8710000
  61.4100000  33.4630000  40.9280000  53.8440000  29.1640000  36.2120000
  51.6760000  36.8460000  25.7980000  59.5010000  39.1580000  38.3430000
  50.9540000  43.3740000  39.1710000  59.7170000  43.2180000  26.5820000
  61.6500000  32.3750000  41.7810000  51.3760000  35.5400000  25.3290000
  60.4520000  29.5560000  28.9340000  59.9860000  37.9900000  39.0000000
  50.3090000  44.0940000  39.3310000  50.6580000  42.5630000  39.6340000
  51.8320000  43.6410000  39.5110000  60.3930000  42.9530000  27.2420000
  58.9540000  43.6270000  27.0420000  60.1070000  43.8640000  25.9570000
  61.9630000  31.6100000  41.2550000  60.8210000  32.1340000  42.2460000
  62.3330000  32.6210000  42.4400000  51.3360000  34.9220000  26.0880000
  52.0740000  35.2480000  24.7070000  50.5110000  35.5490000  24.8680000
  60.6290000  29.7910000  29.8690000  60.1150000  28.6370000  28.8870000
  61.2810000  29.6280000  28.4160000  60.1690000  37.2930000  38.3350000
  60.8110000  38.2070000  39.4840000  59.3110000  37.6680000  39.6320000
  53.2950000  30.3730000  12.2790000  48.6420000  30.0260000  20.2820000
  45.4600000  25.2100000  15.4030000  46.6270000  27.6140000  14.5080000
  51.2080000  31.3900000  12.4310000  44.8630000  25.5020000  14.6820000
  45.0540000  24.4530000  15.8750000  46.3210000  24.9340000  15.0240000
  47.2560000  28.7950000  14.1290000  46.4440000  26.9440000  13.8610000
  50.4310000  29.8100000  14.5670000  51.4700000  31.9410000  11.7030000
  49.5480000  30.7530000  14.0770000  47.4910000  28.9310000  13.2180000
  50.1790000  29.2680000  15.3050000  48.2510000  30.9510000  14.6490000
  47.9410000  32.2080000  15.2330000  47.5450000  29.7790000  15.0650000
  48.9580000  33.0990000  15.5820000  46.6070000  32.5700000  15.4660000
  47.1810000  29.5750000  16.3920000  50.6270000  31.0300000  19.3670000
  48.6190000  34.3100000  16.1580000  49.8680000  32.8770000  15.4260000
  46.2800000  33.7750000  16.0660000  49.3580000  32.1870000  12.6420000
  46.5410000  28.4090000  16.7740000  47.3730000  30.2410000  17.0410000
  49.6110000  30.0980000  19.2830000  51.2910000  31.0670000  18.6880000
  47.2920000  34.6590000  16.4260000  49.5750000  35.3930000  16.6350000
  45.3700000  33.9970000  16.2290000  46.2690000  27.4180000  15.8320000
  46.2860000  28.2840000  17.6810000  52.3040000  28.9860000  14.3110000
  51.7170000  36.0730000  15.7810000  50.3440000  36.0930000  15.5130000
  48.6130000  36.3400000  17.3420000  50.7150000  34.9070000  17.5270000
  45.6650000  26.2880000  16.3180000  52.5860000  36.6950000  14.8920000
  49.8270000  36.7140000  14.3920000  48.9580000  37.4250000  18.1140000
  47.2830000  35.9400000  17.1550000  50.6230000  34.1510000  18.6750000
  51.9480000  35.3330000  17.0240000  46.6490000  28.9960000  21.1050000
  52.0840000  37.3290000  13.7730000  53.5220000  36.6850000  15.0550000
  50.7070000  37.3490000  13.5040000  48.8910000  36.7120000  14.2270000
  47.9520000  38.1370000  18.7840000  49.7750000  33.8900000  19.0130000
  46.2780000  36.7100000  17.7320000  49.8670000  37.6890000  18.1920000
  51.7980000  33.7730000  19.3370000  53.1150000  34.9720000  17.6900000
  47.0660000  28.6960000  21.9390000  45.9680000  28.3480000  20.8300000
  46.2310000  29.8720000  21.2460000  51.3220000  40.1370000  13.3910000
  48.3240000  39.1510000  19.6860000  50.2190000  37.9990000  12.3550000
  46.6110000  37.7890000  18.5510000  45.3660000  36.5000000  17.5690000
  51.7010000  32.9250000  20.4750000  53.0370000  34.1870000  18.8310000
  53.9600000  35.2610000  17.3660000  47.3960000  40.1080000  20.1970000
  50.9680000  39.0340000  11.7240000  49.5990000  39.0790000  20.3320000
  48.9930000  37.6130000  11.7310000  49.7660000  32.4200000  22.1770000
  52.5620000  33.0340000  21.5880000  50.6870000  31.9150000  20.4400000
  53.8350000  33.9260000  19.2760000  48.7830000  36.3310000  11.2600000
  46.6220000  40.8950000  19.3430000  48.0030000  38.5760000  11.5210000
  51.1870000  39.0010000  10.3490000  47.2910000  40.3100000  21.5650000
  50.0760000  37.9010000  20.8870000  49.9550000  31.5380000  12.9960000
  49.7290000  31.8250000  21.4380000  51.4740000  40.0980000  12.4540000
  50.3850000  40.2260000  20.4100000  52.7250000  31.9670000  22.4670000
  53.2650000  34.2150000  21.8610000  45.7660000  41.8530000  19.8600000
  46.6820000  40.7730000  18.4020000  46.4510000  41.2840000  22.0940000
  47.8050000  39.7700000  22.1550000  50.8480000  38.2780000   9.8340000
  52.2020000  41.1120000  11.8360000  52.6830000  37.7590000  13.1730000
  51.8930000  40.0120000   9.7310000  54.1350000  34.2890000  22.9290000
  45.9200000  38.2980000  18.9580000  53.5780000  32.0520000  23.5630000
  49.5450000  37.1150000  20.8430000  46.8480000  38.2570000  10.8410000
  48.1270000  39.4590000  11.8490000  48.7160000  30.8750000  21.3740000
  45.9120000  31.9760000  15.2070000  51.6000000  40.2000000  21.0520000
  49.4440000  35.6660000  11.4080000  47.6140000  35.9970000  10.5710000
  50.0780000  41.0350000  20.0170000  51.7060000  29.6460000  13.9790000
  53.1410000  34.9740000  21.3040000  51.3180000  37.8540000  21.5070000
  52.2440000  31.1620000  22.3150000  45.6850000  42.0560000  21.2370000
  45.2310000  42.3740000  19.2740000  52.1160000  40.9940000  21.1210000
  52.4000000  41.0680000  10.4670000  52.0320000  39.9820000   8.7910000
  52.5590000  41.8270000  12.3490000  46.4030000  41.4180000  23.0330000
  54.3050000  33.2070000  23.7810000  48.0780000  30.8080000  22.0750000
  46.6490000  36.9710000  10.3580000  46.1840000  38.9210000  10.7020000
  47.4820000  35.1120000  10.2520000  52.0750000  30.4420000  12.9280000
  51.6460000  37.0370000  21.8640000  53.6610000  31.3180000  24.1600000
  52.0770000  39.0150000  21.6010000  49.5720000  29.5050000  18.5420000
  54.6230000  35.0900000  23.0830000  44.8450000  43.0570000  21.6450000
  53.0820000  42.0170000   9.7440000  55.2120000  33.4010000  24.8010000
  47.6460000  29.1030000  20.0850000  45.4790000  36.7850000   9.6710000
  53.3040000  39.0960000  22.2160000  44.7560000  43.3130000  23.0440000
  53.5190000  43.1570000  10.4550000  55.4520000  32.3140000  25.6540000
  45.1790000  35.4790000   9.2020000  54.2540000  29.4950000  12.8070000
  53.7880000  37.9290000  22.8730000  44.1120000  44.0330000  23.2040000
  44.4610000  42.5020000  23.5070000  45.6350000  43.5800000  23.3840000
  54.1950000  42.8910000  11.1150000  52.7570000  43.5660000  10.9150000
  53.9090000  43.8030000   9.8300000  55.7650000  31.5490000  25.1280000
  54.6230000  32.0730000  26.1190000  56.1360000  32.5600000  26.3130000
  45.1380000  34.8610000   9.9610000  45.8760000  35.1870000   8.5800000
  44.3140000  35.4880000   8.7410000  54.4320000  29.7300000  13.7420000
  53.9170000  28.5760000  12.7600000  55.0830000  29.5670000  12.2890000
  53.9720000  37.2320000  22.2080000  54.6130000  38.1450000  23.3570000
  53.1130000  37.6070000  23.5050000  55.8490000  44.8690000  12.2790000
  51.1970000  44.5230000  20.2820000  48.0140000  39.7060000  15.4030000
  49.1820000  42.1100000  14.5080000  53.7620000  45.8860000  12.4310000
  47.4180000  39.9980000  14.6820000  47.6080000  38.9490000  15.8750000
  48.8750000  39.4300000  15.0240000  49.8100000  43.2910000  14.1290000
  48.9980000  41.4400000  13.8610000  52.9850000  44.3060000  14.5670000
  54.0240000  46.4370000  11.7030000  52.1020000  45.2490000  14.0770000
  50.0450000  43.4270000  13.2180000  52.7330000  43.7640000  15.3050000
  50.8050000  45.4470000  14.6490000  50.4950000  46.7040000  15.2330000
  50.0990000  44.2760000  15.0650000  51.5120000  47.5950000  15.5820000
  49.1610000  47.0660000  15.4660000  49.7350000  44.0710000  16.3920000
  53.1820000  45.5260000  19.3670000  51.1730000  48.8060000  16.1580000
  52.4220000  47.3730000  15.4260000  48.8340000  48.2710000  16.0660000
  51.9130000  46.6830000  12.6420000  49.0950000  42.9060000  16.7740000
  49.9280000  44.7370000  17.0410000  52.1650000  44.5940000  19.2830000
  53.8450000  45.5630000  18.6880000  49.8460000  49.1550000  16.4260000
  52.1290000  49.8900000  16.6350000  47.9250000  48.4930000  16.2290000
  48.8230000  41.9140000  15.8320000  48.8400000  42.7810000  17.6810000
  54.8580000  43.4820000  14.3110000  54.2710000  50.5690000  15.7810000
  52.8980000  50.5890000  15.5130000  51.1670000  50.8360000  17.3420000
  53.2690000  49.4040000  17.5270000  48.2200000  40.7840000  16.3180000
  55.1400000  51.1920000  14.8920000  52.3810000  51.2100000  14.3920000
  51.5120000  51.9210000  18.1140000  49.8370000  50.4360000  17.1550000
  53.1780000  48.6470000  18.6750000  54.5020000  49.8300000  17.0240000
  49.2030000  43.4920000  21.1050000  54.6390000  51.8250000  13.7730000
  56.0760000  51.1810000  15.0550000  53.2610000  51.8450000  13.5040000
  51.4460000  51.2080000  14.2270000  50.5060000  52.6330000  18.7840000
  52.3290000  48.3860000  19.0130000  48.8320000  51.2060000  17.7320000
  52.4210000  52.1850000  18.1920000  54.3520000  48.2690000  19.3370000
  55.6700000  49.4680000  17.6900000  49.6200000  43.1920000  21.9390000
  48.5220000  42.8440000  20.8300000  48.7850000  44.3680000  21.2460000
  53.8760000  54.6330000  13.3910000  50.8790000  53.6470000  19.6860000
  52.7740000  52.4950000  12.3550000  49.1660000  52.2850000  18.5510000
  47.9200000  50.9970000  17.5690000  54.2560000  47.4220000  20.4750000
  55.5910000  48.6830000  18.8310000  56.5150000  49.7570000  17.3660000
  49.9500000  54.6040000  20.1970000  53.5220000  53.5300000  11.7240000
  52.1530000  53.5760000  20.3320000  51.5470000  52.1090000  11.7310000
  52.3200000  46.9160000  22.1770000  55.1160000  47.5300000  21.5880000
  53.2410000  46.4120000  20.4400000  56.3890000  48.4220000  19.2760000
  51.3370000  50.8280000  11.2600000  49.1760000  55.3910000  19.3430000
  50.5570000  53.0720000  11.5210000  53.7410000  53.4970000  10.3490000
  49.8450000  54.8060000  21.5650000  52.6300000  52.3980000  20.8870000
  52.5090000  46.0340000  12.9960000  52.2830000  46.3210000  21.4380000
  54.0280000  54.5940000  12.4540000  52.9390000  54.7230000  20.4100000
  55.2800000  46.4630000  22.4670000  55.8190000  48.7110000  21.8610000
  48.3210000  56.3490000  19.8600000  49.2360000  55.2700000  18.4020000
  49.0050000  55.7800000  22.0940000  50.3590000  54.2670000  22.1550000
  53.4020000  52.7740000   9.8340000  54.7560000  55.6080000  11.8360000
  55.2370000  52.2550000  13.1730000  54.4470000  54.5080000   9.7310000
  56.6890000  48.7860000  22.9290000  48.4740000  52.7940000  18.9580000
  56.1320000  46.5490000  23.5630000  52.0990000  51.6110000  20.8430000
  49.4030000  52.7530000  10.8410000  50.6810000  53.9550000  11.8490000
  51.2700000  45.3710000  21.3740000  48.4670000  46.4720000  15.2070000
  54.1550000  54.6960000  21.0520000  51.9980000  50.1620000  11.4080000
  50.1680000  50.4930000  10.5710000  52.6330000  55.5310000  20.0170000
  54.2610000  44.1420000  13.9790000  55.6950000  49.4700000  21.3040000
  53.8730000  52.3510000  21.5070000  54.7980000  45.6580000  22.3150000
  48.2400000  56.5520000  21.2370000  47.7860000  56.8710000  19.2740000
  54.6710000  55.4900000  21.1210000  54.9550000  55.5640000  10.4670000
  54.5860000  54.4790000   8.7910000  55.1140000  56.3230000  12.3490000
  48.9570000  55.9140000  23.0330000  56.8590000  47.7030000  23.7810000
  50.6330000  45.3040000  22.0750000  49.2030000  51.4670000  10.3580000
  48.7380000  53.4170000  10.7020000  50.0360000  49.6080000  10.2520000
  54.6300000  44.9380000  12.9280000  54.2000000  51.5330000  21.8640000
  56.2150000  45.8140000  24.1600000  54.6310000  53.5110000  21.6010000
  52.1260000  44.0010000  18.5420000  57.1770000  49.5860000  23.0830000
  47.3990000  57.5540000  21.6450000  55.6360000  56.5130000   9.7440000
  57.7660000  47.8980000  24.8010000  50.2000000  43.5990000  20.0850000
  48.0330000  51.2810000   9.6710000  55.8580000  53.5930000  22.2160000
  47.3100000  57.8090000  23.0440000  56.0730000  57.6530000  10.4550000
  58.0060000  46.8100000  25.6540000  47.7330000  49.9750000   9.2020000
  56.8090000  43.9910000  12.8070000  56.3420000  52.4250000  22.8730000
  46.6660000  58.5290000  23.2040000  47.0150000  56.9980000  23.5070000
  48.1890000  58.0760000  23.3840000  56.7490000  57.3880000  11.1150000
  55.3110000  58.0620000  10.9150000  56.4630000  58.2990000   9.8300000
  58.3200000  46.0450000  25.1280000  57.1780000  46.5690000  26.1190000
  58.6900000  47.0560000  26.3130000  47.6930000  49.3570000   9.9610000
  48.4300000  49.6830000   8.5800000  46.8680000  49.9840000   8.7410000
  56.9860000  44.2260000  13.7420000  56.4710000  43.0720000  12.7600000
  57.6370000  44.0630000  12.2890000  56.5260000  51.7280000  22.2080000
  57.1670000  52.6420000  23.3570000  55.6670000  52.1030000  23.5050000
  62.0470000  44.9310000  28.4060000  57.3940000  44.5840000  36.4090000
  54.2120000  39.7670000  31.5300000  55.3790000  42.1720000  30.6350000
  59.9600000  45.9480000  28.5580000  53.6150000  40.0600000  30.8090000
  53.8060000  39.0100000  32.0020000  55.0730000  39.4910000  31.1510000
  56.0080000  43.3530000  30.2550000  55.1960000  41.5010000  29.9880000
  59.1830000  44.3670000  30.6940000  60.2220000  46.4980000  27.8300000
  58.3000000  45.3100000  30.2040000  56.2430000  43.4880000  29.3450000
  58.9310000  43.8250000  31.4320000  57.0030000  45.5080000  30.7760000
  56.6930000  46.7650000  31.3600000  56.2970000  44.3370000  31.1920000
  57.7100000  47.6560000  31.7090000  55.3590000  47.1270000  31.5930000
  55.9330000  44.1320000  32.5190000  59.3790000  45.5880000  35.4940000
  57.3710000  48.8670000  32.2850000  58.6200000  47.4340000  31.5530000
  55.0310000  48.3330000  32.1930000  58.1100000  46.7440000  28.7690000
  55.2930000  42.9670000  32.9010000  56.1250000  44.7980000  33.1680000
  58.3620000  44.6550000  35.4100000  60.0430000  45.6250000  34.8150000
  56.0440000  49.2160000  32.5530000  58.3270000  49.9510000  32.7620000
  54.1220000  48.5540000  32.3560000  55.0210000  41.9750000  31.9590000
  55.0380000  42.8420000  33.8080000  61.0560000  43.5430000  30.4380000
  60.4690000  50.6300000  31.9080000  59.0950000  50.6500000  31.6400000
  57.3650000  50.8970000  33.4690000  59.4670000  49.4650000  33.6540000
  54.4170000  40.8450000  32.4450000  61.3380000  51.2530000  31.0190000
  58.5790000  51.2720000  30.5190000  57.7100000  51.9820000  34.2410000
  56.0350000  50.4970000  33.2820000  59.3750000  48.7080000  34.8020000
  60.7000000  49.8910000  33.1510000  55.4010000  43.5530000  37.2320000
  60.8360000  51.8860000  29.9000000  62.2740000  51.2420000  31.1820000
  59.4590000  51.9060000  29.6310000  57.6430000  51.2690000  30.3540000
  56.7040000  52.6940000  34.9110000  58.5270000  48.4470000  35.1400000
  55.0300000  51.2670000  33.8590000  58.6190000  52.2470000  34.3190000
  60.5500000  48.3300000  35.4640000  61.8670000  49.5290000  33.8170000
  55.8180000  43.2530000  38.0660000  54.7200000  42.9050000  36.9570000
  54.9830000  44.4290000  37.3730000  60.0740000  54.6940000  29.5180000
  57.0760000  53.7080000  35.8130000  58.9710000  52.5560000  28.4820000
  55.3630000  52.3460000  34.6780000  54.1180000  51.0580000  33.6960000
  60.4530000  47.4830000  36.6020000  61.7890000  48.7440000  34.9580000
  62.7120000  49.8180000  33.4930000  56.1480000  54.6650000  36.3240000
  59.7200000  53.5910000  27.8510000  58.3510000  53.6370000  36.4590000
  57.7450000  52.1710000  27.8580000  58.5180000  46.9780000  38.3040000
  61.3130000  47.5910000  37.7150000  59.4390000  46.4730000  36.5670000
  62.5870000  48.4830000  35.4030000  57.5350000  50.8890000  27.3870000
  55.3740000  55.4530000  35.4700000  56.7550000  53.1330000  27.6480000
  59.9390000  53.5580000  26.4760000  56.0430000  54.8670000  37.6920000
  58.8280000  52.4590000  37.0140000  58.7070000  46.0950000  29.1230000
  58.4810000  46.3820000  37.5650000  60.2260000  54.6550000  28.5810000
  59.1370000  54.7840000  36.5370000  61.4770000  46.5240000  38.5940000
  62.0170000  48.7720000  37.9880000  54.5180000  56.4100000  35.9870000
  55.4340000  55.3310000  34.5290000  55.2030000  55.8410000  38.2210000
  56.5570000  54.3280000  38.2820000  59.6000000  52.8350000  25.9610000
  60.9540000  55.6690000  27.9630000  61.4350000  52.3160000  29.3000000
  60.6450000  54.5690000  25.8580000  62.8870000  48.8470000  39.0560000
  54.6720000  52.8550000  35.0850000  62.3300000  46.6100000  39.6900000
  58.2970000  51.6720000  36.9700000  55.6000000  52.8140000  26.9680000
  56.8790000  54.0160000  27.9760000  57.4680000  45.4320000  37.5010000
  54.6640000  46.5330000  31.3340000  60.3520000  54.7570000  37.1790000
  58.1960000  50.2230000  27.5350000  56.3660000  50.5540000  26.6980000
  58.8300000  55.5920000  36.1440000  60.4580000  44.2030000  30.1060000
  61.8930000  49.5310000  37.4310000  60.0700000  52.4120000  37.6340000
  60.9960000  45.7200000  38.4420000  54.4370000  56.6140000  37.3640000
  53.9830000  56.9320000  35.4000000  60.8680000  55.5510000  37.2480000
  61.1520000  55.6250000  26.5940000  60.7840000  54.5400000  24.9180000
  61.3110000  56.3840000  28.4760000  55.1550000  55.9760000  39.1600000
  63.0570000  47.7650000  39.9080000  56.8300000  45.3650000  38.2020000
  55.4010000  51.5280000  26.4850000  54.9360000  53.4790000  26.8290000
  56.2340000  49.6690000  26.3790000  60.8270000  44.9990000  29.0550000
  60.3980000  51.5940000  37.9900000  62.4130000  45.8760000  40.2870000
  60.8290000  53.5720000  37.7280000  58.3240000  44.0620000  34.6690000
  63.3750000  49.6470000  39.2100000  53.5970000  57.6150000  37.7720000
  61.8340000  56.5740000  25.8710000  63.9640000  47.9590000  40.9280000
  56.3980000  43.6600000  36.2120000  54.2310000  51.3420000  25.7980000
  62.0560000  53.6540000  38.3430000  53.5080000  57.8710000  39.1710000
  62.2710000  57.7140000  26.5820000  64.2040000  46.8710000  41.7810000
  53.9310000  50.0370000  25.3290000  63.0060000  44.0530000  28.9340000
  62.5400000  52.4860000  39.0000000  52.8640000  58.5900000  39.3310000
  53.2120000  57.0590000  39.6340000  54.3870000  58.1370000  39.5110000
  62.9470000  57.4490000  27.2420000  61.5090000  58.1240000  27.0420000
  62.6610000  58.3600000  25.9570000  64.5170000  46.1060000  41.2550000
  63.3750000  46.6310000  42.2460000  64.8880000  47.1170000  42.4400000
  53.8900000  49.4180000  26.0880000  54.6280000  49.7450000  24.7070000
  53.0660000  50.0450000  24.8680000  63.1840000  44.2870000  29.8690000
  62.6690000  43.1340000  28.8870000  63.8350000  44.1240000  28.4160000
  62.7240000  51.7890000  38.3350000  63.3650000  52.7030000  39.4840000
  61.8650000  52.1640000  39.6320000  58.4040000  59.3660000  12.2790000
  53.7510000  59.0190000  20.2820000  50.5680000  54.2020000  15.4030000
  51.7360000  56.6070000  14.5080000  56.3160000  60.3830000  12.4310000
  49.9720000  54.4950000  14.6820000  50.1630000  53.4450000  15.8750000
  51.4290000  53.9260000  15.0240000  52.3650000  57.7880000  14.1290000
  51.5530000  55.9360000  13.8610000  55.5390000  58.8020000  14.5670000
  56.5780000  60.9330000  11.7030000  54.6570000  59.7450000  14.0770000
  52.5990000  57.9230000  13.2180000  55.2880000  58.2600000  15.3050000
  53.3600000  59.9430000  14.6490000  53.0500000  61.2000000  15.2330000
  52.6540000  58.7720000  15.0650000  54.0660000  62.0910000  15.5820000
  51.7150000  61.5620000  15.4660000  52.2900000  58.5670000  16.3920000
  55.7360000  60.0230000  19.3670000  53.7280000  63.3020000  16.1580000
  54.9770000  61.8700000  15.4260000  51.3880000  62.7680000  16.0660000
  54.4670000  61.1790000  12.6420000  51.6490000  57.4020000  16.7740000
  52.4820000  59.2330000  17.0410000  54.7190000  59.0900000  19.2830000
  56.3990000  60.0600000  18.6880000  52.4000000  63.6520000  16.4260000
  54.6830000  64.3860000  16.6350000  50.4790000  62.9890000  16.2290000
  51.3770000  56.4100000  15.8320000  51.3950000  57.2770000  17.6810000
  57.4120000  57.9780000  14.3110000  56.8260000  65.0660000  15.7810000
  55.4520000  65.0850000  15.5130000  53.7220000  65.3320000  17.3420000
  55.8230000  63.9000000  17.5270000  50.7740000  55.2800000  16.3180000
  57.6940000  65.6880000  14.8920000  54.9350000  65.7070000  14.3920000
  54.0660000  66.4170000  18.1140000  52.3920000  64.9320000  17.1550000
  55.7320000  63.1430000  18.6750000  57.0570000  64.3260000  17.0240000
  51.7580000  57.9890000  21.1050000  57.1930000  66.3210000  13.7730000
  58.6300000  65.6770000  15.0550000  55.8150000  66.3410000  13.5040000
  54.0000000  65.7040000  14.2270000  53.0600000  67.1290000  18.7840000
  54.8830000  62.8820000  19.0130000  51.3860000  65.7020000  17.7320000
  54.9760000  66.6820000  18.1920000  56.9060000  62.7650000  19.3370000
  58.2240000  63.9640000  17.6900000  52.1750000  57.6880000  21.9390000
  51.0760000  57.3400000  20.8300000  51.3390000  58.8640000  21.2460000
  56.4310000  69.1290000  13.3910000  53.4330000  68.1440000  19.6860000
  55.3280000  66.9910000  12.3550000  51.7200000  66.7820000  18.5510000
  50.4740000  65.4930000  17.5690000  56.8100000  61.9180000  20.4750000
  58.1450000  63.1790000  18.8310000  59.0690000  64.2530000  17.3660000
  52.5040000  69.1000000  20.1970000  56.0760000  68.0270000  11.7240000
  54.7080000  68.0720000  20.3320000  54.1020000  66.6060000  11.7310000
  54.8740000  61.4130000  22.1770000  57.6700000  62.0270000  21.5880000
  55.7950000  60.9080000  20.4400000  58.9430000  62.9180000  19.2760000
  53.8910000  65.3240000  11.2600000  51.7300000  69.8880000  19.3430000
  53.1110000  67.5690000  11.5210000  56.2950000  67.9930000  10.3490000
  52.3990000  69.3020000  21.5650000  55.1850000  66.8940000  20.8870000
  55.0630000  60.5300000  12.9960000  54.8380000  60.8170000  21.4380000
  56.5830000  69.0910000  12.4540000  55.4930000  69.2190000  20.4100000
  57.8340000  60.9590000  22.4670000  58.3730000  63.2070000  21.8610000
  50.8750000  70.8450000  19.8600000  51.7910000  69.7660000  18.4020000
  51.5600000  70.2760000  22.0940000  52.9130000  68.7630000  22.1550000
  55.9560000  67.2700000   9.8340000  57.3110000  70.1040000  11.8360000
  57.7910000  66.7510000  13.1730000  57.0010000  69.0040000   9.7310000
  59.2440000  63.2820000  22.9290000  51.0280000  67.2900000  18.9580000
  58.6870000  61.0450000  23.5630000  54.6540000  66.1070000  20.8430000
  51.9570000  67.2490000  10.8410000  53.2360000  68.4510000  11.8490000
  53.8250000  59.8670000  21.3740000  51.0210000  60.9680000  15.2070000
  56.7090000  69.1920000  21.0520000  54.5530000  64.6580000  11.4080000
  52.7230000  64.9890000  10.5710000  55.1870000  70.0270000  20.0170000
  56.8150000  58.6380000  13.9790000  58.2490000  63.9660000  21.3040000
  56.4270000  66.8470000  21.5070000  57.3520000  60.1550000  22.3150000
  50.7940000  71.0490000  21.2370000  50.3400000  71.3670000  19.2740000
  57.2250000  69.9860000  21.1210000  57.5090000  70.0600000  10.4670000
  57.1400000  68.9750000   8.7910000  57.6680000  70.8190000  12.3490000
  51.5120000  70.4110000  23.0330000  59.4130000  62.2000000  23.7810000
  53.1870000  59.8000000  22.0750000  51.7570000  65.9630000  10.3580000
  51.2920000  67.9140000  10.7020000  52.5900000  64.1040000  10.2520000
  57.1840000  59.4340000  12.9280000  56.7540000  66.0290000  21.8640000
  58.7690000  60.3110000  24.1600000  57.1850000  68.0070000  21.6010000
  54.6800000  58.4970000  18.5420000  59.7320000  64.0820000  23.0830000
  49.9530000  72.0500000  21.6450000  58.1900000  71.0090000   9.7440000
  60.3210000  62.3940000  24.8010000  52.7550000  58.0950000  20.0850000
  50.5870000  65.7770000   9.6710000  58.4120000  68.0890000  22.2160000
  49.8640000  72.3060000  23.0440000  58.6270000  72.1490000  10.4550000
  60.5610000  61.3060000  25.6540000  50.2870000  64.4720000   9.2020000
  59.3630000  58.4880000  12.8070000  58.8970000  66.9210000  22.8730000
  49.2200000  73.0260000  23.2040000  49.5690000  71.4940000  23.5070000
  50.7430000  72.5720000  23.3840000  59.3040000  71.8840000  11.1150000
  57.8650000  72.5590000  10.9150000  59.0180000  72.7950000   9.8300000
  60.8740000  60.5410000  25.1280000  59.7320000  61.0660000  26.1190000
  61.2440000  61.5520000  26.3130000  50.2470000  63.8530000   9.9610000
  50.9850000  64.1800000   8.5800000  49.4220000  64.4800000   8.7410000
  59.5400000  58.7230000  13.7420000  59.0260000  57.5690000  12.7600000
  60.1910000  58.5590000  12.2890000  59.0800000  66.2250000  22.2080000
  59.7210000  67.1380000  23.3570000  58.2210000  66.5990000  23.5050000
  64.6010000  59.4270000  28.4060000  59.9490000  59.0800000  36.4090000
  56.7660000  54.2630000  31.5300000  57.9340000  56.6680000  30.6350000
  62.5140000  60.4440000  28.5580000  56.1700000  54.5560000  30.8090000
  56.3600000  53.5060000  32.0020000  57.6270000  53.9870000  31.1510000
  58.5620000  57.8490000  30.2550000  57.7500000  55.9970000  29.9880000
  61.7370000  58.8640000  30.6940000  62.7760000  60.9940000  27.8300000
  60.8540000  59.8070000  30.2040000  58.7970000  57.9840000  29.3450000
  61.4850000  58.3210000  31.4320000  59.5570000  60.0040000  30.7760000
  59.2470000  61.2610000  31.3600000  58.8510000  58.8330000  31.1920000
  60.2640000  62.1530000  31.7090000  57.9130000  61.6230000  31.5930000
  58.4870000  58.6280000  32.5190000  61.9330000  60.0840000  35.4940000
  59.9250000  63.3630000  32.2850000  61.1740000  61.9310000  31.5530000
  57.5860000  62.8290000  32.1930000  60.6650000  61.2400000  28.7690000
  57.8470000  57.4630000  32.9010000  58.6800000  59.2950000  33.1680000
  60.9170000  59.1510000  35.4100000  62.5970000  60.1210000  34.8150000
  58.5980000  63.7130000  32.5530000  60.8810000  64.4470000  32.7620000
  56.6770000  63.0500000  32.3560000  57.5750000  56.4710000  31.9590000
  57.5920000  57.3380000  33.8080000  63.6100000  58.0390000  30.4380000
  63.0230000  65.1270000  31.9080000  61.6500000  65.1460000  31.6400000
  59.9190000  65.3930000  33.4690000  62.0210000  63.9610000  33.6540000
  56.9720000  55.3420000  32.4450000  63.8920000  65.7490000  31.0190000
  61.1330000  65.7680000  30.5190000  60.2640000  66.4780000  34.2410000
  58.5890000  64.9930000  33.2820000  61.9300000  63.2050000  34.8020000
  63.2540000  64.3870000  33.1510000  57.9550000  58.0500000  37.2320000
  63.3910000  66.3820000  29.9000000  64.8280000  65.7390000  31.1820000
  62.0130000  66.4030000  29.6310000  60.1980000  65.7650000  30.3540000
  59.2580000  67.1900000  34.9110000  61.0810000  62.9430000  35.1400000
  57.5840000  65.7630000  33.8590000  61.1730000  66.7430000  34.3190000
  63.1040000  62.8260000  35.4640000  64.4220000  64.0250000  33.8170000
  58.3720000  57.7490000  38.0660000  57.2740000  57.4020000  36.9570000
  57.5370000  58.9250000  37.3730000  62.6280000  69.1900000  29.5180000
  59.6310000  68.2050000  35.8130000  61.5260000  67.0520000  28.4820000
  57.9180000  66.8430000  34.6780000  56.6720000  65.5540000  33.6960000
  63.0080000  61.9790000  36.6020000  64.3430000  63.2400000  34.9580000
  65.2660000  64.3140000  33.4930000  58.7020000  69.1610000  36.3240000
  62.2740000  68.0880000  27.8510000  60.9050000  68.1330000  36.4590000
  60.2990000  66.6670000  27.8580000  61.0720000  61.4740000  38.3040000
  63.8680000  62.0880000  37.7150000  61.9930000  60.9690000  36.5670000
  65.1410000  62.9790000  35.4030000  60.0890000  65.3850000  27.3870000
  57.9280000  69.9490000  35.4700000  59.3090000  67.6300000  27.6480000
  62.4930000  68.0540000  26.4760000  58.5970000  69.3640000  37.6920000
  61.3820000  66.9550000  37.0140000  61.2610000  60.5910000  29.1230000
  61.0350000  60.8780000  37.5650000  62.7800000  69.1520000  28.5810000
  61.6910000  69.2800000  36.5370000  64.0320000  61.0210000  38.5940000
  64.5710000  63.2680000  37.9880000  57.0730000  70.9060000  35.9870000
  57.9880000  69.8270000  34.5290000  57.7570000  70.3380000  38.2210000
  59.1110000  68.8240000  38.2820000  62.1540000  67.3320000  25.9610000
  63.5080000  70.1650000  27.9630000  63.9890000  66.8120000  29.3000000
  63.1990000  69.0650000  25.8580000  65.4410000  63.3430000  39.0560000
  57.2260000  67.3510000  35.0850000  64.8840000  61.1060000  39.6900000
  60.8510000  66.1690000  36.9700000  58.1550000  67.3100000  26.9680000
  59.4330000  68.5120000  27.9760000  60.0220000  59.9280000  37.5010000
  57.2190000  61.0290000  31.3340000  62.9060000  69.2530000  37.1790000
  60.7500000  64.7190000  27.5350000  58.9200000  65.0500000  26.6980000
  61.3840000  70.0880000  36.1440000  63.0130000  58.6990000  30.1060000
  64.4470000  64.0280000  37.4310000  62.6250000  66.9080000  37.6340000
  63.5500000  60.2160000  38.4420000  56.9920000  71.1100000  37.3640000
  56.5380000  71.4280000  35.4000000  63.4230000  70.0480000  37.2480000
  63.7060000  70.1210000  26.5940000  63.3380000  69.0360000  24.9180000
  63.8660000  70.8810000  28.4760000  57.7090000  70.4720000  39.1600000
  65.6110000  62.2610000  39.9080000  59.3850000  59.8610000  38.2020000
  57.9550000  66.0240000  26.4850000  57.4900000  67.9750000  26.8290000
  58.7880000  64.1650000  26.3790000  63.3820000  59.4950000  29.0550000
  62.9520000  66.0910000  37.9900000  64.9670000  60.3720000  40.2870000
  63.3830000  68.0680000  37.7280000  60.8780000  58.5580000  34.6690000
  65.9290000  64.1430000  39.2100000  56.1510000  72.1110000  37.7720000
  64.3880000  71.0700000  25.8710000  66.5180000  62.4550000  40.9280000
  58.9520000  58.1560000  36.2120000  56.7850000  65.8380000  25.7980000
  64.6100000  68.1500000  38.3430000  56.0620000  72.3670000  39.1710000
  64.8250000  72.2100000  26.5820000  66.7580000  61.3670000  41.7810000
  56.4850000  64.5330000  25.3290000  65.5600000  58.5490000  28.9340000
  65.0940000  66.9830000  39.0000000  55.4180000  73.0870000  39.3310000
  55.7670000  71.5560000  39.6340000  56.9410000  72.6340000  39.5110000
  65.5010000  71.9450000  27.2420000  64.0630000  72.6200000  27.0420000
  65.2150000  72.8560000  25.9570000  67.0710000  60.6030000  41.2550000
  65.9290000  61.1270000  42.2460000  67.4420000  61.6130000  42.4400000
  56.4450000  63.9140000  26.0880000  57.1820000  64.2410000  24.7070000
  55.6200000  64.5410000  24.8680000  65.7380000  58.7840000  29.8690000
  65.2230000  57.6300000  28.8870000  66.3890000  58.6200000  28.4160000
  65.2780000  66.2860000  38.3350000  65.9190000  67.1990000  39.4840000
  64.4190000  66.6600000  39.6320000  40.5570000  -2.7040000  16.3180000
  41.1600000  -1.5750000  15.8320000  41.5410000   0.0040000  21.1050000
  48.4700000   3.0600000  23.5630000  41.5190000  -1.3780000  14.5080000
  41.9580000  -0.2970000  21.9390000  40.8590000  -0.6440000  20.8300000
  41.1220000   0.8790000  21.2460000  45.2760000  11.2340000  20.4100000
  48.5520000   2.3260000  24.1600000  42.0730000   0.5820000  16.3920000
  41.1780000  -0.7080000  17.6810000  42.4370000   0.7870000  15.0650000
  44.4370000   8.1230000  20.8430000  44.9700000  12.0420000  20.0170000
  43.2160000  10.1590000  19.6860000  42.8330000   3.2160000  15.2330000
  42.2870000  11.1160000  20.1970000  43.8490000   8.4320000  18.1140000
  41.4990000   3.5770000  15.4660000  42.1820000  11.3180000  21.5650000
  41.5130000  11.9030000  19.3430000  43.5110000   5.3170000  16.1580000
  44.7590000   8.6970000  18.1920000  41.1710000   4.7830000  16.0660000
  42.2650000   1.2490000  17.0410000  40.6580000  12.8600000  19.8600000
  40.8040000   2.9830000  15.2070000  41.3430000  12.2920000  22.0940000
  40.8110000   9.3050000  18.9580000  42.1840000   5.6670000  16.4260000
  44.4660000   6.4010000  16.6350000  40.2620000   5.0040000  16.2290000
  40.5770000  13.0640000  21.2370000  49.5150000   6.0970000  23.0830000
  40.1230000  13.3820000  19.2740000  46.8400000   6.3410000  17.0240000
  45.6060000   5.9150000  17.5270000  45.2350000   7.1000000  15.5130000
  43.5050000   7.3470000  17.3420000  39.7360000  14.0650000  21.6450000
  47.4770000   7.7030000  14.8920000  43.8490000   4.1070000  15.5820000
  44.7180000   7.7220000  14.3920000  46.6090000   7.0810000  15.7810000
  45.5150000   5.1590000  18.6750000  42.1750000   6.9480000  17.1550000
  39.6470000  14.3210000  23.0440000  46.9760000   8.3360000  13.7730000
  48.8520000   6.2680000  17.3660000  45.5980000   8.3570000  13.5040000
  44.7600000   3.8850000  15.4260000  42.8430000   9.1440000  18.7840000
  43.7830000   7.7200000  14.2270000  41.1690000   7.7170000  17.7320000
  44.6660000   4.8980000  19.0130000  46.6890000   4.7800000  19.3370000
  48.0070000   5.9790000  17.6900000  39.0030000  15.0410000  23.2040000
  40.5260000  14.5880000  23.3840000  39.3520000  13.5100000  23.5070000
  42.3820000  -0.0620000  13.2180000  43.1430000   1.9580000  14.6490000
  45.1110000   9.0060000  12.3550000  41.5030000   8.7970000  18.5510000
  40.2570000   7.5080000  17.5690000  46.5930000   3.9330000  20.4750000
  47.9280000   5.1940000  18.8310000  48.4130000   7.6930000  15.0550000
  43.8850000   8.6210000  11.7310000  44.4400000   1.7610000  14.0770000
  45.8590000  10.0420000  11.7240000  44.4910000  10.0870000  20.3320000
  41.5740000  11.7810000  18.4020000  45.5780000   2.9230000  20.4400000
  47.4530000   4.0420000  21.5880000  42.6960000  10.7780000  22.1550000
  42.1480000  -0.1970000  14.1290000  44.9680000   8.9090000  20.8870000
  44.8470000   2.5460000  12.9960000  45.3220000   0.8180000  14.5670000
  46.3660000  11.1060000  12.4540000  46.0780000  10.0090000  10.3490000
  43.6740000   7.3390000  11.2600000  42.8950000   9.5840000  11.5210000
  45.5190000   2.0380000  19.3670000  47.6170000   2.9750000  22.4670000
  44.6210000   2.8320000  21.4380000  48.1560000   5.2220000  21.8610000
  49.0270000   5.2970000  22.9290000  44.2500000   3.1940000  12.6420000
  46.2100000   8.8620000  21.5070000  47.1350000   2.1700000  22.3150000
  44.3360000   6.6730000  11.4080000  46.5980000   0.6530000  13.9790000
  45.0710000   0.2750000  15.3050000  46.0990000   2.3980000  12.4310000
  47.0940000  12.1190000  11.8360000  47.5740000   8.7660000  13.1730000
  46.7840000  11.0190000   9.7310000  46.2140000  11.1440000  13.3910000
  42.5060000   7.0040000  10.5710000  45.7390000   9.2860000   9.8340000
  41.7400000   9.2640000  10.8410000  43.0190000  10.4660000  11.8490000
  44.5020000   1.1060000  19.2830000  48.7260000   4.9330000  19.2760000
  41.4320000  -0.5830000  16.7740000  44.6570000   3.4280000  22.1770000
  46.4920000  11.2070000  21.0520000  48.0320000   5.9820000  21.3040000
  43.6080000   1.8820000  21.3740000  46.1820000   2.0750000  18.6880000
  49.1960000   4.2150000  23.7810000  42.3730000   6.1190000  10.2520000
  46.5370000   8.0450000  21.8640000  46.9670000   1.4490000  12.9280000
  47.1950000  -0.0070000  14.3110000  41.3360000  -2.0490000  13.8610000
  47.4510000  12.8350000  12.3490000  47.2920000  12.0750000  10.4670000
  46.9230000  10.9900000   8.7910000  41.5410000   7.9780000  10.3580000
  46.3610000   2.9480000  11.7030000  41.0750000   9.9290000  10.7020000
  43.5340000   1.0340000  20.2820000  44.4630000   0.5120000  18.5420000
  42.9700000   1.8150000  22.0750000  46.9690000  10.0220000  21.6010000
  41.2950000  12.4260000  23.0330000  47.0080000  12.0020000  21.1210000
  50.1040000   4.4090000  24.8010000  48.1870000   1.3810000  12.2790000
  47.9730000  13.0250000   9.7440000  40.3700000   7.7920000   9.6710000
  42.5380000   0.1100000  20.0850000  48.1950000  10.1040000  22.2160000
  50.3440000   3.3210000  25.6540000  49.1460000   0.5030000  12.8070000
  48.4100000  14.1650000  10.4550000  40.0700000   6.4870000   9.2020000
  40.3510000  -3.7830000  15.4030000  48.6800000   8.9370000  22.8730000
  49.5150000   3.0810000  26.1190000  39.2050000   6.4960000   8.7410000
  50.6570000   2.5570000  25.1280000  48.8090000  -0.4160000  12.7600000
  49.3230000   0.7380000  13.7420000  49.9740000   0.5740000  12.2890000
  49.0870000  13.8990000  11.1150000  48.8010000  14.8100000   9.8300000
  47.6480000  14.5740000  10.9150000  39.7550000  -3.4900000  14.6820000
  40.0300000   5.8680000   9.9610000  40.7680000   6.1950000   8.5800000
  39.9460000  -4.5390000  15.8750000  51.0270000   3.5670000  26.3130000
  41.2120000  -4.0590000  15.0240000  48.8630000   8.2400000  22.2080000
  49.5040000   9.1530000  23.3570000  48.0040000   8.6140000  23.5050000
  46.7550000  -2.6430000  32.4450000  47.3580000  -1.5130000  31.9590000
  47.7380000   0.0650000  37.2320000  54.6670000   3.1210000  39.6900000
  47.7170000  -1.3170000  30.6350000  48.1550000  -0.2350000  38.0660000
  47.0570000  -0.5830000  36.9570000  47.3200000   0.9400000  37.3730000
  51.4740000  11.2950000  36.5370000  54.7500000   2.3870000  40.2870000
  48.2700000   0.6440000  32.5190000  47.3750000  -0.6470000  33.8080000
  48.6340000   0.8480000  31.1920000  50.6340000   8.1840000  36.9700000
  51.1680000  12.1030000  36.1440000  49.4140000  10.2200000  35.8130000
  49.0300000   3.2770000  31.3600000  48.4850000  11.1770000  36.3240000
  50.0470000   8.4940000  34.2410000  47.6960000   3.6390000  31.5930000
  48.3800000  11.3790000  37.6920000  47.7110000  11.9640000  35.4700000
  49.7080000   5.3780000  32.2850000  50.9560000   8.7580000  34.3190000
  47.3690000   4.8440000  32.1930000  48.4630000   1.3100000  33.1680000
  46.8560000  12.9210000  35.9870000  47.0020000   3.0450000  31.3340000
  47.5400000  12.3530000  38.2210000  47.0090000   9.3670000  35.0850000
  48.3810000   5.7280000  32.5530000  50.6640000   6.4620000  32.7620000
  46.4600000   5.0650000  32.3560000  46.7750000  13.1250000  37.3640000
  55.7120000   6.1580000  39.2100000  46.3210000  13.4430000  35.4000000
  53.0370000   6.4020000  33.1510000  51.8040000   5.9760000  33.6540000
  51.4330000   7.1610000  31.6400000  49.7020000   7.4080000  33.4690000
  45.9340000  14.1260000  37.7720000  53.6750000   7.7640000  31.0190000
  50.0470000   4.1680000  31.7090000  50.9160000   7.7830000  30.5190000
  52.8060000   7.1420000  31.9080000  51.7130000   5.2200000  34.8020000
  48.3720000   7.0090000  33.2820000  45.8450000  14.3820000  39.1710000
  53.1740000   8.3970000  29.9000000  55.0500000   6.3290000  33.4930000
  51.7960000   8.4180000  29.6310000  50.9570000   3.9460000  31.5530000
  49.0410000   9.2060000  34.9110000  49.9810000   7.7810000  30.3540000
  47.3670000   7.7780000  33.8590000  50.8640000   4.9590000  35.1400000
  52.8870000   4.8420000  35.4640000  54.2050000   6.0400000  33.8170000
  45.2010000  15.1020000  39.3310000  46.7240000  14.6490000  39.5110000
  45.5500000  13.5710000  39.6340000  48.5800000  -0.0010000  29.3450000
  49.3400000   2.0190000  30.7760000  51.3090000   9.0670000  28.4820000
  47.7010000   8.8580000  34.6780000  46.4550000   7.5690000  33.6960000
  52.7910000   3.9940000  36.6020000  54.1260000   5.2550000  34.9580000
  54.6110000   7.7540000  31.1820000  50.0820000   8.6820000  27.8580000
  50.6370000   1.8220000  30.2040000  52.0570000  10.1030000  27.8510000
  50.6880000  10.1480000  36.4590000  47.7710000  11.8420000  34.5290000
  51.7760000   2.9840000  36.5670000  53.6510000   4.1030000  37.7150000
  48.8940000  10.8390000  38.2820000  48.3450000  -0.1360000  30.2550000
  51.1650000   8.9700000  37.0140000  51.0440000   2.6070000  29.1230000
  51.5200000   0.8790000  30.6940000  52.5630000  11.1670000  28.5810000
  52.2760000  10.0700000  26.4760000  49.8720000   7.4000000  27.3870000
  49.0920000   9.6450000  27.6480000  51.7160000   2.0990000  35.4940000
  53.8150000   3.0360000  38.5940000  50.8180000   2.8930000  37.5650000
  54.3540000   5.2830000  37.9880000  55.2240000   5.3580000  39.0560000
  50.4480000   3.2550000  28.7690000  52.4080000   8.9230000  37.6340000
  53.3330000   2.2310000  38.4420000  50.5330000   6.7350000  27.5350000
  52.7960000   0.7140000  30.1060000  51.2680000   0.3360000  31.4320000
  52.2970000   2.4590000  28.5580000  53.2910000  12.1810000  27.9630000
  53.7720000   8.8270000  29.3000000  52.9820000  11.0800000  25.8580000
  52.4110000  11.2050000  29.5180000  48.7030000   7.0650000  26.6980000
  51.9370000   9.3470000  25.9610000  47.9380000   9.3260000  26.9680000
  49.2160000  10.5280000  27.9760000  50.7000000   1.1670000  35.4100000
  54.9240000   4.9940000  35.4030000  47.6300000  -0.5220000  32.9010000
  50.8550000   3.4890000  38.3040000  52.6890000  11.2680000  37.1790000
  54.2300000   6.0430000  37.4310000  49.8050000   1.9430000  37.5010000
  52.3800000   2.1360000  34.8150000  55.3940000   4.2760000  39.9080000
  48.5710000   6.1800000  26.3790000  52.7350000   8.1060000  37.9900000
  53.1650000   1.5100000  29.0550000  53.3930000   0.0550000  30.4380000
  47.5330000  -1.9880000  29.9880000  53.6490000  12.8960000  28.4760000
  53.4890000  12.1360000  26.5940000  53.1210000  11.0510000  24.9180000
  47.7380000   8.0400000  26.4850000  52.5590000   3.0090000  27.8300000
  47.2730000   9.9900000  26.8290000  49.7320000   1.0950000  36.4090000
  50.6610000   0.5730000  34.6690000  49.1680000   1.8770000  38.2020000
  53.1660000  10.0830000  37.7280000  47.4920000  12.4870000  39.1600000
  53.2060000  12.0630000  37.2480000  56.3010000   4.4700000  40.9280000
  54.3840000   1.4420000  28.4060000  54.1710000  13.0860000  25.8710000
  46.5680000   7.8530000  25.7980000  48.7350000   0.1710000  36.2120000
  54.3930000  10.1650000  38.3430000  56.5410000   3.3820000  41.7810000
  55.3440000   0.5640000  28.9340000  54.6080000  14.2260000  26.5820000
  46.2680000   6.5480000  25.3290000  46.5490000  -3.7220000  31.5300000
  54.8770000   8.9980000  39.0000000  55.7120000   3.1420000  42.2460000
  45.4030000   6.5570000  24.8680000  56.8540000   2.6180000  41.2550000
  55.0060000  -0.3550000  28.8870000  55.5210000   0.7990000  29.8690000
  56.1720000   0.6350000  28.4160000  55.2840000  13.9600000  27.2420000
  54.9980000  14.8710000  25.9570000  53.8460000  14.6350000  27.0420000
  45.9530000  -3.4290000  30.8090000  46.2280000   5.9290000  26.0880000
  46.9650000   6.2560000  24.7070000  46.1430000  -4.4780000  32.0020000
  57.2250000   3.6280000  42.4400000  47.4100000  -3.9970000  31.1510000
  55.0610000   8.3010000  38.3350000  55.7020000   9.2140000  39.4840000
  54.2020000   8.6750000  39.6320000  52.5450000  27.6770000  19.9300000
  53.2270000  28.6270000  19.2070000  52.1080000  26.5370000  19.2180000
  53.7340000  29.6830000  19.9430000  53.4250000  28.5820000  17.8380000
  51.4320000  26.8030000  18.5590000  51.7180000  25.8910000  19.8440000
  52.8710000  26.1280000  18.7590000  54.4410000  30.6930000  19.3250000
  53.5950000  29.7120000  20.8820000  54.1530000  29.5960000  17.2190000
  53.0680000  27.8670000  17.3250000  54.6600000  30.6600000  17.9490000
  54.7790000  31.4160000  19.8400000  54.3050000  29.5580000  16.2820000
  55.4080000  31.6950000  17.3180000  54.9200000  32.3450000  16.1700000
  56.6340000  32.0810000  17.9420000  55.8000000  32.9800000  15.2810000
  53.5430000  32.3660000  15.9010000  56.8450000  33.3630000  18.4130000
  57.6240000  31.1180000  18.1530000  55.2840000  33.6020000  14.1610000
  56.7360000  32.9820000  15.4470000  53.0410000  32.9990000  14.7820000
  52.9440000  31.9360000  16.5000000  58.7790000  31.4370000  18.8320000
  56.1830000  34.0280000  18.2660000  58.0130000  33.6980000  19.1020000
  57.5000000  30.2350000  17.8240000  53.9100000  33.6210000  13.8930000
  56.0520000  34.3010000  13.0380000  52.1050000  33.0090000  14.6190000
  58.9780000  32.7230000  19.3150000  58.1450000  34.5830000  19.4220000
  59.4430000  30.7730000  18.9720000  53.6790000  34.3610000  12.6500000
  54.9120000  34.7870000  12.1470000  57.0080000  35.3850000  13.5150000
  57.0140000  33.3550000  12.3320000  60.1490000  32.9100000  20.0030000
  52.5120000  34.7220000  11.9830000  55.0040000  35.5430000  10.9980000
  56.6690000  36.5950000  14.0910000  58.3350000  35.0350000  13.2470000
  56.6690000  32.2690000  11.5600000  58.3440000  33.7540000  12.5190000
  60.4490000  34.2150000  20.4720000  52.5900000  35.5080000  10.8430000
  51.6670000  34.4340000  12.3080000  53.8300000  35.9210000  10.3370000
  55.8520000  35.8040000  10.6600000  57.6860000  37.4860000  14.4400000
  55.7590000  36.8170000  14.2480000  59.3480000  35.9190000  13.6080000
  55.7600000  32.0050000  11.4810000  57.6760000  31.5570000  10.8890000
  59.3490000  32.9850000  11.9410000  59.7510000  34.5070000  21.0940000
  60.4890000  34.8340000  19.7120000  61.3140000  34.2060000  20.9330000
  58.9450000  28.9210000  11.2710000  53.9260000  36.7690000   9.1980000
  57.3760000  38.7440000  15.0240000  59.0200000  37.1240000  14.2080000
  60.2570000  35.6980000  13.4440000  57.3030000  30.5430000   9.9880000
  59.0160000  31.9050000  11.1220000  60.2610000  33.1940000  12.1040000
  54.9400000  37.7790000   9.2340000  53.0660000  36.6600000   8.0860000
  58.0820000  39.9150000  14.6080000  56.0790000  38.9410000  15.5960000
  59.7150000  37.7180000  14.4670000  56.0280000  30.6150000   9.3420000
  58.2320000  29.5860000   9.4760000  59.7080000  31.3960000  10.7160000
  55.0000000  38.6640000  10.3070000  55.8980000  37.8700000   8.2350000
  52.9020000  37.7270000   7.2070000  52.3620000  35.4790000   7.8120000
  58.4460000  40.1190000  13.2820000  58.3710000  40.8990000  15.5450000
  55.1960000  39.8840000  15.1070000  55.6720000  38.1560000  16.6770000
  55.5510000  31.7930000   8.7860000  55.2420000  29.4680000   9.2630000
  59.0060000  28.7990000  10.3310000  58.3360000  29.3840000   8.1080000
  56.0170000  39.5960000  10.3910000  54.3370000  38.6270000  10.9860000
  56.9110000  38.8190000   8.2990000  55.8610000  37.2740000   7.4960000
  53.3830000  38.5320000   7.3590000  52.0490000  37.6420000   6.1110000
  51.7920000  35.7680000  10.3980000  51.4920000  35.4050000   6.7450000
  59.0860000  41.2850000  12.8990000  58.2540000  39.4530000  12.6330000
  59.0000000  42.0800000  15.1660000  58.1360000  40.7640000  16.4560000
  54.4190000  38.3040000  17.2430000  55.4480000  40.4270000  14.3690000
  53.9210000  40.0490000  15.6950000  56.2690000  37.5080000  17.0320000
  54.3090000  31.8400000   8.1670000  52.4860000  34.7200000   8.3690000
  54.0270000  29.4950000   8.6210000  55.5490000  28.6590000   9.6570000
  59.1760000  28.4100000   7.5800000  57.8230000  29.9240000   7.5190000
  59.8610000  27.8410000   9.8140000  56.0820000  32.5790000   8.8300000
  56.9850000  39.6680000   9.3920000  56.0560000  40.1900000  11.1320000
  57.5490000  38.8860000   7.5980000  51.3220000  36.4870000   5.8930000
  51.9660000  38.3760000   5.5140000  51.0040000  34.6040000   6.5910000
  59.3410000  41.4100000  11.9930000  59.3580000  42.2760000  13.8410000
  59.1830000  42.7510000  15.8130000  53.5520000  39.2520000  16.7450000
  53.3230000  40.7080000  15.3630000  54.1570000  37.7540000  17.9710000
  53.5500000  30.6800000   8.0730000  53.9810000  32.6570000   7.8100000
  53.5110000  28.7000000   8.5530000  59.9420000  27.6380000   8.4360000
  60.3960000  27.3200000  10.4000000  59.2240000  28.2760000   6.6400000
  57.9810000  40.5910000   9.5880000  50.4150000  36.2930000   4.8720000
  59.9620000  43.4060000  13.3560000  52.3320000  39.3210000  17.3950000
  52.3240000  30.5980000   7.4580000  60.7830000  26.6370000   8.0290000
  58.9780000  40.6980000   8.5680000  50.1750000  37.3800000   4.0190000
  60.1670000  44.4840000  14.2710000  51.3730000  40.1990000  16.8660000
  51.8390000  31.7650000   6.8010000  60.8710000  26.3810000   6.6290000
  58.5610000  40.9980000   7.7340000  59.6590000  41.3460000   8.8440000
  59.3960000  39.8230000   8.4280000  49.8620000  38.1450000   4.5460000
  51.0040000  37.6210000   3.5540000  49.4920000  37.1350000   3.3610000
  60.5730000  45.2410000  13.7990000  59.3070000  44.7600000  14.6500000
  60.7640000  44.1920000  14.9920000  51.1960000  39.9640000  15.9320000
  50.5440000  40.1280000  17.3850000  51.7100000  41.1180000  16.9140000
  51.0140000  31.5490000   6.3170000  51.6550000  32.4620000   7.4650000
  52.5140000  32.0880000   6.1690000  61.5160000  25.6610000   6.4690000
  61.1670000  27.1920000   6.1670000  59.9920000  26.1140000   6.2900000
  57.6540000  56.6700000  19.9300000  58.3350000  57.6190000  19.2070000
  57.2170000  55.5300000  19.2180000  58.8430000  58.6750000  19.9430000
  58.5330000  57.5750000  17.8380000  56.5410000  55.7950000  18.5590000
  56.8270000  54.8840000  19.8440000  57.9790000  55.1200000  18.7590000
  59.5490000  59.6860000  19.3250000  58.7040000  58.7040000  20.8820000
  59.2620000  58.5880000  17.2190000  58.1760000  56.8600000  17.3250000
  59.7680000  59.6520000  17.9490000  59.8880000  60.4080000  19.8400000
  59.4140000  58.5500000  16.2820000  60.5160000  60.6880000  17.3180000
  60.0290000  61.3380000  16.1700000  61.7420000  61.0730000  17.9420000
  60.9090000  61.9720000  15.2810000  58.6510000  61.3580000  15.9010000
  61.9530000  62.3550000  18.4130000  62.7330000  60.1100000  18.1530000
  60.3920000  62.5940000  14.1610000  61.8440000  61.9750000  15.4470000
  58.1500000  61.9910000  14.7820000  58.0530000  60.9280000  16.5000000
  63.8870000  60.4300000  18.8320000  61.2910000  63.0210000  18.2660000
  63.1210000  62.6900000  19.1020000  62.6080000  59.2280000  17.8240000
  59.0180000  62.6130000  13.8930000  61.1610000  63.2930000  13.0380000
  57.2140000  62.0020000  14.6190000  64.0870000  61.7160000  19.3150000
  63.2540000  63.5750000  19.4220000  64.5520000  59.7650000  18.9720000
  58.7880000  63.3530000  12.6500000  60.0210000  63.7790000  12.1470000
  62.1170000  64.3770000  13.5150000  62.1220000  62.3470000  12.3320000
  65.2570000  61.9020000  20.0030000  57.6200000  63.7150000  11.9830000
  60.1120000  64.5360000  10.9980000  61.7780000  65.5880000  14.0910000
  63.4440000  64.0270000  13.2470000  61.7780000  61.2620000  11.5600000
  63.4530000  62.7470000  12.5190000  65.5570000  63.2070000  20.4720000
  57.6990000  64.5000000  10.8430000  56.7750000  63.4260000  12.3080000
  58.9380000  64.9140000  10.3370000  60.9610000  64.7970000  10.6600000
  62.7940000  66.4790000  14.4400000  60.8670000  65.8090000  14.2480000
  64.4560000  64.9110000  13.6080000  60.8690000  60.9970000  11.4810000
  62.7840000  60.5500000  10.8890000  64.4580000  61.9770000  11.9410000
  64.8590000  63.4990000  21.0940000  65.5970000  63.8260000  19.7120000
  66.4220000  63.1990000  20.9330000  64.0540000  57.9130000  11.2710000
  59.0340000  65.7610000   9.1980000  62.4840000  67.7360000  15.0240000
  64.1290000  66.1170000  14.2080000  65.3650000  64.6900000  13.4440000
  62.4110000  59.5350000   9.9880000  64.1240000  60.8970000  11.1220000
  65.3700000  62.1860000  12.1040000  60.0490000  66.7710000   9.2340000
  58.1740000  65.6520000   8.0860000  63.1910000  68.9070000  14.6080000
  61.1880000  67.9330000  15.5960000  64.8230000  66.7110000  14.4670000
  61.1370000  59.6070000   9.3420000  63.3400000  58.5790000   9.4760000
  64.8160000  60.3890000  10.7160000  60.1080000  67.6560000  10.3070000
  61.0070000  66.8620000   8.2350000  58.0100000  66.7200000   7.2070000
  57.4710000  64.4720000   7.8120000  63.5550000  69.1120000  13.2820000
  63.4790000  69.8910000  15.5450000  60.3050000  68.8760000  15.1070000
  60.7810000  67.1490000  16.6770000  60.6600000  60.7850000   8.7860000
  60.3510000  58.4600000   9.2630000  64.1140000  57.7910000  10.3310000
  63.4450000  58.3770000   8.1080000  61.1250000  68.5890000  10.3910000
  59.4450000  67.6190000  10.9860000  62.0190000  67.8120000   8.2990000
  60.9700000  66.2660000   7.4960000  58.4920000  67.5240000   7.3590000
  57.1580000  66.6340000   6.1110000  56.9010000  64.7610000  10.3980000
  56.6010000  64.3970000   6.7450000  64.1950000  70.2770000  12.8990000
  63.3620000  68.4460000  12.6330000  64.1080000  71.0720000  15.1660000
  63.2450000  69.7560000  16.4560000  59.5280000  67.2960000  17.2430000
  60.5560000  69.4190000  14.3690000  59.0290000  69.0410000  15.6950000
  61.3770000  66.5000000  17.0320000  59.4170000  60.8320000   8.1670000
  57.5950000  63.7120000   8.3690000  59.1350000  58.4870000   8.6210000
  60.6570000  57.6520000   9.6570000  64.2850000  57.4020000   7.5800000
  62.9310000  58.9160000   7.5190000  64.9690000  56.8340000   9.8140000
  61.1900000  61.5720000   8.8300000  62.0930000  68.6600000   9.3920000
  61.1640000  69.1820000  11.1320000  62.6570000  67.8790000   7.5980000
  56.4310000  65.4790000   5.8930000  57.0750000  67.3680000   5.5140000
  56.1120000  63.5970000   6.5910000  64.4500000  70.4020000  11.9930000
  64.4670000  71.2690000  13.8410000  64.2910000  71.7430000  15.8130000
  58.6600000  68.2450000  16.7450000  58.4320000  69.7010000  15.3630000
  59.2660000  66.7460000  17.9710000  58.6590000  59.6720000   8.0730000
  59.0900000  61.6500000   7.8100000  58.6190000  57.6920000   8.5530000
  65.0500000  56.6300000   8.4360000  65.5040000  56.3120000  10.4000000
  64.3320000  57.2680000   6.6400000  63.0900000  69.5840000   9.5880000
  55.5230000  65.2850000   4.8720000  65.0700000  72.3990000  13.3560000
  57.4400000  68.3130000  17.3950000  57.4320000  59.5900000   7.4580000
  65.8910000  55.6290000   8.0290000  64.0870000  69.6900000   8.5680000
  55.2840000  66.3730000   4.0190000  65.2760000  73.4770000  14.2710000
  56.4810000  69.1910000  16.8660000  56.9480000  60.7580000   6.8010000
  65.9800000  55.3730000   6.6290000  63.6690000  69.9910000   7.7340000
  64.7680000  70.3390000   8.8440000  64.5050000  68.8150000   8.4280000
  54.9700000  67.1370000   4.5460000  56.1120000  66.6130000   3.5540000
  54.6000000  66.1270000   3.3610000  65.6810000  74.2340000  13.7990000
  64.4150000  73.7530000  14.6500000  65.8720000  73.1840000  14.9920000
  56.3040000  68.9560000  15.9320000  55.6530000  69.1200000  17.3850000
  56.8190000  70.1100000  16.9140000  56.1230000  60.5410000   6.3170000
  56.7640000  61.4540000   7.4650000  57.6230000  61.0800000   6.1690000
  66.6240000  54.6530000   6.4690000  66.2750000  56.1850000   6.1670000
  65.1010000  55.1060000   6.2900000  54.8530000  14.4140000  13.3560000
  54.2500000  13.2840000  13.8410000  55.0590000  15.4920000  14.2710000
  53.9780000  12.2920000  12.8990000  53.8910000  13.0880000  15.1660000
  55.4640000  16.2490000  13.7990000  55.6550000  15.2000000  14.9920000
  54.1980000  15.7680000  14.6500000  50.7900000   8.8770000   8.2350000
  54.2330000  12.4170000  11.9930000  53.3380000  11.1270000  13.2820000
  54.0750000  13.7580000  15.8130000  52.9740000  10.9220000  14.6080000
  49.2280000   9.6350000  10.9860000  54.6060000   8.7260000  14.4670000
  48.8170000   7.7760000   9.1980000  52.5770000   8.4940000  14.4400000
  49.8320000   8.7860000   9.2340000  49.8950000   6.5510000  10.9980000
  53.9120000   8.1320000  14.2080000  49.8910000   9.6720000  10.3070000
  47.7930000   8.7350000   7.2070000  51.9000000   6.3920000  13.5150000
  50.7440000   6.8120000  10.6600000  54.2390000   6.9270000  13.6080000
  53.1450000  10.4610000  12.6330000  50.9080000  10.6040000  10.3910000
  50.3390000  11.4340000  14.3690000  51.8020000   9.8270000   8.2990000
  50.7530000   8.2820000   7.4960000  48.5710000   5.3680000  12.6500000
  50.9440000   5.3090000  13.0380000  55.1480000   6.7050000  13.4440000
  51.8760000  10.6750000   9.3920000  50.9470000  11.1970000  11.1320000
  52.4400000   9.8940000   7.5980000  53.2270000   6.0430000  13.2470000
  50.1750000   4.6090000  14.1610000  49.8040000   5.7940000  12.1470000
  51.9050000   4.3620000  12.3320000  52.8730000  11.5990000   9.5880000
  47.9330000   4.0060000  14.7820000  51.5610000   7.6030000  14.0910000
  51.5610000   3.2770000  11.5600000  48.8020000   4.6290000  13.8930000
  50.6920000   3.9880000  15.2810000  53.2360000   4.7620000  12.5190000
  46.7310000   2.7730000   6.8010000  48.4340000   3.3730000  15.9010000
  55.1530000   4.2010000  12.1040000  49.8120000   3.3530000  16.1700000
  51.6270000   3.9900000  15.4470000  48.7210000   6.9290000  10.3370000
  50.6510000   7.8250000  14.2480000  47.4030000   5.7300000  11.9830000
  50.6520000   3.0130000  11.4810000  52.5670000   2.5650000  10.8890000
  54.2410000   3.9920000  11.9410000  46.5470000   3.4700000   7.4650000
  44.3830000   8.1420000   3.3610000  47.4060000   3.0950000   6.1690000
  53.0280000  11.7710000  16.4560000  52.2670000   9.7510000  15.0240000
  52.1940000   1.5510000   9.9880000  47.4820000   6.5150000  10.8430000
  46.9970000   4.0170000  14.6190000  50.2990000   2.7030000  17.3180000
  53.9070000   2.9130000  11.1220000  46.5580000   5.4410000  12.3080000
  49.5510000   1.6680000  17.9490000  51.5250000   3.0890000  17.9420000
  53.1230000   0.5940000   9.4760000  47.9570000   7.6680000   8.0860000
  47.3780000   5.7280000   8.3690000  50.9710000   9.9490000  15.5960000
  50.9200000   1.6220000   9.3420000  50.4400000  -0.3330000   9.6570000
  49.0450000   0.6040000  17.2190000  52.5160000   2.1260000  18.1530000
  49.3320000   1.7010000  19.3250000  51.7360000   4.3700000  18.4130000
  50.1340000   0.4760000   9.2630000  53.2280000   0.3920000   8.1080000
  50.0880000  10.8920000  15.1070000  47.2540000   6.4870000   7.8120000
  50.5640000   9.1640000  16.6770000  53.2620000  11.9070000  15.5450000
  50.4430000   2.8000000   8.7860000  53.8970000  -0.1930000  10.3310000
  46.3840000   6.4120000   6.7450000  47.8360000   2.9430000  16.5000000
  48.3160000  -0.4100000  17.8380000  49.1970000   0.5650000  16.2820000
  49.6710000   2.4240000  19.8400000  48.6260000   0.6900000  19.9430000
  51.1600000   8.5150000  17.0320000  53.6700000   2.4450000  18.8320000
  48.9180000   0.5020000   8.6210000  53.8370000  -0.0720000  11.2710000
  49.2000000   2.8470000   8.1670000  48.2750000   9.5400000   7.3590000
  49.3110000   9.3120000  17.2430000  51.0750000   5.0360000  18.2660000
  48.8120000  11.0560000  15.6950000  46.6840000   6.7760000  10.3980000
  52.9040000   4.7050000  19.1020000  52.3910000   1.2430000  17.8240000
  54.7520000  -1.1510000   9.8140000  52.7140000   0.9310000   7.5190000
  46.9410000   8.6490000   6.1110000  50.9730000   3.5870000   8.8300000
  54.0680000  -0.5820000   7.5800000  54.5990000   2.4040000  10.7160000
  48.1180000  -0.3660000  19.2070000  48.8730000   3.6650000   7.8100000
  47.9590000  -1.1250000  17.3250000  53.8700000   3.7310000  19.3150000
  48.4870000   0.7190000  20.8820000  54.3350000   1.7810000  18.9720000
  48.4020000  -0.2920000   8.5530000  48.4420000   1.6870000   8.0730000
  45.8950000   5.6120000   6.5910000  48.4430000  10.2600000  16.7450000
  49.0490000   8.7610000  17.9710000  48.2150000  11.7160000  15.3630000
  54.8330000  -1.3540000   8.4360000  53.0370000   5.5900000  19.4220000
  54.1150000  -0.7160000   6.6400000  46.2140000   7.4950000   5.8930000
  46.8580000   9.3840000   5.5140000  55.2870000  -1.6730000  10.4000000
  47.4370000  -1.3150000  19.9300000  55.0400000   3.9170000  20.0030000
  47.2150000   1.6050000   7.4580000  47.2230000  10.3290000  17.3950000
  55.6740000  -2.3550000   8.0290000  45.3070000   7.3000000   4.8720000
  47.0000000  -2.4550000  19.2180000  53.8700000  11.7060000   8.5680000
  45.0670000   8.3880000   4.0190000  46.2640000  11.2070000  16.8660000
  55.3400000   5.2230000  20.4720000  55.7630000  -2.6110000   6.6290000
  46.3240000  -2.1900000  18.5590000  46.6100000  -3.1010000  19.8440000
  47.7620000  -2.8640000  18.7590000  54.2880000  10.8300000   8.4280000
  53.4530000  12.0060000   7.7340000  54.5510000  12.3540000   8.8440000
  45.8950000   8.6290000   3.5540000  44.7530000   9.1530000   4.5460000
  45.9060000   2.5560000   6.3170000  46.0870000  10.9720000  15.9320000
  45.4360000  11.1350000  17.3850000  46.6020000  12.1260000  16.9140000
  55.3800000   5.8410000  19.7120000  56.2050000   5.2140000  20.9330000
  54.6420000   5.5150000  21.0940000  56.0580000  -1.8000000   6.1670000
  56.4070000  -3.3310000   6.4690000  54.8840000  -2.8780000   6.2900000
  49.9910000  13.1810000  19.9300000  50.6730000  14.1300000  19.2070000
  49.5540000  12.0410000  19.2180000  51.1800000  15.1860000  19.9430000
  50.8710000  14.0860000  17.8380000  48.8780000  12.3070000  18.5590000
  50.3160000  11.6320000  18.7590000  49.1640000  11.3950000  19.8440000
  51.8860000  16.1970000  19.3250000  51.0410000  15.2160000  20.8820000
  51.5990000  15.1000000  17.2190000  50.5130000  13.3710000  17.3250000
  52.1050000  16.1640000  17.9490000  52.2250000  16.9200000  19.8400000
  51.7510000  15.0620000  16.2820000  52.8530000  17.1990000  17.3180000
  52.3660000  17.8490000  16.1700000  54.0800000  17.5850000  17.9420000
  53.2460000  18.4840000  15.2810000  50.9890000  17.8690000  15.9010000
  54.2900000  18.8670000  18.4130000  55.0700000  16.6220000  18.1530000
  52.7290000  19.1050000  14.1610000  54.1810000  18.4860000  15.4470000
  50.4870000  18.5030000  14.7820000  50.3900000  17.4390000  16.5000000
  55.4590000  19.2010000  19.1020000  53.6290000  19.5320000  18.2660000
  56.2240000  16.9410000  18.8320000  54.9460000  15.7390000  17.8240000
  51.3560000  19.1250000  13.8930000  53.4980000  19.8050000  13.0380000
  49.5510000  18.5130000  14.6190000  56.4240000  18.2270000  19.3150000
  55.5910000  20.0860000  19.4220000  56.8890000  16.2770000  18.9720000
  51.1250000  19.8650000  12.6500000  52.3580000  20.2910000  12.1470000
  54.4540000  20.8880000  13.5150000  54.4600000  18.8580000  12.3320000
  57.5940000  18.4130000  20.0030000  49.9580000  20.2260000  11.9830000
  52.4500000  21.0470000  10.9980000  54.1150000  22.0990000  14.0910000
  55.7810000  20.5390000  13.2470000  54.1150000  17.7730000  11.5600000
  55.7900000  19.2580000  12.5190000  57.8940000  19.7190000  20.4720000
  50.0360000  21.0110000  10.8430000  49.1130000  19.9370000  12.3080000
  51.2750000  21.4250000  10.3370000  53.2980000  21.3080000  10.6600000
  55.1320000  22.9900000  14.4400000  53.2050000  22.3210000  14.2480000
  56.7930000  21.4230000  13.6080000  53.2060000  17.5090000  11.4810000
  55.1210000  17.0610000  10.8890000  56.7950000  18.4880000  11.9410000
  57.9350000  20.3380000  19.7120000  57.1970000  20.0110000  21.0940000
  58.7590000  19.7100000  20.9330000  49.2380000  21.2720000  10.3980000
  51.3720000  22.2730000   9.1980000  54.8220000  24.2470000  15.0240000
  56.4660000  22.6280000  14.2080000  57.7030000  21.2010000  13.4440000
  54.7490000  16.0470000   9.9880000  56.4620000  17.4090000  11.1220000
  57.7070000  18.6980000  12.1040000  52.3860000  23.2830000   9.2340000
  50.5110000  22.1640000   8.0860000  55.5280000  25.4190000  14.6080000
  53.5250000  24.4450000  15.5960000  57.1610000  23.2220000  14.4670000
  53.4740000  16.1190000   9.3420000  55.6770000  15.0900000   9.4760000
  57.1530000  16.9000000  10.7160000  52.4460000  24.1680000  10.3070000
  53.3440000  23.3730000   8.2350000  50.3480000  23.2310000   7.2070000
  49.8080000  20.9830000   7.8120000  55.8920000  25.6230000  13.2820000
  55.8170000  26.4030000  15.5450000  52.6420000  25.3880000  15.1070000
  53.1180000  23.6600000  16.6770000  52.9970000  17.2970000   8.7860000
  52.6880000  14.9720000   9.2630000  56.4510000  14.3030000  10.3310000
  55.7820000  14.8880000   8.1080000  53.4620000  25.1000000  10.3910000
  51.7820000  24.1310000  10.9860000  54.3570000  24.3230000   8.2990000
  53.3070000  22.7780000   7.4960000  50.8290000  24.0360000   7.3590000
  49.4950000  23.1460000   6.1110000  49.9320000  20.2240000   8.3690000
  48.9380000  20.9090000   6.7450000  56.5320000  26.7890000  12.8990000
  55.6990000  24.9570000  12.6330000  56.4450000  27.5840000  15.1660000
  55.5820000  26.2670000  16.4560000  51.3670000  25.5520000  15.6950000
  52.8940000  25.9300000  14.3690000  51.8650000  23.8080000  17.2430000
  53.7150000  23.0110000  17.0320000  51.7550000  17.3440000   8.1670000
  53.5280000  18.0830000   8.8300000  51.4730000  14.9980000   8.6210000
  52.9950000  14.1630000   9.6570000  57.3060000  13.3450000   9.8140000
  56.3910000  14.4250000  11.2710000  56.6220000  13.9140000   7.5800000
  55.2680000  15.4280000   7.5190000  54.4300000  25.1720000   9.3920000
  53.5010000  25.6930000  11.1320000  54.9940000  24.3900000   7.5980000
  48.7680000  21.9910000   5.8930000  49.4120000  23.8800000   5.5140000
  48.4500000  20.1080000   6.5910000  56.7870000  26.9140000  11.9930000
  56.8040000  27.7800000  13.8410000  56.6290000  28.2540000  15.8130000
  50.9980000  24.7560000  16.7450000  50.7690000  26.2120000  15.3630000
  51.6030000  23.2570000  17.9710000  50.9960000  16.1830000   8.0730000
  51.4270000  18.1610000   7.8100000  50.9570000  14.2040000   8.5530000
  57.3870000  13.1420000   8.4360000  57.8410000  12.8240000  10.4000000
  56.6700000  13.7800000   6.6400000  55.4270000  26.0950000   9.5880000
  47.8610000  21.7970000   4.8720000  57.4070000  28.9100000  13.3560000
  49.7780000  24.8250000  17.3950000  49.7690000  16.1020000   7.4580000
  58.2280000  12.1410000   8.0290000  56.4240000  26.2020000   8.5680000
  47.6210000  22.8840000   4.0190000  57.6130000  29.9880000  14.2710000
  48.8190000  25.7030000  16.8660000  49.2850000  17.2690000   6.8010000
  58.3170000  11.8850000   6.6290000  56.0070000  26.5020000   7.7340000
  57.1050000  26.8500000   8.8440000  56.8420000  25.3260000   8.4280000
  46.9370000  22.6380000   3.3610000  47.3080000  23.6490000   4.5460000
  48.4500000  23.1250000   3.5540000  58.0190000  30.7450000  13.7990000
  56.7520000  30.2640000  14.6500000  58.2100000  29.6960000  14.9920000
  48.6410000  25.4680000  15.9320000  47.9900000  25.6310000  17.3850000
  49.1560000  26.6220000  16.9140000  49.1010000  17.9660000   7.4650000
  49.9600000  17.5910000   6.1690000  48.4600000  17.0530000   6.3170000
  58.6120000  12.6960000   6.1670000  58.9610000  11.1650000   6.4690000
  57.4380000  11.6180000   6.2900000  56.1890000  13.2420000  36.0570000
  56.8700000  14.1910000  35.3340000  55.7520000  12.1020000  35.3450000
  57.3780000  15.2480000  36.0700000  57.0680000  14.1470000  33.9650000
  55.0760000  12.3680000  34.6860000  56.5140000  11.6930000  34.8860000
  55.3620000  11.4560000  35.9710000  58.0840000  16.2580000  35.4520000
  57.2390000  15.2770000  37.0090000  57.7970000  15.1610000  33.3460000
  56.7110000  13.4320000  33.4520000  58.3030000  16.2250000  34.0760000
  58.4230000  16.9810000  35.9670000  57.9480000  15.1230000  32.4090000
  59.0510000  17.2600000  33.4450000  58.5640000  17.9100000  32.2970000
  60.2770000  17.6460000  34.0690000  59.4440000  18.5450000  31.4080000
  57.1860000  17.9310000  32.0280000  60.4880000  18.9280000  34.5400000
  61.2680000  16.6830000  34.2800000  58.9270000  19.1670000  30.2880000
  60.3790000  18.5470000  31.5740000  56.6850000  18.5640000  30.9080000
  56.5880000  17.5010000  32.6270000  61.6560000  19.2630000  35.2290000
  59.8260000  19.5930000  34.3930000  62.4220000  17.0020000  34.9590000
  61.1430000  15.8000000  33.9510000  57.5530000  19.1860000  30.0200000
  59.6960000  19.8660000  29.1650000  55.7490000  18.5740000  30.7460000
  62.6220000  18.2880000  35.4420000  61.7890000  20.1470000  35.5490000
  63.0870000  16.3380000  35.0990000  57.3220000  19.9260000  28.7770000
  58.5560000  20.3520000  28.2740000  60.6510000  20.9500000  29.6420000
  60.6570000  18.9200000  28.4590000  63.7920000  18.4750000  36.1300000
  56.1550000  20.2870000  28.1100000  58.6470000  21.1080000  27.1250000
  60.3130000  22.1600000  30.2180000  61.9790000  20.6000000  29.3740000
  60.3130000  17.8340000  27.6870000  61.9880000  19.3190000  28.6460000
  64.0920000  19.7800000  36.5990000  56.2340000  21.0730000  26.9700000
  55.3100000  19.9990000  28.4350000  57.4730000  21.4860000  26.4640000
  59.4960000  21.3690000  26.7870000  61.3290000  23.0510000  30.5670000
  59.4020000  22.3820000  30.3750000  62.9910000  21.4840000  29.7350000
  59.4040000  17.5700000  27.6080000  61.3190000  17.1220000  27.0160000
  62.9930000  18.5490000  28.0680000  64.1320000  20.3990000  35.8390000
  64.9570000  19.7710000  37.0600000  63.3940000  20.0720000  37.2210000
  55.4360000  21.3330000  26.5250000  57.5690000  22.3340000  25.3250000
  61.0190000  24.3080000  31.1510000  62.6640000  22.6890000  30.3350000
  63.9000000  21.2620000  29.5710000  60.9460000  16.1080000  26.1150000
  62.6590000  17.4700000  27.2490000  63.9050000  18.7590000  28.2310000
  58.5840000  23.3440000  25.3610000  56.7090000  22.2250000  24.2130000
  61.7260000  25.4800000  30.7350000  59.7230000  24.5060000  31.7230000
  63.3580000  23.2830000  30.5940000  59.6720000  16.1800000  25.4690000
  61.8750000  15.1510000  25.6030000  63.3510000  16.9610000  26.8430000
  58.6430000  24.2290000  26.4340000  59.5420000  23.4350000  24.3620000
  56.5450000  23.2920000  23.3340000  56.0060000  21.0440000  23.9390000
  62.0900000  25.6840000  29.4090000  62.0140000  26.4640000  31.6720000
  58.8400000  25.4490000  31.2340000  59.3160000  23.7210000  32.8040000
  59.1940000  17.3580000  24.9130000  58.8860000  15.0330000  25.3900000
  61.9800000  14.9490000  24.2350000  62.6490000  14.3640000  26.4580000
  59.6600000  25.1610000  26.5180000  57.9800000  24.1920000  27.1130000
  60.5540000  24.3840000  24.4260000  59.5050000  22.8390000  23.6230000
  57.0270000  24.0970000  23.4860000  55.6930000  23.2070000  22.2380000
  56.1300000  20.2850000  24.4960000  55.1360000  20.9700000  22.8720000
  62.7300000  26.8500000  29.0260000  61.8970000  25.0180000  28.7600000
  62.6430000  27.6450000  31.2930000  61.7800000  26.3290000  32.5830000
  57.5640000  25.6140000  31.8220000  59.0910000  25.9920000  30.4960000
  58.0630000  23.8690000  33.3700000  59.9120000  23.0720000  33.1590000
  57.9520000  17.4050000  24.2940000  59.7250000  18.1440000  24.9570000
  57.6700000  15.0600000  24.7480000  59.1920000  14.2240000  25.7840000
  63.5040000  13.4060000  25.9410000  62.5890000  14.4860000  27.3980000
  62.8200000  13.9750000  23.7070000  61.4660000  15.4890000  23.6460000
  60.6280000  25.2330000  25.5190000  59.6990000  25.7540000  27.2590000
  61.1920000  24.4510000  23.7250000  54.9660000  22.0520000  22.0200000
  55.6100000  23.9410000  21.6410000  54.6470000  20.1690000  22.7180000
  62.9850000  26.9750000  28.1200000  63.0020000  27.8410000  29.9680000
  62.8260000  28.3160000  31.9400000  57.1950000  24.8170000  32.8720000
  56.9670000  26.2730000  31.4900000  57.8010000  23.3190000  34.0980000
  57.1940000  16.2450000  24.2000000  57.6250000  18.2220000  23.9370000
  57.1540000  14.2650000  24.6800000  63.5850000  13.2030000  24.5630000
  64.0390000  12.8850000  26.5270000  62.8670000  13.8410000  22.7670000
  61.6240000  26.1560000  25.7150000  54.0580000  21.8580000  20.9990000
  63.6050000  28.9710000  29.4830000  55.9750000  24.8860000  33.5220000
  55.9670000  16.1630000  23.5850000  64.4260000  12.2020000  24.1560000
  62.6220000  26.2630000  24.6950000  53.8190000  22.9450000  20.1460000
  63.8110000  30.0490000  30.3980000  55.0160000  25.7640000  32.9930000
  55.4820000  17.3300000  22.9280000  64.5150000  11.9460000  22.7560000
  62.2040000  26.5630000  23.8610000  63.3030000  26.9110000  24.9710000
  63.0400000  25.3870000  24.5550000  53.5050000  23.7100000  20.6730000
  53.1350000  22.7000000  19.4880000  54.6470000  23.1860000  19.6810000
  64.4070000  29.7570000  31.1190000  62.9500000  30.3250000  30.7770000
  64.2160000  30.8060000  29.9260000  55.3540000  26.6830000  33.0410000
  54.1880000  25.6930000  33.5120000  54.8390000  25.5290000  32.0590000
  56.1580000  17.6520000  22.2960000  55.2990000  18.0270000  23.5920000
  54.6580000  17.1140000  22.4440000  64.8100000  12.7570000  22.2940000
  63.6360000  11.6790000  22.4170000  65.1590000  11.2260000  22.5960000
  62.3870000  13.3030000  52.1840000  63.0680000  14.2530000  51.4610000
  61.9490000  12.1630000  51.4720000  63.5760000  15.3090000  52.1970000
  63.2660000  14.2080000  50.0920000  61.2730000  12.4290000  50.8130000
  62.7120000  11.7540000  51.0130000  61.5590000  11.5180000  52.0980000
  64.2820000  16.3190000  51.5790000  63.4360000  15.3380000  53.1360000
  63.9940000  15.2220000  49.4730000  62.9090000  13.4930000  49.5790000
  64.5010000  16.2860000  50.2030000  64.6210000  17.0420000  52.0940000
  64.1460000  15.1840000  48.5360000  65.2490000  17.3220000  49.5720000
  64.7620000  17.9710000  48.4240000  66.4750000  17.7070000  50.1960000
  65.6420000  18.6060000  47.5350000  63.3840000  17.9920000  48.1550000
  66.6860000  18.9890000  50.6670000  67.4650000  16.7440000  50.4070000
  65.1250000  19.2280000  46.4150000  66.5770000  18.6080000  47.7010000
  62.8820000  18.6250000  47.0350000  62.7860000  17.5620000  48.7540000
  67.8540000  19.3240000  51.3560000  66.0240000  19.6550000  50.5200000
  68.6200000  17.0630000  51.0860000  67.3410000  15.8620000  50.0780000
  63.7510000  19.2470000  46.1470000  65.8940000  19.9270000  45.2920000
  61.9460000  18.6350000  46.8730000  68.8190000  18.3500000  51.5690000
  67.9870000  20.2090000  51.6760000  69.2850000  16.3990000  51.2260000
  63.5200000  19.9870000  44.9040000  64.7540000  20.4130000  44.4010000
  66.8490000  21.0110000  45.7690000  66.8550000  18.9810000  44.5860000
  69.9900000  18.5360000  52.2570000  62.3530000  20.3490000  44.2370000
  64.8450000  21.1690000  43.2520000  66.5100000  22.2210000  46.3450000
  68.1760000  20.6610000  45.5010000  66.5100000  17.8960000  43.8140000
  68.1850000  19.3800000  44.7730000  70.2900000  19.8410000  52.7260000
  62.4310000  21.1340000  43.0970000  61.5080000  20.0600000  44.5620000
  63.6710000  21.5480000  42.5910000  65.6940000  21.4300000  42.9140000
  67.5270000  23.1120000  46.6940000  65.6000000  22.4430000  46.5020000
  69.1890000  21.5450000  45.8620000  65.6010000  17.6310000  43.7350000
  67.5170000  17.1840000  43.1430000  69.1900000  18.6110000  44.1950000
  70.3300000  20.4600000  51.9660000  71.1550000  19.8320000  53.1870000
  69.5920000  20.1330000  53.3480000  61.6330000  21.3950000  42.6520000
  63.7670000  22.3950000  41.4520000  67.2170000  24.3700000  47.2780000
  68.8610000  22.7500000  46.4620000  70.0980000  21.3240000  45.6980000
  67.1440000  16.1690000  42.2420000  68.8570000  17.5310000  43.3760000
  70.1030000  18.8200000  44.3580000  64.7820000  23.4050000  41.4880000
  62.9070000  22.2860000  40.3400000  67.9230000  25.5410000  46.8620000
  65.9200000  24.5670000  47.8500000  69.5560000  23.3440000  46.7210000
  65.8690000  16.2410000  41.5950000  68.0730000  15.2120000  41.7300000
  69.5490000  17.0230000  42.9700000  64.8410000  24.2900000  42.5610000
  65.7390000  23.4960000  40.4890000  62.7430000  23.3530000  39.4610000
  62.2030000  21.1060000  40.0660000  68.2870000  25.7460000  45.5360000
  68.2120000  26.5250000  47.7990000  65.0370000  25.5100000  47.3610000
  65.5130000  23.7820000  48.9310000  65.3920000  17.4190000  41.0400000
  65.0830000  15.0940000  41.5170000  68.1780000  15.0100000  40.3620000
  68.8470000  14.4250000  42.5850000  65.8580000  25.2220000  42.6450000
  64.1780000  24.2530000  43.2390000  66.7520000  24.4460000  40.5530000
  65.7030000  22.9000000  39.7500000  63.2240000  24.1580000  39.6130000
  61.8900000  23.2680000  38.3650000  62.3280000  20.3460000  40.6230000
  61.3330000  21.0310000  38.9990000  68.9270000  26.9110000  45.1530000
  68.0950000  25.0790000  44.8870000  68.8410000  27.7060000  47.4200000
  67.9780000  26.3900000  48.7100000  63.7620000  25.6750000  47.9490000
  65.2890000  26.0530000  46.6230000  64.2610000  23.9300000  49.4970000
  66.1100000  23.1340000  49.2850000  64.1500000  17.4660000  40.4200000
  65.9230000  18.2050000  41.0840000  63.8680000  15.1210000  40.8750000
  65.3900000  14.2860000  41.9110000  69.7020000  13.4680000  42.0680000
  68.7860000  14.5470000  43.5250000  69.0170000  14.0360000  39.8340000
  67.6640000  15.5500000  39.7730000  66.8260000  25.2940000  41.6460000
  65.8970000  25.8160000  43.3860000  67.3900000  24.5130000  39.8520000
  61.1640000  22.1130000  38.1470000  61.8080000  24.0020000  37.7680000
  60.8450000  20.2310000  38.8450000  69.1820000  27.0360000  44.2470000
  69.1990000  27.9020000  46.0950000  69.0240000  28.3770000  48.0670000
  63.3930000  24.8790000  48.9990000  63.1640000  26.3350000  47.6170000
  63.9980000  23.3800000  50.2250000  63.3910000  16.3060000  40.3270000
  63.8220000  18.2830000  40.0640000  63.3520000  14.3260000  40.8070000
  69.7830000  13.2640000  40.6900000  70.2370000  12.9460000  42.6540000
  69.0650000  13.9020000  38.8940000  67.8220000  26.2180000  41.8420000
  60.2560000  21.9190000  37.1260000  69.8030000  29.0320000  45.6100000
  62.1730000  24.9470000  49.6490000  62.1650000  16.2240000  39.7120000
  70.6240000  12.2630000  40.2830000  68.8190000  26.3240000  40.8220000
  60.0160000  23.0070000  36.2730000  70.0090000  30.1110000  46.5250000
  61.2140000  25.8250000  49.1200000  61.6800000  17.3910000  39.0550000
  70.7120000  12.0070000  38.8830000  68.4020000  26.6250000  39.9880000
  69.5000000  26.9720000  41.0980000  69.2380000  25.4490000  40.6820000
  59.7030000  23.7710000  36.8000000  59.3330000  22.7610000  35.6150000
  60.8450000  23.2470000  35.8080000  70.6050000  29.8180000  47.2460000
  69.1480000  30.3860000  46.9040000  70.4140000  30.8670000  46.0530000
  61.5510000  26.7440000  49.1680000  60.3850000  25.7540000  49.6390000
  61.0370000  25.5900000  48.1860000  62.3550000  17.7140000  38.4230000
  61.4970000  18.0880000  39.7190000  60.8550000  17.1750000  38.5710000
  71.0080000  12.8180000  38.4210000  69.8340000  11.7400000  38.5440000
  71.3570000  11.2870000  38.7230000  55.1000000  42.1740000  19.9300000
  55.7810000  43.1230000  19.2070000  54.6620000  41.0330000  19.2180000
  56.2890000  44.1790000  19.9430000  55.9790000  43.0790000  17.8380000
  53.9860000  41.2990000  18.5590000  54.2720000  40.3880000  19.8440000
  55.4250000  40.6240000  18.7590000  56.9950000  45.1890000  19.3250000
  56.1490000  44.2080000  20.8820000  56.7070000  44.0920000  17.2190000
  55.6220000  42.3630000  17.3250000  57.2140000  45.1560000  17.9490000
  57.3340000  45.9120000  19.8400000  56.8590000  44.0540000  16.2820000
  57.9620000  46.1920000  17.3180000  57.4750000  46.8410000  16.1700000
  59.1880000  46.5770000  17.9420000  58.3550000  47.4760000  15.2810000
  56.0970000  46.8620000  15.9010000  59.3990000  47.8590000  18.4130000
  60.1780000  45.6140000  18.1530000  57.8380000  48.0980000  14.1610000
  59.2900000  47.4780000  15.4470000  55.5950000  47.4950000  14.7820000
  55.4990000  46.4320000  16.5000000  61.3330000  45.9340000  18.8320000
  58.7370000  48.5250000  18.2660000  60.5670000  48.1940000  19.1020000
  60.0540000  44.7320000  17.8240000  56.4640000  48.1170000  13.8930000
  58.6070000  48.7970000  13.0380000  54.6600000  47.5050000  14.6190000
  61.5320000  47.2200000  19.3150000  60.7000000  49.0790000  19.4220000
  61.9980000  45.2690000  18.9720000  56.2330000  48.8570000  12.6500000
  57.4670000  49.2830000  12.1470000  59.5620000  49.8810000  13.5150000
  59.5680000  47.8510000  12.3320000  62.7030000  47.4060000  20.0030000
  55.0660000  49.2190000  11.9830000  57.5580000  50.0390000  10.9980000
  59.2240000  51.0910000  14.0910000  60.8890000  49.5310000  13.2470000
  59.2230000  46.7660000  11.5600000  60.8980000  48.2500000  12.5190000
  63.0030000  48.7110000  20.4720000  55.1440000  50.0040000  10.8430000
  54.2210000  48.9300000  12.3080000  56.3840000  50.4180000  10.3370000
  58.4070000  50.3000000  10.6600000  60.2400000  51.9820000  14.4400000
  58.3130000  51.3130000  14.2480000  61.9020000  50.4150000  13.6080000
  58.3140000  46.5010000  11.4810000  60.2300000  46.0540000  10.8890000
  61.9030000  47.4810000  11.9410000  62.3050000  49.0030000  21.0940000
  63.0430000  49.3300000  19.7120000  63.8680000  48.7020000  20.9330000
  61.4990000  43.4170000  11.2710000  56.4800000  51.2650000   9.1980000
  59.9300000  53.2400000  15.0240000  61.5740000  51.6210000  14.2080000
  62.8110000  50.1940000  13.4440000  59.8570000  45.0390000   9.9880000
  61.5700000  46.4010000  11.1220000  62.8160000  47.6900000  12.1040000
  57.4950000  52.2750000   9.2340000  55.6200000  51.1560000   8.0860000
  60.6360000  54.4110000  14.6080000  58.6330000  53.4370000  15.5960000
  62.2690000  52.2150000  14.4670000  58.5820000  45.1110000   9.3420000
  60.7860000  44.0820000   9.4760000  62.2620000  45.8930000  10.7160000
  57.5540000  53.1600000  10.3070000  58.4520000  52.3660000   8.2350000
  55.4560000  52.2230000   7.2070000  54.9160000  49.9760000   7.8120000
  61.0000000  54.6160000  13.2820000  60.9250000  55.3950000  15.5450000
  57.7500000  54.3800000  15.1070000  58.2260000  52.6530000  16.6770000
  58.1050000  46.2890000   8.7860000  57.7960000  43.9640000   9.2630000
  61.5600000  43.2950000  10.3310000  60.8910000  43.8800000   8.1080000
  58.5710000  54.0920000  10.3910000  56.8910000  53.1230000  10.9860000
  59.4650000  53.3160000   8.2990000  58.4160000  51.7700000   7.4960000
  55.9380000  53.0280000   7.3590000  54.6030000  52.1380000   6.1110000
  54.3470000  50.2650000  10.3980000  54.0460000  49.9010000   6.7450000
  61.6410000  55.7810000  12.8990000  60.8080000  53.9490000  12.6330000
  61.5540000  56.5760000  15.1660000  60.6910000  55.2600000  16.4560000
  56.9740000  52.8000000  17.2430000  58.0020000  54.9230000  14.3690000
  56.4750000  54.5450000  15.6950000  58.8230000  52.0040000  17.0320000
  56.8630000  46.3360000   8.1670000  55.0410000  49.2160000   8.3690000
  56.5810000  43.9910000   8.6210000  58.1030000  43.1560000   9.6570000
  61.7300000  42.9060000   7.5800000  60.3770000  44.4200000   7.5190000
  62.4150000  42.3380000   9.8140000  58.6360000  47.0750000   8.8300000
  59.5390000  54.1640000   9.3920000  58.6100000  54.6860000  11.1320000
  60.1030000  53.3830000   7.5980000  53.8770000  50.9830000   5.8930000
  54.5210000  52.8720000   5.5140000  53.5580000  49.1010000   6.5910000
  61.8950000  55.9060000  11.9930000  61.9120000  56.7730000  13.8410000
  61.7370000  57.2470000  15.8130000  56.1060000  53.7490000  16.7450000
  55.8770000  55.2050000  15.3630000  56.7120000  52.2500000  17.9710000
  56.1040000  45.1760000   8.0730000  56.5350000  47.1530000   7.8100000
  56.0650000  43.1960000   8.5530000  62.4960000  42.1340000   8.4360000
  62.9500000  41.8160000  10.4000000  61.7780000  42.7720000   6.6400000
  60.5350000  55.0880000   9.5880000  52.9690000  50.7890000   4.8720000
  62.5160000  57.9020000  13.3560000  54.8860000  53.8170000  17.3950000
  54.8780000  45.0940000   7.4580000  63.3370000  41.1330000   8.0290000
  61.5320000  55.1940000   8.5680000  52.7290000  51.8770000   4.0190000
  62.7220000  58.9810000  14.2710000  53.9270000  54.6950000  16.8660000
  54.3930000  46.2610000   6.8010000  63.4250000  40.8770000   6.6290000
  61.1150000  55.4950000   7.7340000  62.2130000  55.8420000   8.8440000
  61.9510000  54.3190000   8.4280000  52.4160000  52.6410000   4.5460000
  53.5580000  52.1170000   3.5540000  52.0460000  51.6310000   3.3610000
  63.1270000  59.7370000  13.7990000  61.8610000  59.2570000  14.6500000
  63.3180000  58.6880000  14.9920000  53.7500000  54.4600000  15.9320000
  53.0990000  54.6240000  17.3850000  54.2640000  55.6140000  16.9140000
  53.5690000  46.0450000   6.3170000  54.2100000  46.9580000   7.4650000
  55.0680000  46.5840000   6.1690000  64.0700000  40.1570000   6.4690000
  63.7210000  41.6880000   6.1670000  62.5470000  40.6100000   6.2900000
  77.4660000  72.5210000  45.6100000  76.8620000  71.3910000  46.0950000
  77.9530000  63.3300000  52.7260000  76.5040000  71.1950000  47.4200000
  75.5170000  62.8120000  51.3560000  77.9930000  63.9480000  51.9660000
  77.2550000  63.6220000  53.3480000  78.8180000  63.3210000  53.1870000
  75.8750000  70.0140000  47.7990000  73.5590000  69.3040000  43.3860000
  75.8400000  58.4990000  40.3620000  75.6490000  63.6970000  51.6760000
  73.5830000  68.0560000  47.8500000  75.6400000  69.8780000  48.7100000
  77.2190000  66.8330000  46.7210000  74.8800000  67.8580000  47.2780000
  75.1900000  66.6010000  46.6940000  75.5860000  69.0290000  46.8620000
  74.1730000  65.7100000  46.3450000  76.5240000  66.2390000  46.4620000
  72.5040000  67.7790000  42.5610000  75.9500000  69.2340000  45.5360000
  74.5120000  64.4990000  45.7690000  73.3560000  64.9190000  42.9140000
  76.8520000  65.0340000  45.8620000  73.7730000  66.6220000  49.2850000
  73.5210000  68.7110000  42.6450000  75.7580000  68.5680000  44.8870000
  76.5900000  70.3990000  45.1530000  76.4490000  58.0360000  43.5250000
  75.8390000  64.1500000  45.5010000  73.5560000  63.4160000  45.2920000
  77.7610000  64.8120000  45.6980000  74.4890000  68.7820000  41.6460000
  70.8270000  69.8230000  47.6170000  76.8450000  70.5240000  44.2470000
  71.4140000  62.7360000  46.1470000  72.7880000  62.7160000  46.4150000
  72.4160000  63.9010000  44.4010000  74.5180000  62.4690000  44.5860000
  75.4850000  69.7060000  41.8420000  70.5450000  62.1130000  47.0350000
  73.3040000  62.0950000  47.5350000  72.5080000  64.6580000  43.2520000
  71.1830000  63.4750000  44.9040000  74.1730000  61.3840000  43.8140000
  75.8480000  62.8690000  44.7730000  77.6710000  73.5990000  46.5250000
  71.0470000  61.4800000  48.1550000  69.6090000  62.1240000  46.8730000
  72.4240000  61.4600000  48.4240000  73.2640000  61.1200000  43.7350000
  71.3330000  65.0360000  42.5910000  73.2630000  65.9320000  46.5020000
  70.0160000  63.8370000  44.2370000  74.2400000  62.0970000  47.7010000
  75.1790000  60.6720000  43.1430000  76.8530000  62.0990000  44.1950000
  78.2680000  73.3070000  47.2460000  78.0770000  74.3560000  46.0530000
  76.8110000  73.8750000  46.9040000  70.4480000  61.0500000  48.7540000
  72.9120000  60.8100000  49.5720000  71.4300000  65.8830000  41.4520000
  70.0940000  64.6220000  43.0970000  69.1710000  63.5480000  44.5620000
  74.8070000  59.6580000  42.2420000  76.5200000  61.0200000  43.3760000
  77.7650000  62.3080000  44.3580000  74.1380000  61.1960000  50.1960000
  72.1630000  59.7750000  50.2030000  72.4440000  66.8930000  41.4880000
  70.5700000  65.7750000  40.3400000  73.3650000  66.3890000  39.7500000
  73.5320000  59.7290000  41.5950000  75.7350000  58.7010000  41.7300000
  70.8870000  67.6470000  39.6130000  74.3480000  62.4770000  50.6670000
  71.6570000  58.7110000  49.4730000  75.1280000  60.2330000  50.4070000
  71.9440000  59.8080000  51.5790000  70.4060000  66.8420000  39.4610000
  69.8660000  64.5940000  40.0660000  73.1760000  67.2710000  48.9310000
  72.7000000  68.9990000  47.3610000  73.0550000  60.9070000  41.0400000
  76.5100000  57.9140000  42.5850000  73.4020000  66.9840000  40.4890000
  72.7460000  58.5830000  41.5170000  71.8130000  60.9540000  40.4200000
  72.2830000  60.5310000  52.0940000  71.5310000  58.6090000  40.8750000
  69.9900000  63.8350000  40.6230000  75.3260000  59.0380000  39.7730000
  70.9290000  57.6970000  50.0920000  71.8090000  58.6720000  48.5360000
  71.2380000  58.7970000  52.1970000  68.9960000  64.5190000  38.9990000
  69.2960000  64.8830000  42.6520000  69.5530000  66.7560000  38.3650000
  71.8400000  67.7420000  43.2390000  71.4250000  69.1630000  47.9490000
  73.6870000  63.1430000  50.5200000  71.9230000  67.4190000  49.4970000
  72.9520000  69.5410000  46.6230000  76.2830000  60.5520000  51.0860000
  75.0040000  59.3500000  50.0780000  77.3650000  56.9560000  42.0680000
  77.2110000  60.5110000  42.9700000  74.4150000  67.9340000  40.5530000
  73.5860000  61.6940000  41.0840000  76.6800000  57.5250000  39.8340000
  73.0530000  57.7740000  41.9110000  71.0540000  59.7940000  40.3270000
  71.4850000  61.7720000  40.0640000  71.0150000  57.8150000  40.8070000
  70.7310000  57.7410000  51.4610000  70.5720000  56.9820000  49.5790000
  71.0990000  58.8260000  53.1360000  68.5080000  63.7190000  38.8450000
  68.8260000  65.6020000  38.1470000  69.4700000  67.4910000  37.7680000
  71.0560000  68.3670000  48.9990000  76.6870000  71.8650000  48.0670000
  71.6610000  66.8680000  50.2250000  76.4820000  61.8380000  51.5690000
  77.9000000  56.4340000  42.6540000  76.9470000  59.8880000  51.2260000
  77.4460000  56.7530000  40.6900000  75.0530000  68.0010000  39.8520000
  76.7280000  57.3910000  38.8940000  69.8270000  59.7120000  39.7120000
  70.0490000  56.7920000  52.1840000  67.9190000  65.4070000  37.1260000
  69.8360000  68.4360000  49.6490000  77.6520000  62.0240000  52.2570000
  78.2860000  55.7520000  40.2830000  67.6790000  66.4950000  36.2730000
  69.6120000  55.6520000  51.4720000  69.3430000  60.8800000  39.0550000
  68.8770000  69.3140000  49.1200000  76.4820000  69.8130000  40.8220000
  78.3750000  55.4960000  38.8830000  68.5080000  66.7360000  35.8080000
  68.5180000  60.6630000  38.5710000  70.0180000  61.2020000  38.4230000
  70.3750000  55.2430000  51.0130000  68.9360000  55.9170000  50.8130000
  69.2220000  55.0060000  52.0980000  67.3660000  67.2600000  36.8000000
  69.1590000  61.5770000  39.7190000  66.9950000  66.2490000  35.6150000
  69.2140000  70.2330000  49.1680000  68.0480000  69.2420000  49.6390000
  68.6990000  69.0790000  48.1860000  76.0650000  70.1130000  39.9880000
  77.1630000  70.4610000  41.0980000  76.9000000  68.9370000  40.6820000
  78.6710000  56.3070000  38.4210000  77.4960000  55.2290000  38.5440000
  79.0190000  54.7760000  38.7230000  57.7020000   7.4230000  37.1260000
  58.6090000   7.6170000  38.1470000  57.4620000   8.5100000  36.2730000
  67.1480000  -1.0290000  42.0680000  59.3360000   8.7720000  38.3650000
  58.2910000   8.7510000  35.8080000  56.7790000   8.2640000  35.6150000
  57.1490000   9.2750000  36.8000000  65.6230000   0.5140000  40.3620000
  63.3420000  11.3190000  43.3860000  62.2870000   9.7940000  42.5610000
  59.2530000   9.5060000  37.7680000  60.3530000   7.7900000  40.3400000
  66.2320000   0.0510000  43.5250000  59.0790000   6.8980000  42.6520000
  61.2130000   7.8990000  41.4520000  61.1170000   7.0510000  42.5910000
  65.5190000   0.7160000  41.7300000  62.2910000   6.6730000  43.2520000
  59.8770000   6.6380000  43.0970000  59.6490000   6.6090000  40.0660000
  60.1890000   8.8570000  39.4610000  62.1990000   5.9170000  44.4010000
  63.0470000   3.1350000  43.7350000  59.7990000   5.8520000  44.2370000
  62.7350000  11.5570000  46.6230000  61.3140000   0.6240000  40.8750000
  65.1090000   1.0540000  39.7730000  58.7790000   6.5350000  38.9990000
  59.7730000   5.8500000  40.6230000  60.9660000   5.4910000  44.9040000
  63.3390000   5.4310000  45.2920000  58.9540000   5.5640000  44.5620000
  60.8370000   1.8100000  40.3270000  60.7980000  -0.1700000  40.8070000
  58.2910000   5.7340000  38.8450000  65.6220000   6.1650000  45.5010000
  64.2950000   6.5150000  45.7690000  62.5710000   4.7320000  46.4150000
  64.3010000   4.4850000  44.5860000  59.6100000   1.7280000  39.7120000
  66.6350000   7.0490000  45.8620000  63.9560000   7.7250000  46.3450000
  63.0870000   4.1100000  47.5350000  61.1970000   4.7510000  46.1470000
  63.9560000   3.3990000  43.8140000  65.6310000   4.8840000  44.7730000
  59.1260000   2.8950000  39.0550000  66.3070000   8.2540000  46.4620000
  67.5440000   6.8270000  45.6980000  64.9730000   8.6160000  46.6940000
  63.0460000   7.9470000  46.5020000  62.2070000   3.4750000  48.4240000
  64.0230000   4.1120000  47.7010000  60.3280000   4.1290000  47.0350000
  63.1390000   6.9340000  42.9140000  64.9630000   2.6870000  43.1430000
  66.6360000   4.1140000  44.1950000  59.8010000   3.2170000  38.4230000
  58.9420000   3.5920000  39.7190000  58.3010000   2.6790000  38.5710000
  65.4230000  11.8940000  48.7100000  64.6630000   9.8730000  47.2780000
  62.6950000   2.8250000  49.5720000  60.8300000   3.4960000  48.1550000
  59.3920000   4.1390000  46.8730000  64.5900000   1.6730000  42.2420000
  66.3030000   3.0350000  43.3760000  67.5480000   4.3240000  44.3580000
  63.3660000  10.0710000  47.8500000  65.3690000  11.0450000  46.8620000
  61.9460000   1.7900000  50.2030000  63.9210000   3.2110000  50.1960000
  62.8360000  -0.2110000  41.9110000  62.2270000   8.9090000  41.4880000
  63.3150000   1.7450000  41.5950000  63.3690000   3.7090000  41.0840000
  64.1310000   4.4930000  50.6670000  62.9590000   9.2860000  48.9310000
  62.4830000  11.0140000  47.3610000  65.7330000  11.2490000  45.5360000
  64.9110000   2.2480000  50.4070000  61.4400000   0.7260000  49.4730000
  61.7270000   1.8230000  51.5790000  62.5290000   0.5980000  41.5170000
  65.6580000  12.0290000  47.7990000  63.1850000   9.0000000  40.4890000
  62.8380000   2.9230000  41.0400000  66.2930000  -0.0710000  42.5850000
  66.0660000   2.5670000  51.0860000  63.5560000   8.6370000  49.2850000
  65.3000000   4.8280000  51.3560000  63.4700000   5.1580000  50.5200000
  67.0020000   8.8480000  46.7210000  66.4630000  -0.4600000  39.8340000
  65.5410000  10.5830000  44.8870000  66.2870000  13.2100000  47.4200000
  60.7120000  -0.2880000  50.0920000  64.7870000   1.3650000  50.0780000
  61.0210000   0.8130000  52.1970000  61.5920000   0.6880000  48.5360000
  61.7060000   9.4340000  49.4970000  62.0660000   2.5460000  52.0940000
  61.2080000  11.1790000  47.9490000  60.2310000   3.0660000  48.7540000
  66.3730000  12.4150000  45.1530000  61.6230000   9.7570000  43.2390000
  63.3040000  10.7260000  42.6450000  63.1480000   8.4040000  39.7500000
  64.1980000   9.9490000  40.5530000  60.6700000   9.6620000  39.6130000
  61.5960000   2.9700000  40.4200000  66.9940000   2.5260000  42.9700000
  66.2650000   3.8530000  51.5690000  66.7300000   1.9030000  51.2260000
  67.6830000  -1.5500000  42.6540000  67.2290000  -1.2320000  40.6900000
  65.4320000   5.7120000  51.6760000  66.4700000  13.8810000  48.0670000
  60.8820000   0.8420000  53.1360000  60.5140000  -0.2440000  51.4610000
  60.3550000  -1.0030000  49.5790000  60.8390000  10.3820000  48.9990000
  61.4440000   8.8830000  50.2250000  60.6100000  11.8380000  47.6170000
  66.6450000  13.4060000  46.0950000  66.6280000  12.5400000  44.2470000
  64.8360000  10.0160000  39.8520000  64.2720000  10.7980000  41.6460000
  61.2680000   3.7870000  40.0640000  66.5110000  -0.5940000  38.8940000
  67.4360000   4.0390000  52.2570000  65.2680000  11.7210000  41.8420000
  59.8320000  -1.1930000  52.1840000  59.6190000  10.4510000  49.6490000
  67.2490000  14.5360000  45.6100000  68.0690000  -2.2330000  40.2830000
  67.7360000   5.3450000  52.7260000  66.2650000  11.8280000  40.8220000
  59.3950000  -2.3330000  51.4720000  58.6600000  11.3290000  49.1200000
  67.4540000  15.6140000  46.5250000  68.1580000  -2.4890000  38.8830000
  67.0380000   5.6370000  53.3480000  66.6830000  10.9520000  40.6820000
  68.8030000  -3.2090000  38.7230000  66.9460000  12.4760000  41.0980000
  67.7760000   5.9640000  51.9660000  68.6010000   5.3360000  53.1870000
  59.0050000  -2.9790000  52.0980000  60.1580000  -2.7420000  51.0130000
  58.7190000  -2.0670000  50.8130000  57.8310000  11.2570000  49.6390000
  58.4820000  11.0940000  48.1860000  58.9970000  12.2480000  49.1680000
  66.5940000  15.8900000  46.9040000  68.0510000  15.3220000  47.2460000
  67.8600000  16.3710000  46.0530000  68.4540000  -1.6780000  38.4210000
  67.2790000  -2.7560000  38.5440000  65.8480000  12.1280000  39.9880000
  72.3570000  43.5280000  45.6100000  71.7540000  42.3990000  46.0950000
  72.8440000  34.3370000  52.7260000  71.3950000  42.2020000  47.4200000
  70.4080000  33.8200000  51.3560000  72.8840000  34.9560000  51.9660000
  72.1460000  34.6290000  53.3480000  73.7090000  34.3290000  53.1870000
  70.7660000  41.0210000  47.7990000  68.4510000  40.3120000  43.3860000
  70.7320000  29.5060000  40.3620000  70.5410000  34.7050000  51.6760000
  68.4750000  39.0630000  47.8500000  70.5320000  40.8860000  48.7100000
  72.1100000  37.8410000  46.7210000  69.7710000  38.8660000  47.2780000
  70.0810000  37.6090000  46.6940000  70.4780000  40.0370000  46.8620000
  69.0650000  36.7170000  46.3450000  71.4160000  37.2470000  46.4620000
  67.3950000  38.7860000  42.5610000  70.8420000  40.2420000  45.5360000
  69.4030000  35.5070000  45.7690000  68.2480000  35.9270000  42.9140000
  71.7430000  36.0410000  45.8620000  68.6640000  37.6300000  49.2850000
  68.4120000  39.7190000  42.6450000  70.6490000  39.5750000  44.8870000
  71.4820000  41.4070000  45.1530000  71.3400000  29.0430000  43.5250000
  70.7310000  35.1570000  45.5010000  68.4480000  34.4230000  45.2920000
  72.6520000  35.8200000  45.6980000  69.3800000  39.7900000  41.6460000
  65.7190000  40.8310000  47.6170000  71.7360000  41.5320000  44.2470000
  66.3050000  33.7430000  46.1470000  67.6790000  33.7240000  46.4150000
  67.3080000  34.9090000  44.4010000  69.4090000  33.4770000  44.5860000
  70.3760000  40.7140000  41.8420000  65.4370000  33.1210000  47.0350000
  68.1960000  33.1020000  47.5350000  67.3990000  35.6650000  43.2520000
  66.0740000  34.4830000  44.9040000  69.0650000  32.3920000  43.8140000
  70.7400000  33.8770000  44.7730000  72.5630000  44.6070000  46.5250000
  65.9380000  32.4880000  48.1550000  64.5010000  33.1310000  46.8730000
  67.3160000  32.4670000  48.4240000  68.1560000  32.1270000  43.7350000
  66.2250000  36.0440000  42.5910000  68.1540000  36.9390000  46.5020000
  64.9070000  34.8450000  44.2370000  69.1310000  33.1050000  47.7010000
  70.0710000  31.6800000  43.1430000  71.7450000  33.1070000  44.1950000
  73.1590000  44.3140000  47.2460000  72.9680000  45.3640000  46.0530000
  71.7020000  44.8830000  46.9040000  65.3400000  32.0580000  48.7540000
  67.8030000  31.8180000  49.5720000  66.3210000  36.8910000  41.4520000
  64.9860000  35.6300000  43.0970000  64.0620000  34.5560000  44.5620000
  69.6980000  30.6650000  42.2420000  71.4110000  32.0270000  43.3760000
  72.6570000  33.3160000  44.3580000  69.0290000  32.2030000  50.1960000
  67.0550000  30.7820000  50.2030000  67.3360000  37.9010000  41.4880000
  65.4610000  36.7820000  40.3400000  68.2570000  37.3960000  39.7500000
  68.4230000  30.7370000  41.5950000  70.6270000  29.7090000  41.7300000
  65.7790000  38.6540000  39.6130000  69.2400000  33.4850000  50.6670000
  66.5490000  29.7180000  49.4730000  70.0200000  31.2400000  50.4070000
  66.8360000  30.8160000  51.5790000  65.2970000  37.8490000  39.4610000
  64.7580000  35.6020000  40.0660000  68.0680000  38.2790000  48.9310000
  67.5920000  40.0060000  47.3610000  67.9460000  31.9150000  41.0400000
  71.4010000  28.9210000  42.5850000  68.2940000  37.9920000  40.4890000
  67.6380000  29.5900000  41.5170000  66.7040000  31.9620000  40.4200000
  67.1750000  31.5380000  52.0940000  66.4220000  29.6170000  40.8750000
  64.8820000  34.8420000  40.6230000  70.2180000  30.0460000  39.7730000
  65.8200000  28.7050000  50.0920000  66.7000000  29.6800000  48.5360000
  66.1300000  29.8050000  52.1970000  63.8870000  35.5270000  38.9990000
  64.1880000  35.8910000  42.6520000  64.4440000  37.7640000  38.3650000
  66.7320000  38.7490000  43.2390000  66.3160000  40.1710000  47.9490000
  68.5780000  34.1510000  50.5200000  66.8150000  38.4260000  49.4970000
  67.8430000  40.5490000  46.6230000  71.1740000  31.5600000  51.0860000
  69.8950000  30.3580000  50.0780000  72.2560000  27.9640000  42.0680000
  72.1030000  31.5190000  42.9700000  69.3060000  38.9420000  40.5530000
  68.4770000  32.7010000  41.0840000  71.5720000  28.5320000  39.8340000
  67.9440000  28.7820000  41.9110000  65.9460000  30.8020000  40.3270000
  66.3770000  32.7790000  40.0640000  65.9060000  28.8220000  40.8070000
  65.6220000  28.7490000  51.4610000  65.4630000  27.9890000  49.5790000
  65.9910000  29.8340000  53.1360000  63.3990000  34.7270000  38.8450000
  63.7180000  36.6090000  38.1470000  64.3620000  38.4980000  37.7680000
  65.9470000  39.3750000  48.9990000  71.5780000  42.8730000  48.0670000
  66.5530000  37.8760000  50.2250000  71.3740000  32.8460000  51.5690000
  72.7910000  27.4420000  42.6540000  71.8390000  30.8950000  51.2260000
  72.3370000  27.7600000  40.6900000  69.9440000  39.0090000  39.8520000
  71.6190000  28.3980000  38.8940000  64.7190000  30.7200000  39.7120000
  64.9410000  27.8000000  52.1840000  62.8100000  36.4150000  37.1260000
  64.7270000  39.4430000  49.6490000  72.5440000  33.0320000  52.2570000
  73.1780000  26.7590000  40.2830000  62.5700000  37.5030000  36.2730000
  64.5040000  26.6600000  51.4720000  64.2340000  31.8870000  39.0550000
  63.7680000  40.3210000  49.1200000  71.3740000  40.8200000  40.8220000
  73.2670000  26.5030000  38.8830000  63.3990000  37.7430000  35.8080000
  63.4100000  31.6710000  38.5710000  64.9100000  32.2100000  38.4230000
  65.2660000  26.2500000  51.0130000  63.8280000  26.9250000  50.8130000
  64.1140000  26.0140000  52.0980000  62.2570000  38.2670000  36.8000000
  64.0510000  32.5840000  39.7190000  61.8870000  37.2570000  35.6150000
  64.1060000  41.2400000  49.1680000  62.9400000  40.2500000  49.6390000
  63.5910000  40.0860000  48.1860000  70.9560000  41.1210000  39.9880000
  72.0550000  41.4680000  41.0980000  71.7920000  39.9450000  40.6820000
  73.5620000  27.3140000  38.4210000  72.3880000  26.2360000  38.5440000
  73.9110000  25.7830000  38.7230000  66.1590000  43.4670000  29.4830000
  65.5560000  42.3380000  29.9680000  66.6460000  34.2760000  36.5990000
  65.1970000  42.1410000  31.2930000  64.2110000  33.7590000  35.2290000
  66.6870000  34.8950000  35.8390000  65.9490000  34.5680000  37.2210000
  67.5110000  34.2670000  37.0600000  64.5690000  40.9600000  31.6720000
  62.2530000  40.2510000  27.2590000  64.5340000  29.4450000  24.2350000
  64.3430000  34.6440000  35.5490000  62.2770000  39.0020000  31.7230000
  64.3340000  40.8250000  32.5830000  65.9130000  37.7800000  30.5940000
  63.5740000  38.8050000  31.1510000  63.8840000  37.5470000  30.5670000
  64.2800000  39.9760000  30.7350000  62.8670000  36.6560000  30.2180000
  65.2180000  37.1860000  30.3350000  61.1980000  38.7250000  26.4340000
  64.6440000  40.1810000  29.4090000  63.2060000  35.4460000  29.6420000
  62.0500000  35.8650000  26.7870000  65.5450000  35.9800000  29.7350000
  62.4660000  37.5690000  33.1590000  62.2140000  39.6570000  26.5180000
  64.4510000  39.5140000  28.7600000  65.2840000  41.3460000  29.0260000
  65.1430000  28.9820000  27.3980000  64.5330000  35.0960000  29.3740000
  62.2500000  34.3620000  29.1650000  66.4550000  35.7590000  29.5710000
  63.1820000  39.7290000  25.5190000  59.5210000  40.7700000  31.4900000
  65.5390000  41.4710000  28.1200000  60.1080000  33.6820000  30.0200000
  61.4810000  33.6630000  30.2880000  61.1100000  34.8480000  28.2740000
  63.2120000  33.4160000  28.4590000  64.1790000  40.6530000  25.7150000
  59.2390000  33.0600000  30.9080000  61.9980000  33.0410000  31.4080000
  61.2020000  35.6040000  27.1250000  59.8770000  34.4220000  28.7770000
  62.8670000  32.3310000  27.6870000  64.5420000  33.8150000  28.6460000
  66.3650000  44.5460000  30.3980000  59.7410000  32.4270000  32.0280000
  58.3030000  33.0700000  30.7460000  61.1180000  32.4060000  32.2970000
  61.9580000  32.0660000  27.6080000  60.0270000  35.9830000  26.4640000
  61.9570000  36.8780000  30.3750000  58.7090000  34.7840000  28.1100000
  62.9330000  33.0430000  31.5740000  63.8730000  31.6190000  27.0160000
  65.5470000  33.0460000  28.0680000  66.9610000  44.2530000  31.1190000
  66.7710000  45.3020000  29.9260000  65.5040000  44.8210000  30.7770000
  59.1420000  31.9970000  32.6270000  61.6050000  31.7570000  33.4450000
  60.1230000  36.8300000  25.3250000  58.7880000  35.5690000  26.9700000
  57.8650000  34.4950000  28.4350000  63.5010000  30.6040000  26.1150000
  65.2130000  31.9660000  27.2490000  66.4590000  33.2550000  28.2310000
  62.8320000  32.1420000  34.0690000  60.8570000  30.7210000  34.0760000
  61.1380000  37.8400000  25.3610000  59.2630000  36.7210000  24.2130000
  62.0590000  37.3350000  23.6230000  62.2260000  30.6760000  25.4690000
  64.4290000  29.6470000  25.6030000  59.5810000  38.5930000  23.4860000
  63.0420000  33.4240000  34.5400000  60.3510000  29.6570000  33.3460000
  63.8220000  31.1790000  34.2800000  60.6380000  30.7540000  35.4520000
  59.1000000  37.7880000  23.3340000  58.5600000  35.5410000  23.9390000
  61.8700000  38.2170000  32.8040000  61.3940000  39.9450000  31.2340000
  61.7490000  31.8540000  24.9130000  65.2030000  28.8600000  26.4580000
  62.0960000  37.9310000  24.3620000  61.4400000  29.5290000  25.3900000
  60.5060000  31.9010000  24.2940000  60.9770000  31.4770000  35.9670000
  60.2250000  29.5560000  24.7480000  58.6840000  34.7810000  24.4960000
  64.0200000  29.9850000  23.6460000  59.6230000  28.6430000  33.9650000
  60.5030000  29.6190000  32.4090000  59.9320000  29.7440000  36.0700000
  57.6900000  35.4660000  22.8720000  57.9900000  35.8300000  26.5250000
  58.2470000  37.7030000  22.2380000  60.5340000  38.6880000  27.1130000
  60.1190000  40.1100000  31.8220000  62.3810000  34.0900000  34.3930000
  60.6170000  38.3650000  33.3700000  61.6460000  40.4880000  30.4960000
  64.9760000  31.4990000  34.9590000  63.6980000  30.2970000  33.9510000
  66.0580000  27.9030000  25.9410000  65.9050000  31.4580000  26.8430000
  63.1090000  38.8810000  24.4260000  62.2800000  32.6400000  24.9570000
  65.3740000  28.4710000  23.7070000  61.7470000  28.7210000  25.7840000
  59.7480000  30.7410000  24.2000000  60.1790000  32.7180000  23.9370000
  59.7090000  28.7610000  24.6800000  59.4250000  28.6880000  35.3340000
  59.2650000  27.9280000  33.4520000  59.7930000  29.7730000  37.0090000
  57.2020000  34.6660000  22.7180000  57.5200000  36.5480000  22.0200000
  58.1640000  38.4370000  21.6410000  59.7500000  39.3140000  32.8720000
  65.3810000  42.8120000  31.9400000  60.3550000  37.8150000  34.0980000
  65.1760000  32.7850000  35.4420000  66.5930000  27.3810000  26.5270000
  65.6410000  30.8340000  35.0990000  66.1390000  27.6990000  24.5630000
  63.7460000  38.9480000  23.7250000  65.4220000  28.3370000  22.7670000
  58.5210000  30.6590000  23.5850000  58.7430000  27.7380000  36.0570000
  56.6130000  36.3540000  20.9990000  58.5300000  39.3820000  33.5220000
  66.3460000  32.9710000  36.1300000  66.9800000  26.6980000  24.1560000
  56.3730000  37.4420000  20.1460000  58.3060000  26.5980000  35.3450000
  58.0370000  31.8260000  22.9280000  57.5710000  40.2600000  32.9930000
  65.1760000  40.7590000  24.6950000  67.0690000  26.4420000  22.7560000
  57.2020000  37.6820000  19.6810000  57.2120000  31.6100000  22.4440000
  58.7120000  32.1490000  22.2960000  59.0680000  26.1890000  34.8860000
  57.6300000  26.8640000  34.6860000  57.9160000  25.9530000  35.9710000
  56.0600000  38.2060000  20.6730000  57.8530000  32.5230000  23.5920000
  55.6890000  37.1960000  19.4880000  57.9080000  41.1790000  33.0410000
  56.7420000  40.1890000  33.5120000  57.3930000  40.0250000  32.0590000
  64.7590000  41.0600000  23.8610000  65.8570000  41.4070000  24.9710000
  65.5940000  39.8840000  24.5550000  67.3640000  27.2530000  22.2940000
  66.1900000  26.1750000  22.4170000  67.7130000  25.7220000  22.5960000
  68.7140000  57.9630000  29.4830000  68.1100000  56.8340000  29.9680000
  69.2010000  48.7720000  36.5990000  67.7520000  56.6370000  31.2930000
  66.7650000  48.2550000  35.2290000  69.2410000  49.3910000  35.8390000
  68.5030000  49.0640000  37.2210000  70.0660000  48.7640000  37.0600000
  67.1230000  55.4560000  31.6720000  64.8070000  54.7470000  27.2590000
  67.0880000  43.9420000  24.2350000  66.8970000  49.1400000  35.5490000
  64.8310000  53.4980000  31.7230000  66.8880000  55.3210000  32.5830000
  68.4670000  52.2760000  30.5940000  66.1280000  53.3010000  31.1510000
  66.4380000  52.0440000  30.5670000  66.8340000  54.4720000  30.7350000
  65.4210000  51.1520000  30.2180000  67.7720000  51.6820000  30.3350000
  63.7520000  53.2210000  26.4340000  67.1980000  54.6770000  29.4090000
  65.7600000  49.9420000  29.6420000  64.6040000  50.3620000  26.7870000
  68.1000000  50.4760000  29.7350000  65.0210000  52.0650000  33.1590000
  64.7690000  54.1540000  26.5180000  67.0060000  54.0110000  28.7600000
  67.8380000  55.8420000  29.0260000  67.6970000  43.4780000  27.3980000
  67.0870000  49.5920000  29.3740000  64.8040000  48.8580000  29.1650000
  69.0090000  50.2550000  29.5710000  65.7370000  54.2250000  25.5190000
  62.0750000  55.2660000  31.4900000  68.0930000  55.9670000  28.1200000
  62.6620000  48.1780000  30.0200000  64.0360000  48.1590000  30.2880000
  63.6640000  49.3440000  28.2740000  65.7660000  47.9120000  28.4590000
  66.7330000  55.1490000  25.7150000  61.7930000  47.5560000  30.9080000
  64.5520000  47.5370000  31.4080000  63.7560000  50.1000000  27.1250000
  62.4310000  48.9180000  28.7770000  65.4210000  46.8270000  27.6870000
  67.0960000  48.3120000  28.6460000  68.9190000  59.0420000  30.3980000
  62.2950000  46.9230000  32.0280000  60.8570000  47.5670000  30.7460000
  63.6720000  46.9030000  32.2970000  64.5120000  46.5620000  27.6080000
  62.5820000  50.4790000  26.4640000  64.5110000  51.3740000  30.3750000
  61.2640000  49.2800000  28.1100000  65.4880000  47.5400000  31.5740000
  66.4280000  46.1150000  27.0160000  68.1010000  47.5420000  28.0680000
  69.5160000  58.7490000  31.1190000  69.3250000  59.7990000  29.9260000
  68.0590000  59.3180000  30.7770000  61.6960000  46.4930000  32.6270000
  64.1600000  46.2530000  33.4450000  62.6780000  51.3260000  25.3250000
  61.3420000  50.0650000  26.9700000  60.4190000  48.9910000  28.4350000
  66.0550000  45.1000000  26.1150000  67.7680000  46.4620000  27.2490000
  69.0130000  47.7510000  28.2310000  65.3860000  46.6380000  34.0690000
  63.4110000  45.2170000  34.0760000  63.6920000  52.3360000  25.3610000
  61.8180000  51.2170000  24.2130000  64.6130000  51.8310000  23.6230000
  64.7800000  45.1720000  25.4690000  66.9840000  44.1440000  25.6030000
  62.1350000  53.0890000  23.4860000  65.5960000  47.9200000  34.5400000
  62.9050000  44.1530000  33.3460000  66.3760000  45.6750000  34.2800000
  63.1920000  45.2510000  35.4520000  61.6540000  52.2840000  23.3340000
  61.1140000  50.0370000  23.9390000  64.4240000  52.7140000  32.8040000
  63.9480000  54.4410000  31.2340000  64.3030000  46.3500000  24.9130000
  67.7580000  43.3560000  26.4580000  64.6500000  52.4270000  24.3620000
  63.9940000  44.0250000  25.3900000  63.0610000  46.3970000  24.2940000
  63.5310000  45.9730000  35.9670000  62.7790000  44.0520000  24.7480000
  61.2380000  49.2770000  24.4960000  66.5750000  44.4810000  23.6460000
  62.1770000  43.1400000  33.9650000  63.0570000  44.1150000  32.4090000
  62.4860000  44.2400000  36.0700000  60.2440000  49.9620000  22.8720000
  60.5440000  50.3260000  26.5250000  60.8010000  52.1990000  22.2380000
  63.0890000  53.1840000  27.1130000  62.6730000  54.6060000  31.8220000
  64.9350000  48.5860000  34.3930000  63.1710000  52.8610000  33.3700000
  64.2000000  54.9840000  30.4960000  67.5310000  45.9950000  34.9590000
  66.2520000  44.7930000  33.9510000  68.6130000  42.3990000  25.9410000
  68.4590000  45.9540000  26.8430000  65.6630000  53.3770000  24.4260000
  64.8340000  47.1360000  24.9570000  67.9280000  42.9670000  23.7070000
  64.3010000  43.2170000  25.7840000  62.3020000  45.2370000  24.2000000
  62.7330000  47.2150000  23.9370000  62.2630000  43.2570000  24.6800000
  61.9790000  43.1840000  35.3340000  61.8200000  42.4250000  33.4520000
  62.3470000  44.2690000  37.0090000  59.7560000  49.1620000  22.7180000
  60.0740000  51.0440000  22.0200000  60.7180000  52.9330000  21.6410000
  62.3040000  53.8100000  32.8720000  67.9350000  57.3080000  31.9400000
  62.9090000  52.3110000  34.0980000  67.7300000  47.2810000  35.4420000
  69.1480000  41.8770000  26.5270000  68.1950000  45.3300000  35.0990000
  68.6940000  42.1950000  24.5630000  66.3010000  53.4440000  23.7250000
  67.9760000  42.8330000  22.7670000  61.0760000  45.1550000  23.5850000
  61.2970000  42.2350000  36.0570000  59.1670000  50.8500000  20.9990000
  61.0840000  53.8780000  33.5220000  68.9010000  47.4670000  36.1300000
  69.5340000  41.1940000  24.1560000  58.9270000  51.9380000  20.1460000
  60.8600000  41.0950000  35.3450000  60.5910000  46.3230000  22.9280000
  60.1250000  54.7560000  32.9930000  67.7300000  55.2550000  24.6950000
  69.6230000  40.9380000  22.7560000  59.7560000  52.1780000  19.6810000
  59.7660000  46.1060000  22.4440000  61.2660000  46.6450000  22.2960000
  61.6230000  40.6850000  34.8860000  60.1840000  41.3600000  34.6860000
  60.4700000  40.4490000  35.9710000  58.6140000  52.7020000  20.6730000
  60.4070000  47.0190000  23.5920000  58.2440000  51.6920000  19.4880000
  60.4620000  55.6750000  33.0410000  59.2960000  54.6850000  33.5120000
  59.9480000  54.5210000  32.0590000  67.3130000  55.5560000  23.8610000
  68.4110000  55.9040000  24.9710000  68.1480000  54.3800000  24.5550000
  69.9190000  41.7490000  22.2940000  68.7440000  40.6710000  22.4170000
  70.2680000  40.2180000  22.5960000  71.2680000  72.4600000  29.4830000
  70.6640000  71.3300000  29.9680000  71.7550000  63.2680000  36.5990000
  70.3060000  71.1330000  31.2930000  69.3190000  62.7510000  35.2290000
  71.7950000  63.8870000  35.8390000  71.0570000  63.5600000  37.2210000
  72.6200000  63.2600000  37.0600000  69.6770000  69.9520000  31.6720000
  67.3620000  69.2430000  27.2590000  69.6430000  58.4380000  24.2350000
  69.4520000  63.6360000  35.5490000  67.3850000  67.9950000  31.7230000
  69.4430000  69.8170000  32.5830000  71.0210000  66.7720000  30.5940000
  68.6820000  67.7970000  31.1510000  68.9920000  66.5400000  30.5670000
  69.3880000  68.9680000  30.7350000  67.9760000  65.6490000  30.2180000
  70.3260000  66.1780000  30.3350000  66.3060000  67.7180000  26.4340000
  69.7520000  69.1730000  29.4090000  68.3140000  64.4380000  29.6420000
  67.1590000  64.8580000  26.7870000  70.6540000  64.9720000  29.7350000
  67.5750000  66.5610000  33.1590000  67.3230000  68.6500000  26.5180000
  69.5600000  68.5070000  28.7600000  70.3920000  70.3380000  29.0260000
  70.2510000  57.9740000  27.3980000  69.6410000  64.0890000  29.3740000
  67.3590000  63.3540000  29.1650000  71.5630000  64.7510000  29.5710000
  68.2910000  68.7210000  25.5190000  64.6290000  69.7620000  31.4900000
  70.6470000  70.4630000  28.1200000  65.2160000  62.6750000  30.0200000
  66.5900000  62.6550000  30.2880000  66.2190000  63.8400000  28.2740000
  68.3200000  62.4080000  28.4590000  69.2870000  69.6450000  25.7150000
  64.3470000  62.0520000  30.9080000  67.1070000  62.0330000  31.4080000
  66.3100000  64.5970000  27.1250000  64.9850000  63.4140000  28.7770000
  67.9750000  61.3230000  27.6870000  69.6500000  62.8080000  28.6460000
  71.4740000  73.5380000  30.3980000  64.8490000  61.4190000  32.0280000
  63.4110000  62.0630000  30.7460000  66.2270000  61.3990000  32.2970000
  67.0660000  61.0590000  27.6080000  65.1360000  64.9750000  26.4640000
  67.0650000  65.8710000  30.3750000  63.8180000  63.7760000  28.1100000
  68.0420000  62.0360000  31.5740000  68.9820000  60.6110000  27.0160000
  70.6550000  62.0380000  28.0680000  72.0700000  73.2450000  31.1190000
  71.8790000  74.2950000  29.9260000  70.6130000  73.8140000  30.7770000
  64.2510000  60.9890000  32.6270000  66.7140000  60.7490000  33.4450000
  65.2320000  65.8220000  25.3250000  63.8960000  64.5610000  26.9700000
  62.9730000  63.4870000  28.4350000  68.6090000  59.5970000  26.1150000
  70.3220000  60.9590000  27.2490000  71.5680000  62.2470000  28.2310000
  67.9400000  61.1340000  34.0690000  65.9660000  59.7140000  34.0760000
  66.2470000  66.8320000  25.3610000  64.3720000  65.7140000  24.2130000
  67.1680000  66.3270000  23.6230000  67.3340000  59.6680000  25.4690000
  69.5380000  58.6400000  25.6030000  64.6900000  67.5850000  23.4860000
  68.1510000  62.4160000  34.5400000  65.4590000  58.6500000  33.3460000
  68.9300000  60.1720000  34.2800000  65.7470000  59.7470000  35.4520000
  64.2080000  66.7810000  23.3340000  63.6680000  64.5330000  23.9390000
  66.9780000  67.2100000  32.8040000  66.5020000  68.9380000  31.2340000
  66.8570000  60.8460000  24.9130000  70.3120000  57.8530000  26.4580000
  67.2040000  66.9230000  24.3620000  66.5480000  58.5210000  25.3900000
  65.6150000  60.8930000  24.2940000  66.0860000  60.4700000  35.9670000
  65.3330000  58.5480000  24.7480000  63.7930000  63.7740000  24.4960000
  69.1290000  58.9770000  23.6460000  64.7310000  57.6360000  33.9650000
  65.6110000  58.6110000  32.4090000  65.0410000  58.7360000  36.0700000
  62.7980000  64.4580000  22.8720000  63.0980000  64.8220000  26.5250000
  63.3550000  66.6950000  22.2380000  65.6430000  67.6810000  27.1130000
  65.2270000  69.1020000  31.8220000  67.4890000  63.0820000  34.3930000
  65.7260000  67.3580000  33.3700000  66.7540000  69.4800000  30.4960000
  70.0850000  60.4910000  34.9590000  68.8060000  59.2890000  33.9510000
  71.1670000  56.8950000  25.9410000  71.0140000  60.4500000  26.8430000
  68.2170000  67.8730000  24.4260000  67.3880000  61.6330000  24.9570000
  70.4820000  57.4640000  23.7070000  66.8550000  57.7130000  25.7840000
  64.8560000  59.7330000  24.2000000  65.2870000  61.7110000  23.9370000
  64.8170000  57.7540000  24.6800000  64.5330000  57.6800000  35.3340000
  64.3740000  56.9210000  33.4520000  64.9010000  58.7650000  37.0090000
  62.3100000  63.6580000  22.7180000  62.6290000  65.5400000  22.0200000
  63.2730000  67.4290000  21.6410000  64.8580000  68.3060000  32.8720000
  70.4890000  71.8040000  31.9400000  65.4630000  66.8070000  34.0980000
  70.2840000  61.7770000  35.4420000  71.7020000  56.3730000  26.5270000
  70.7500000  59.8260000  35.0990000  71.2480000  56.6910000  24.5630000
  68.8550000  67.9400000  23.7250000  70.5300000  57.3290000  22.7670000
  63.6300000  59.6510000  23.5850000  63.8520000  56.7310000  36.0570000
  61.7210000  65.3460000  20.9990000  63.6380000  68.3740000  33.5220000
  71.4550000  61.9630000  36.1300000  72.0890000  55.6900000  24.1560000
  61.4810000  66.4340000  20.1460000  63.4140000  55.5910000  35.3450000
  63.1450000  60.8190000  22.9280000  62.6790000  69.2520000  32.9930000
  70.2840000  69.7520000  24.6950000  72.1770000  55.4340000  22.7560000
  62.3100000  66.6740000  19.6810000  62.3210000  60.6020000  22.4440000
  63.8200000  61.1410000  22.2960000  64.1770000  55.1820000  34.8860000
  62.7380000  55.8560000  34.6860000  63.0240000  54.9450000  35.9710000
  61.1680000  67.1990000  20.6730000  62.9620000  61.5160000  23.5920000
  60.7980000  66.1880000  19.4880000  63.0160000  70.1710000  33.0410000
  61.8510000  69.1810000  33.5120000  62.5020000  69.0180000  32.0590000
  69.8670000  70.0520000  23.8610000  70.9650000  70.4000000  24.9710000
  70.7030000  68.8760000  24.5550000  72.4730000  56.2460000  22.2940000
  71.2990000  55.1680000  22.4170000  72.8220000  54.7150000  22.5960000
  51.5040000   7.3610000  20.9990000  52.4120000   7.5560000  22.0200000
  51.2640000   8.4490000  20.1460000  60.9500000  -1.0900000  25.9410000
  53.1380000   8.7110000  22.2380000  52.0930000   8.6900000  19.6810000
  50.5810000   8.2030000  19.4880000  50.9510000   9.2140000  20.6730000
  59.4260000   0.4530000  24.2350000  57.1450000  11.2580000  27.2590000
  56.0890000   9.7330000  26.4340000  53.0560000   9.4450000  21.6410000
  54.1550000   7.7290000  24.2130000  60.0340000  -0.0100000  27.3980000
  52.8810000   6.8370000  26.5250000  55.0150000   7.8380000  25.3250000
  54.9190000   6.9900000  26.4640000  59.3210000   0.6550000  25.6030000
  56.0930000   6.6120000  27.1250000  53.6790000   6.5760000  26.9700000
  53.4510000   6.5480000  23.9390000  53.9910000   8.7960000  23.3340000
  56.0020000   5.8560000  28.2740000  56.8490000   3.0740000  27.6080000
  53.6010000   5.7910000  28.1100000  56.5370000  11.4950000  30.4960000
  55.1160000   0.5630000  24.7480000  58.9120000   0.9920000  23.6460000
  52.5810000   6.4740000  22.8720000  53.5760000   5.7890000  24.4960000
  54.7680000   5.4290000  28.7770000  57.1420000   5.3700000  29.1650000
  52.7560000   5.5020000  28.4350000  54.6390000   1.7480000  24.2000000
  54.6000000  -0.2310000  24.6800000  52.0930000   5.6730000  22.7180000
  59.4240000   6.1040000  29.3740000  58.0970000   6.4530000  29.6420000
  56.3730000   4.6700000  30.2880000  58.1030000   4.4230000  28.4590000
  53.4130000   1.6670000  23.5850000  60.4370000   6.9880000  29.7350000
  57.7590000   7.6640000  30.2180000  56.8900000   4.0490000  31.4080000
  54.9990000   4.6900000  30.0200000  57.7580000   3.3380000  27.6870000
  59.4330000   4.8230000  28.6460000  52.9280000   2.8340000  22.9280000
  60.1090000   8.1930000  30.3350000  61.3460000   6.7660000  29.5710000
  58.7750000   8.5550000  30.5670000  56.8480000   7.8860000  30.3750000
  56.0100000   3.4140000  32.2970000  57.8250000   4.0510000  31.5740000
  54.1300000   4.0680000  30.9080000  56.9420000   6.8730000  26.7870000
  58.7650000   2.6260000  27.0160000  60.4380000   4.0530000  28.0680000
  53.6030000   3.1560000  22.2960000  52.7450000   3.5310000  23.5920000
  52.1040000   2.6180000  22.4440000  59.2260000  11.8320000  32.5830000
  58.4650000   9.8120000  31.1510000  56.4970000   2.7640000  33.4450000
  54.6320000   3.4340000  32.0280000  53.1950000   4.0780000  30.7460000
  58.3920000   1.6120000  26.1150000  60.1050000   2.9740000  27.2490000
  61.3510000   4.2630000  28.2310000  57.1680000  10.0100000  31.7230000
  59.1710000  10.9840000  30.7350000  55.7490000   1.7290000  34.0760000
  57.7230000   3.1500000  34.0690000  56.6380000  -0.2720000  25.7840000
  56.0300000   8.8470000  25.3610000  57.1170000   1.6840000  25.4690000
  57.1710000   3.6480000  24.9570000  57.9340000   4.4320000  34.5400000
  56.7610000   9.2250000  32.8040000  56.2850000  10.9530000  31.2340000
  59.5350000  11.1880000  29.4090000  58.7130000   2.1870000  34.2800000
  55.2420000   0.6650000  33.3460000  55.5300000   1.7620000  35.4520000
  56.3310000   0.5370000  25.3900000  59.4600000  11.9680000  31.6720000
  56.9870000   8.9380000  24.3620000  56.6400000   2.8610000  24.9130000
  60.0950000  -0.1320000  26.4580000  59.8680000   2.5060000  34.9590000
  57.3580000   8.5760000  33.1590000  59.1020000   4.7660000  35.2290000
  57.2720000   5.0970000  34.3930000  60.8040000   8.7870000  30.5940000
  60.2650000  -0.5210000  23.7070000  59.3430000  10.5220000  28.7600000
  60.0890000  13.1490000  31.2930000  54.5140000  -0.3490000  33.9650000
  58.5890000   1.3040000  33.9510000  54.8240000   0.7510000  36.0700000
  55.3940000   0.6260000  32.4090000  55.5090000   9.3730000  33.3700000
  55.8690000   2.4850000  35.9670000  55.0100000  11.1170000  31.8220000
  54.0340000   3.0040000  32.6270000  60.1750000  12.3540000  29.0260000
  55.4260000   9.6960000  27.1130000  57.1060000  10.6650000  26.5180000
  56.9510000   8.3430000  23.6230000  58.0000000   9.8880000  24.4260000
  54.4730000   9.6010000  23.4860000  55.3980000   2.9090000  24.2940000
  60.7970000   2.4650000  26.8430000  60.0670000   3.7920000  35.4420000
  60.5330000   1.8420000  35.0990000  61.4850000  -1.6110000  26.5270000
  61.0310000  -1.2930000  24.5630000  59.2350000   5.6510000  35.5490000
  60.2720000  13.8190000  31.9400000  54.6840000   0.7810000  37.0090000
  54.3160000  -0.3050000  35.3340000  54.1570000  -1.0640000  33.4520000
  54.6410000  10.3210000  32.8720000  55.2460000   8.8220000  34.0980000
  54.4120000  11.7770000  31.4900000  60.4470000  13.3450000  29.9680000
  60.4300000  12.4790000  28.1200000  58.6380000   9.9550000  23.7250000
  58.0740000  10.7370000  25.5190000  55.0700000   3.7260000  23.9370000
  60.3130000  -0.6550000  22.7670000  61.2380000   3.9780000  36.1300000
  59.0700000  11.6600000  25.7150000  53.6350000  -1.2540000  36.0570000
  53.4210000  10.3900000  33.5220000  61.0510000  14.4750000  29.4830000
  61.8720000  -2.2940000  24.1560000  61.5380000   5.2840000  36.5990000
  60.0670000  11.7670000  24.6950000  53.1970000  -2.3940000  35.3450000
  52.4620000  11.2680000  32.9930000  61.2570000  15.5530000  30.3980000
  61.9600000  -2.5500000  22.7560000  60.8400000   5.5760000  37.2210000
  60.4860000  10.8910000  24.5550000  62.6050000  -3.2700000  22.5960000
  60.7480000  12.4150000  24.9710000  61.5780000   5.9020000  35.8390000
  62.4030000   5.2750000  37.0600000  52.8070000  -3.0400000  35.9710000
  53.9600000  -2.8030000  34.8860000  52.5210000  -2.1280000  34.6860000
  51.6340000  11.1960000  33.5120000  52.2850000  11.0330000  32.0590000
  52.7990000  12.1870000  33.0410000  60.3960000  15.8290000  30.7770000
  61.8530000  15.2610000  31.1190000  61.6620000  16.3100000  29.9260000
  62.2560000  -1.7390000  22.2940000  61.0820000  -2.8170000  22.4170000
  59.6500000  12.0670000  23.8610000  74.9110000  58.0250000  45.6100000
  74.3080000  56.8950000  46.0950000  75.3980000  48.8330000  52.7260000
  73.9490000  56.6980000  47.4200000  72.9630000  48.3160000  51.3560000
  75.4380000  49.4520000  51.9660000  74.7010000  49.1250000  53.3480000
  76.2630000  48.8250000  53.1870000  73.3210000  55.5170000  47.7990000
  71.0050000  54.8080000  43.3860000  73.2860000  44.0030000  40.3620000
  73.0950000  49.2010000  51.6760000  71.0290000  53.5600000  47.8500000
  73.0860000  55.3820000  48.7100000  74.6640000  52.3370000  46.7210000
  72.3260000  53.3620000  47.2780000  72.6360000  52.1050000  46.6940000
  73.0320000  54.5330000  46.8620000  71.6190000  51.2140000  46.3450000
  73.9700000  51.7430000  46.4620000  69.9500000  53.2820000  42.5610000
  73.3960000  54.7380000  45.5360000  71.9580000  50.0030000  45.7690000
  70.8020000  50.4230000  42.9140000  74.2970000  50.5370000  45.8620000
  71.2180000  52.1260000  49.2850000  70.9660000  54.2150000  42.6450000
  73.2030000  54.0720000  44.8870000  74.0360000  55.9030000  45.1530000
  73.8950000  43.5390000  43.5250000  73.2850000  49.6540000  45.5010000
  71.0020000  48.9190000  45.2920000  75.2070000  50.3160000  45.6980000
  71.9340000  54.2860000  41.6460000  68.2730000  55.3270000  47.6170000
  74.2910000  56.0280000  44.2470000  68.8600000  48.2400000  46.1470000
  70.2330000  48.2200000  46.4150000  69.8620000  49.4050000  44.4010000
  71.9640000  47.9730000  44.5860000  72.9310000  55.2100000  41.8420000
  67.9910000  47.6170000  47.0350000  70.7500000  47.5980000  47.5350000
  69.9540000  50.1620000  43.2520000  68.6290000  48.9790000  44.9040000
  71.6190000  46.8880000  43.8140000  73.2940000  48.3730000  44.7730000
  75.1170000  59.1030000  46.5250000  68.4920000  46.9840000  48.1550000
  67.0550000  47.6280000  46.8730000  69.8700000  46.9640000  48.4240000
  70.7100000  46.6230000  43.7350000  68.7790000  50.5400000  42.5910000
  70.7090000  51.4360000  46.5020000  67.4610000  49.3410000  44.2370000
  71.6850000  47.6010000  47.7010000  72.6250000  46.1760000  43.1430000
  74.2990000  47.6030000  44.1950000  75.7130000  58.8100000  47.2460000
  75.5230000  59.8600000  46.0530000  74.2560000  59.3790000  46.9040000
  67.8940000  46.5540000  48.7540000  70.3570000  46.3140000  49.5720000
  68.8750000  51.3870000  41.4520000  67.5400000  50.1260000  43.0970000
  66.6170000  49.0520000  44.5620000  72.2520000  45.1620000  42.2420000
  73.9650000  46.5240000  43.3760000  75.2110000  47.8120000  44.3580000
  71.5840000  46.6990000  50.1960000  69.6090000  45.2790000  50.2030000
  69.8900000  52.3970000  41.4880000  68.0150000  51.2790000  40.3400000
  70.8110000  51.8920000  39.7500000  70.9780000  45.2330000  41.5950000
  73.1810000  44.2050000  41.7300000  68.3330000  53.1500000  39.6130000
  71.7940000  47.9810000  50.6670000  69.1030000  44.2150000  49.4730000
  72.5740000  45.7370000  50.4070000  69.3900000  45.3120000  51.5790000
  67.8510000  52.3460000  39.4610000  67.3120000  50.0980000  40.0660000
  70.6220000  52.7750000  48.9310000  70.1460000  54.5030000  47.3610000
  70.5010000  46.4110000  41.0400000  73.9550000  43.4170000  42.5850000
  70.8480000  52.4880000  40.4890000  70.1920000  44.0860000  41.5170000
  69.2580000  46.4580000  40.4200000  69.7290000  46.0350000  52.0940000
  68.9770000  44.1130000  40.8750000  67.4360000  49.3390000  40.6230000
  72.7720000  44.5420000  39.7730000  68.3750000  43.2010000  50.0920000
  69.2550000  44.1760000  48.5360000  68.6840000  44.3010000  52.1970000
  66.4420000  50.0230000  38.9990000  66.7420000  50.3870000  42.6520000
  66.9990000  52.2600000  38.3650000  69.2860000  53.2450000  43.2390000
  68.8700000  54.6670000  47.9490000  71.1330000  48.6470000  50.5200000
  69.3690000  52.9220000  49.4970000  70.3980000  55.0450000  46.6230000
  73.7280000  46.0560000  51.0860000  72.4500000  44.8540000  50.0780000
  74.8100000  42.4600000  42.0680000  74.6570000  46.0150000  42.9700000
  71.8610000  53.4380000  40.5530000  71.0320000  47.1980000  41.0840000
  74.1260000  43.0290000  39.8340000  70.4990000  43.2780000  41.9110000
  68.5000000  45.2980000  40.3270000  68.9310000  47.2760000  40.0640000
  68.4600000  43.3190000  40.8070000  68.1770000  43.2450000  51.4610000
  68.0170000  42.4860000  49.5790000  68.5450000  44.3300000  53.1360000
  65.9540000  49.2230000  38.8450000  66.2720000  51.1050000  38.1470000
  66.9160000  52.9940000  37.7680000  68.5020000  53.8710000  48.9990000
  74.1330000  57.3690000  48.0670000  69.1070000  52.3720000  50.2250000
  73.9280000  47.3420000  51.5690000  75.3450000  41.9380000  42.6540000
  74.3930000  45.3910000  51.2260000  74.8910000  42.2560000  40.6900000
  72.4980000  53.5050000  39.8520000  74.1740000  42.8940000  38.8940000
  67.2730000  45.2160000  39.7120000  67.4950000  42.2960000  52.1840000
  65.3650000  50.9110000  37.1260000  67.2820000  53.9390000  49.6490000
  75.0980000  47.5280000  52.2570000  75.7320000  41.2550000  40.2830000
  65.1250000  51.9990000  36.2730000  67.0580000  41.1560000  51.4720000
  66.7890000  46.3840000  39.0550000  66.3230000  54.8170000  49.1200000
  73.9280000  55.3170000  40.8220000  75.8210000  40.9990000  38.8830000
  65.9540000  52.2390000  35.8080000  65.9640000  46.1670000  38.5710000
  67.4640000  46.7060000  38.4230000  67.8200000  40.7460000  51.0130000
  66.3820000  41.4210000  50.8130000  66.6680000  40.5100000  52.0980000
  64.8120000  52.7640000  36.8000000  66.6050000  47.0810000  39.7190000
  64.4410000  51.7530000  35.6150000  66.6600000  55.7360000  49.1680000
  65.4940000  54.7460000  49.6390000  66.1450000  54.5830000  48.1860000
  73.5110000  55.6170000  39.9880000  74.6090000  55.9650000  41.0980000
  74.3460000  54.4410000  40.6820000  76.1160000  41.8110000  38.4210000
  74.9420000  40.7330000  38.5440000  76.4650000  40.2800000  38.7230000
  56.5850000  22.2880000   9.6710000  57.3750000  12.9220000  15.8320000
  56.5660000  10.7140000  15.4030000  64.6840000  17.5560000  23.5630000
  58.7200000  21.5000000  10.5710000  55.4200000  20.9920000   8.7410000
  57.0740000  13.8520000  20.8300000  56.1610000   9.9570000  15.8750000
  61.0610000  17.0420000  12.9960000  57.5500000  12.4470000  13.8610000
  58.3620000  14.2990000  14.1290000  58.5880000  20.6150000  10.2520000
  60.0990000  23.1170000  11.7310000  60.6510000  22.6190000  20.8430000
  57.0190000  17.4800000  15.2070000  59.3570000  16.4540000  14.6490000
  61.8130000  22.8530000  13.5040000  60.6540000  16.2570000  14.0770000
  61.7300000  19.6550000  18.6750000  57.7180000  23.2930000  18.5510000
  61.4910000  25.7300000  20.4100000  60.8350000  17.3280000  21.4380000
  59.7250000  19.8130000  16.1580000  60.8810000  19.3940000  19.0130000
  57.3840000  22.2130000  17.7320000  59.2330000  24.9630000  11.8490000
  65.2410000  19.7930000  22.9290000  61.1850000  26.5390000  20.0170000
  59.8220000  16.3790000  21.3740000  63.3500000  16.6660000  22.3150000
  58.3980000  20.1630000  16.4260000  60.6810000  20.8970000  16.6350000
  56.4770000  19.5000000  16.2290000  65.4110000  18.7110000  23.7810000
  64.7670000  16.8220000  24.1600000  59.1850000  16.3120000  22.0750000
  62.8230000  21.5770000  15.7810000  61.4500000  21.5960000  15.5130000
  61.8210000  20.4110000  17.5270000  59.7190000  21.8430000  17.3420000
  56.7720000  11.7920000  16.3180000  63.6920000  22.1990000  14.8920000
  60.9330000  22.2180000  14.3920000  60.0640000  22.9290000  18.1140000
  58.3890000  21.4440000  17.1550000  60.0640000  18.6030000  15.5820000
  63.0540000  20.8370000  17.0240000  57.7550000  14.5000000  21.1050000
  63.1910000  22.8320000  13.7730000  56.4720000  22.0040000  17.5690000
  62.9040000  19.2770000  19.3370000  60.9730000  23.1930000  18.1920000
  59.0580000  23.6410000  18.7840000  59.9980000  22.2160000  14.2270000
  64.2220000  20.4760000  17.6900000  60.9740000  18.3810000  15.4260000
  59.0470000  17.7120000  15.2330000  57.3860000  19.2790000  16.0660000
  58.1720000  14.2000000  21.9390000  55.5670000  28.0060000  23.5070000
  57.3370000  15.3750000  21.2460000  61.9540000  23.7820000   9.8340000
  61.3260000  23.5030000  12.3550000  59.4310000  24.6550000  19.6860000
  64.1430000  19.6900000  18.8310000  64.6280000  22.1890000  15.0550000
  62.8080000  18.4290000  20.4750000  57.7130000  18.0740000  15.4660000
  65.0670000  20.7640000  17.3660000  60.7050000  24.5830000  20.3320000
  62.0740000  24.5380000  11.7240000  63.6680000  18.5380000  21.5880000
  58.5020000  25.6120000  20.1970000  60.8720000  17.9240000  22.1770000
  58.6510000  15.2830000  15.0650000  61.7930000  17.4190000  20.4400000
  64.9410000  19.4300000  19.2760000  59.1090000  24.0800000  11.5210000
  62.5800000  25.6020000  12.4540000  59.8890000  21.8350000  11.2600000
  62.2930000  24.5050000  10.3490000  64.3710000  19.7190000  21.8610000
  58.3970000  25.8140000  21.5650000  61.1820000  23.4050000  20.8870000
  57.7280000  26.3990000  19.3430000  61.5370000  15.3140000  14.5670000
  58.2870000  15.0790000  16.3920000  61.7340000  16.5340000  19.3670000
  63.8320000  17.4710000  22.4670000  63.3080000  26.6160000  11.8360000
  62.4280000  25.6400000  13.3910000  62.8130000  15.1490000  13.9790000
  62.3970000  16.5710000  18.6880000  63.7890000  23.2620000  13.1730000
  62.9990000  25.5150000   9.7310000  60.4650000  17.6910000  12.6420000
  57.9550000  23.7610000  10.8410000  62.4250000  23.3580000  21.5070000
  64.2470000  20.4780000  21.3040000  62.7070000  25.7030000  21.0520000
  58.9110000  25.2740000  22.1550000  56.8730000  27.3570000  19.8600000
  57.7880000  26.2770000  18.4020000  57.5570000  26.7880000  22.0940000
  57.0260000  23.8020000  18.9580000  62.3140000  16.8940000  12.4310000
  60.5500000  21.1700000  11.4080000  57.7340000  13.1180000  14.5080000
  58.5970000  14.4340000  13.2180000  57.6470000  13.9130000  16.7740000
  58.4800000  15.7450000  17.0410000  60.7170000  15.6020000  19.2830000
  61.2850000  14.7710000  15.3050000  63.5070000  26.5710000  10.4670000
  63.6660000  27.3310000  12.3490000  65.7290000  20.5940000  23.0830000
  63.1820000  15.9460000  12.9280000  63.1380000  25.4860000   8.7910000
  57.2900000  24.4250000  10.7020000  62.7520000  22.5410000  21.8640000
  63.1830000  24.5180000  21.6010000  63.2230000  26.4980000  21.1210000
  56.7920000  27.5600000  21.2370000  56.3380000  27.8780000  19.2740000
  57.5100000  26.9220000  23.0330000  57.7550000  22.4750000  10.3580000
  62.5760000  17.4440000  11.7030000  63.4100000  14.4900000  14.3110000
  59.7490000  15.5300000  20.2820000  57.3920000  13.7880000  17.6810000
  60.6780000  15.0080000  18.5420000  66.3180000  18.9050000  24.8010000
  64.1880000  27.5210000   9.7440000  64.4100000  24.6000000  22.2160000
  55.9510000  28.5610000  21.6450000  64.4020000  15.8770000  12.2790000
  58.7520000  14.6070000  20.0850000  64.8940000  23.4330000  22.8730000
  64.6250000  28.6610000  10.4550000  66.5580000  17.8180000  25.6540000
  55.8620000  28.8170000  23.0440000  56.2850000  20.9830000   9.2020000
  65.3610000  14.9990000  12.8070000  67.2420000  18.0630000  26.3130000
  64.2190000  23.1110000  23.5050000  65.0780000  22.7360000  22.2080000
  65.0150000  29.3070000   9.8300000  65.3010000  28.3950000  11.1150000
  66.1890000  15.0700000  12.2890000  65.7190000  23.6490000  23.3570000
  55.9700000  11.0060000  14.6820000  56.7410000  29.0840000  23.3840000
  63.8630000  29.0700000  10.9150000  57.4270000  10.4380000  15.0240000
  55.2180000  29.5370000  23.2040000  56.2450000  20.3640000   9.9610000
  65.5380000  15.2340000  13.7420000  56.9820000  20.6910000   8.5800000
  66.8720000  17.0530000  25.1280000  65.7300000  17.5770000  26.1190000
  65.0230000  14.0800000  12.7600000  62.7830000  22.3500000  25.7980000
  63.5730000  12.9830000  31.9590000  62.7640000  10.7750000  31.5300000
  70.8820000  17.6170000  39.6900000  64.9180000  21.5620000  26.6980000
  61.6180000  21.0530000  24.8680000  63.2720000  13.9130000  36.9570000
  62.3580000  10.0180000  32.0020000  67.2590000  17.1030000  29.1230000
  63.7480000  12.5090000  29.9880000  64.5600000  14.3600000  30.2550000
  64.7860000  20.6770000  26.3790000  66.2970000  23.1780000  27.8580000
  66.8490000  22.6800000  36.9700000  63.2160000  17.5410000  31.3340000
  65.5550000  16.5160000  30.7760000  68.0110000  22.9140000  29.6310000
  66.8520000  16.3180000  30.2040000  67.9270000  19.7160000  34.8020000
  63.9150000  23.3540000  34.6780000  67.6890000  25.7910000  36.5370000
  67.0330000  17.3900000  37.5650000  65.9230000  19.8740000  32.2850000
  67.0790000  19.4550000  35.1400000  63.5820000  22.2750000  33.8590000
  65.4310000  25.0240000  27.9760000  71.4390000  19.8540000  39.0560000
  67.3820000  26.6000000  36.1440000  66.0200000  16.4400000  37.5010000
  69.5480000  16.7270000  38.4420000  64.5960000  20.2240000  32.5530000
  66.8790000  20.9580000  32.7620000  62.6740000  19.5620000  32.3560000
  71.6090000  18.7720000  39.9080000  70.9650000  16.8830000  40.2870000
  65.3820000  16.3730000  38.2020000  69.0210000  21.6380000  31.9080000
  67.6470000  21.6580000  31.6400000  68.0190000  20.4720000  33.6540000
  65.9170000  21.9050000  33.4690000  62.9690000  11.8530000  32.4450000
  69.8900000  22.2600000  31.0190000  67.1310000  22.2790000  30.5190000
  66.2620000  22.9900000  34.2410000  64.5870000  21.5050000  33.2820000
  66.2620000  18.6640000  31.7090000  69.2520000  20.8980000  33.1510000
  63.9530000  14.5610000  37.2320000  69.3880000  22.8940000  29.9000000
  62.6700000  22.0650000  33.6960000  69.1020000  19.3380000  35.4640000
  67.1710000  23.2540000  34.3190000  65.2560000  23.7020000  34.9110000
  66.1950000  22.2770000  30.3540000  70.4190000  20.5370000  33.8170000
  67.1720000  18.4420000  31.5530000  65.2450000  17.7730000  31.3600000
  63.5830000  19.3400000  32.1930000  64.3700000  14.2610000  38.0660000
  61.7650000  28.0670000  39.6340000  63.5350000  15.4370000  37.3730000
  68.1520000  23.8430000  25.9610000  67.5230000  23.5640000  28.4820000
  65.6280000  24.7160000  35.8130000  70.3410000  19.7520000  34.9580000
  70.8260000  22.2500000  31.1820000  69.0050000  18.4900000  36.6020000
  63.9110000  18.1350000  31.5930000  71.2640000  20.8260000  33.4930000
  66.9030000  24.6440000  36.4590000  68.2720000  24.5990000  27.8510000
  69.8650000  18.5990000  37.7150000  64.7000000  25.6730000  36.3240000
  67.0700000  17.9850000  38.3040000  64.8490000  15.3440000  31.1920000
  67.9910000  17.4800000  36.5670000  71.1390000  19.4910000  35.4030000
  65.3070000  24.1410000  27.6480000  68.7780000  25.6630000  28.5810000
  66.0870000  21.8960000  27.3870000  68.4910000  24.5660000  26.4760000
  70.5690000  19.7800000  37.9880000  64.5950000  25.8750000  37.6920000
  67.3800000  23.4660000  37.0140000  63.9260000  26.4600000  35.4700000
  67.7350000  15.3750000  30.6940000  64.4850000  15.1400000  32.5190000
  67.9310000  16.5950000  35.4940000  70.0290000  17.5320000  38.5940000
  69.5060000  26.6770000  27.9630000  68.6260000  25.7010000  29.5180000
  69.0100000  15.2100000  30.1060000  68.5950000  16.6320000  34.8150000
  69.9870000  23.3240000  29.3000000  69.1970000  25.5770000  25.8580000
  66.6620000  17.7520000  28.7690000  64.1520000  23.8220000  26.9680000
  68.6220000  23.4190000  37.6340000  70.4450000  20.5390000  37.4310000
  68.9040000  25.7650000  37.1790000  65.1090000  25.3350000  38.2820000
  63.0700000  27.4180000  35.9870000  63.9860000  26.3380000  34.5290000
  63.7550000  26.8490000  38.2210000  63.2240000  23.8630000  35.0850000
  68.5120000  16.9550000  28.5580000  66.7480000  21.2310000  27.5350000
  63.9310000  13.1790000  30.6350000  64.7950000  14.4960000  29.3450000
  63.8450000  13.9740000  32.9010000  64.6770000  15.8060000  33.1680000
  66.9150000  15.6630000  35.4100000  67.4830000  14.8330000  31.4320000
  69.7040000  26.6330000  26.5940000  69.8630000  27.3920000  28.4760000
  71.9270000  20.6550000  39.2100000  69.3790000  16.0070000  29.0550000
  69.3360000  25.5470000  24.9180000  63.4880000  24.4860000  26.8290000
  68.9500000  22.6020000  37.9900000  69.3810000  24.5800000  37.7280000
  69.4200000  26.5590000  37.2480000  62.9890000  27.6210000  37.3640000
  62.5350000  27.9390000  35.4000000  63.7070000  26.9830000  39.1600000
  63.9530000  22.5360000  26.4850000  68.7740000  17.5060000  27.8300000
  69.6080000  14.5510000  30.4380000  65.9460000  15.5910000  36.4090000
  63.5900000  13.8490000  33.8080000  66.8760000  15.0700000  34.6690000
  72.5160000  18.9660000  40.9280000  70.3860000  27.5820000  25.8710000
  70.6080000  24.6610000  38.3430000  62.1490000  28.6220000  37.7720000
  70.5990000  15.9380000  28.4060000  64.9500000  14.6680000  36.2120000
  71.0920000  23.4940000  39.0000000  70.8230000  28.7220000  26.5820000
  72.7560000  17.8790000  41.7810000  62.0600000  28.8780000  39.1710000
  62.4830000  21.0440000  25.3290000  71.5580000  15.0600000  28.9340000
  73.4400000  18.1250000  42.4400000  70.4170000  23.1720000  39.6320000
  71.2760000  22.7970000  38.3350000  71.2130000  29.3680000  25.9570000
  71.4990000  28.4560000  27.2420000  72.3870000  15.1320000  28.4160000
  71.9170000  23.7100000  39.4840000  62.1670000  11.0670000  30.8090000
  62.9390000  29.1450000  39.5110000  70.0610000  29.1310000  27.0420000
  63.6250000  10.4990000  31.1510000  61.4160000  29.5980000  39.3310000
  62.4420000  20.4250000  26.0880000  71.7360000  15.2950000  29.8690000
  63.1800000  20.7520000  24.7070000  73.0690000  17.1140000  41.2550000
  71.9270000  17.6380000  42.2460000  71.2210000  14.1410000  28.8870000
  67.7830000  62.3330000   8.6740000  66.8760000  62.1390000   7.6540000
  68.0230000  61.2450000   9.5270000  64.1720000  69.1310000   4.9250000
  66.7060000  63.2210000   6.8020000  65.6840000  66.5380000   7.3780000
  67.1840000  67.0770000   7.2300000  68.7070000  61.4910000  10.1860000
  62.6470000  66.8330000   4.7600000  64.6880000  69.9250000   4.9940000
  65.8360000  63.1460000   5.7340000  67.1940000  64.0210000   6.9560000
  65.1330000  61.9650000   5.4610000  64.8150000  60.0930000   6.1880000
  65.7120000  63.9050000   5.1770000  60.8960000  68.0820000   3.5590000
  60.5230000  67.0680000   2.6570000  59.9670000  69.0390000   4.0700000
  61.5290000  66.3560000   1.9870000  65.6080000  63.1180000   2.7040000
  59.8620000  69.2410000   5.4380000  59.1930000  69.8260000   3.2160000
  61.1840000  65.2710000   1.2150000  62.4380000  66.6200000   2.0650000
  58.8510000  62.7070000  -0.0610000  66.4060000  62.8570000   3.1490000
  58.3380000  70.7840000   3.7330000  60.3760000  68.7020000   6.0280000
  59.0220000  70.2150000   5.9670000  59.2530000  69.7050000   2.2750000
  64.5190000  64.2650000   0.8970000  62.1460000  64.3250000   0.5080000
  66.5320000  64.1920000   1.2390000  58.2570000  70.9880000   5.1100000
  57.8030000  71.3060000   3.1470000  58.9750000  70.3500000   6.9060000
  64.2880000  65.0040000  -0.3460000  63.2860000  63.8390000   1.4000000
  61.1900000  63.2410000   0.0310000  62.9150000  65.0240000  -0.6140000
  57.4160000  71.9890000   5.5180000  65.6870000  63.9030000   1.5630000
  61.5290000  62.0300000  -0.5450000  63.1950000  63.0820000   2.5480000
  59.8630000  63.5900000   0.2990000  62.3980000  65.6460000  -1.7350000
  59.8540000  64.8710000   1.0280000  57.3270000  72.2450000   6.9170000
  59.1780000  61.5010000  -0.6610000  66.0930000  65.6160000  -1.0720000
  60.5130000  61.1390000  -0.8940000  62.4390000  61.8080000  -0.7010000
  64.3690000  62.7040000   3.2100000  62.3460000  62.8210000   2.8860000
  58.8490000  65.6410000   1.6050000  61.4630000  65.6430000  -1.9000000
  63.2780000  66.2800000  -2.6230000  65.1570000  65.6270000  -1.2350000
  58.2060000  72.5110000   7.2570000  56.6830000  72.9640000   7.0770000
  57.0320000  71.4330000   7.3800000  62.7500000  58.1990000  -0.8220000
  64.2730000  61.8570000   4.3480000  60.8230000  59.8820000  -1.4780000
  59.1830000  66.7200000   2.4240000  57.9420000  62.9280000   0.1020000
  62.7910000  66.9300000  -3.7720000  64.6560000  66.2600000  -2.3540000
  57.9370000  65.4320000   1.4420000  60.1160000  58.7110000  -1.0620000
  61.5640000  66.5440000  -4.3960000  62.1190000  59.6840000  -2.0500000
  63.2580000  60.8470000   4.3130000  58.4910000  67.2290000   2.8310000
  62.1700000  68.0110000   4.2050000  63.5390000  67.9650000  -4.4030000
  63.4190000  67.2090000  -6.2930000  63.1990000  59.9610000   3.2400000
  59.7520000  58.5060000   0.2650000  63.0020000  58.7410000  -1.5600000
  62.5260000  60.4690000  -3.1310000  59.8270000  57.7270000  -1.9980000
  62.9560000  69.1580000   4.2830000  62.3000000  60.7560000   5.3110000
  65.2970000  60.8980000   6.3400000  61.3540000  65.2630000  -4.8660000
  64.0450000  69.0290000  -3.6730000  60.5740000  67.5070000  -4.6060000
  63.7580000  67.9320000  -5.7780000  59.1990000  56.5460000  -1.6190000
  59.9450000  59.1720000   0.9140000  59.1120000  57.3410000   0.6470000
  61.9300000  61.1180000  -3.4850000  60.0620000  57.8620000  -2.9090000
  63.7790000  60.3210000  -3.6960000  62.0150000  64.5970000  -4.7190000
  64.2780000  58.5770000  -2.1480000  60.1850000  64.9280000  -5.5560000
  58.4840000  60.9070000  -0.9200000  61.2870000  59.8060000   5.2470000
  62.1160000  66.0460000   4.7160000  62.1820000  59.0290000   3.1560000
  63.8620000  59.9980000   2.5610000  66.1490000  60.9840000   7.4360000
  62.3370000  61.3520000   6.0510000  59.4200000  67.1880000  -5.2860000
  60.6980000  68.3900000  -4.2780000  63.8900000  66.7860000   5.3800000
  62.6500000  69.9660000   3.8900000  64.7730000  70.0430000  -4.2910000
  63.8930000  69.0680000  -2.7360000  64.4640000  68.9430000  -6.3960000
  65.2540000  66.6900000  -2.9540000  58.8400000  56.3490000  -0.2950000
  59.0150000  55.8750000  -2.2660000  58.7550000  67.8520000  -5.4250000
  64.6470000  59.3730000  -3.1990000  64.8750000  57.9170000  -1.8160000
  62.1430000  58.4360000   2.4150000  60.0530000  64.0430000  -5.8750000
  64.9720000  69.9990000  -5.6600000  60.6500000  59.7390000   5.9480000
  61.2140000  58.9580000   4.1550000  58.8570000  57.2160000   1.5540000
  66.2320000  60.2500000   8.0330000  64.6480000  67.9460000   5.4740000
  64.0410000  60.8720000  -4.4240000  64.2170000  65.9680000   5.7370000
  59.2200000  65.9020000  -5.7690000  65.1310000  70.7580000  -3.7780000
  64.6030000  68.9140000  -7.3360000  58.2370000  55.2190000   0.1910000
  65.8670000  59.3050000  -3.8480000  58.0500000  65.7160000  -6.4560000
  60.2170000  58.0340000   3.9580000  65.8750000  68.0280000   6.0890000
  65.6530000  70.9480000  -6.3830000  58.0310000  54.1410000  -0.7240000
  66.8260000  58.4260000  -3.3200000  66.0900000  72.0880000  -5.6720000
  59.2200000  57.9270000   4.9780000  66.3590000  66.8600000   6.7460000
  57.7500000  64.4100000  -6.9250000  57.6260000  53.3840000  -0.2520000
  58.8920000  53.8650000  -1.1030000  57.4350000  54.4340000  -1.4450000
  66.4880000  57.5080000  -3.3670000  67.0030000  58.6610000  -2.3850000
  67.6540000  58.4980000  -3.8380000  56.8850000  64.4190000  -7.3860000
  66.4800000  72.7340000  -6.2970000  65.3280000  72.4970000  -5.2120000
  58.5390000  57.2790000   4.7030000  58.8020000  58.8030000   5.1190000
  59.6370000  57.6270000   5.8120000  68.3370000  60.4800000   9.0010000
  66.5430000  66.1630000   6.0810000  67.1950000  61.0050000   9.9920000
  57.7100000  63.7920000  -6.1660000  66.7660000  71.8230000  -5.0120000
  58.4470000  64.1180000  -7.5470000  54.2170000  -2.7040000  16.3180000
  54.8210000  -1.5750000  15.8320000  55.2010000   0.0040000  21.1050000
  62.1300000   3.0600000  23.5630000  55.1790000  -1.3780000  14.5080000
  55.6180000  -0.2970000  21.9390000  54.5200000  -0.6440000  20.8300000
  54.7830000   0.8790000  21.2460000  58.9370000  11.2340000  20.4100000
  62.2130000   2.3260000  24.1600000  55.7330000   0.5820000  16.3920000
  54.8380000  -0.7080000  17.6810000  56.0970000   0.7870000  15.0650000
  58.0970000   8.1230000  20.8430000  58.6300000  12.0420000  20.0170000
  56.8760000  10.1590000  19.6860000  56.4930000   3.2160000  15.2330000
  55.9480000  11.1160000  20.1970000  57.5100000   8.4320000  18.1140000
  55.1590000   3.5770000  15.4660000  55.8430000  11.3180000  21.5650000
  55.1740000  11.9030000  19.3430000  57.1710000   5.3170000  16.1580000
  58.4190000   8.6970000  18.1920000  54.8320000   4.7830000  16.0660000
  55.9250000   1.2490000  17.0410000  54.3180000  12.8600000  19.8600000
  54.4640000   2.9830000  15.2070000  55.0030000  12.2920000  22.0940000
  54.4720000   9.3050000  18.9580000  55.8440000   5.6670000  16.4260000
  58.1270000   6.4010000  16.6350000  53.9220000   5.0040000  16.2290000
  54.2370000  13.0640000  21.2370000  63.1750000   6.0970000  23.0830000
  53.7830000  13.3820000  19.2740000  60.5000000   6.3410000  17.0240000
  59.2670000   5.9150000  17.5270000  58.8960000   7.1000000  15.5130000
  57.1650000   7.3470000  17.3420000  53.3970000  14.0650000  21.6450000
  61.1380000   7.7030000  14.8920000  57.5100000   4.1070000  15.5820000
  58.3790000   7.7220000  14.3920000  60.2690000   7.0810000  15.7810000
  59.1750000   5.1590000  18.6750000  55.8350000   6.9480000  17.1550000
  53.3080000  14.3210000  23.0440000  60.6360000   8.3360000  13.7730000
  62.5120000   6.2680000  17.3660000  59.2590000   8.3570000  13.5040000
  58.4200000   3.8850000  15.4260000  56.5040000   9.1440000  18.7840000
  57.4430000   7.7200000  14.2270000  54.8300000   7.7170000  17.7320000
  58.3270000   4.8980000  19.0130000  60.3500000   4.7800000  19.3370000
  61.6670000   5.9790000  17.6900000  52.6640000  15.0410000  23.2040000
  54.1870000  14.5880000  23.3840000  53.0130000  13.5100000  23.5070000
  56.0430000  -0.0620000  13.2180000  56.8030000   1.9580000  14.6490000
  58.7710000   9.0060000  12.3550000  55.1630000   8.7970000  18.5510000
  53.9180000   7.5080000  17.5690000  60.2530000   3.9330000  20.4750000
  61.5890000   5.1940000  18.8310000  62.0740000   7.6930000  15.0550000
  57.5450000   8.6210000  11.7310000  58.1000000   1.7610000  14.0770000
  59.5200000  10.0420000  11.7240000  58.1510000  10.0870000  20.3320000
  55.2340000  11.7810000  18.4020000  59.2390000   2.9230000  20.4400000
  61.1140000   4.0420000  21.5880000  56.3570000  10.7780000  22.1550000
  55.8080000  -0.1970000  14.1290000  58.6280000   8.9090000  20.8870000
  58.5070000   2.5460000  12.9960000  58.9830000   0.8180000  14.5670000
  60.0260000  11.1060000  12.4540000  59.7390000  10.0090000  10.3490000
  57.3350000   7.3390000  11.2600000  56.5550000   9.5840000  11.5210000
  59.1790000   2.0380000  19.3670000  61.2770000   2.9750000  22.4670000
  58.2810000   2.8320000  21.4380000  61.8170000   5.2220000  21.8610000
  62.6870000   5.2970000  22.9290000  57.9100000   3.1940000  12.6420000
  59.8700000   8.8620000  21.5070000  60.7960000   2.1700000  22.3150000
  57.9960000   6.6730000  11.4080000  60.2580000   0.6530000  13.9790000
  58.7310000   0.2750000  15.3050000  59.7600000   2.3980000  12.4310000
  60.7540000  12.1190000  11.8360000  61.2350000   8.7660000  13.1730000
  60.4450000  11.0190000   9.7310000  59.8740000  11.1440000  13.3910000
  56.1660000   7.0040000  10.5710000  59.4000000   9.2860000   9.8340000
  55.4000000   9.2640000  10.8410000  56.6790000  10.4660000  11.8490000
  58.1630000   1.1060000  19.2830000  62.3870000   4.9330000  19.2760000
  55.0930000  -0.5830000  16.7740000  58.3180000   3.4280000  22.1770000
  60.1520000  11.2070000  21.0520000  61.6930000   5.9820000  21.3040000
  57.2680000   1.8820000  21.3740000  59.8430000   2.0750000  18.6880000
  62.8570000   4.2150000  23.7810000  56.0340000   6.1190000  10.2520000
  60.1980000   8.0450000  21.8640000  60.6270000   1.4490000  12.9280000
  60.8560000  -0.0070000  14.3110000  54.9960000  -2.0490000  13.8610000
  61.1110000  12.8350000  12.3490000  60.9520000  12.0750000  10.4670000
  60.5840000  10.9900000   8.7910000  55.2010000   7.9780000  10.3580000
  60.0220000   2.9480000  11.7030000  54.7360000   9.9290000  10.7020000
  57.1940000   1.0340000  20.2820000  58.1240000   0.5120000  18.5420000
  56.6300000   1.8150000  22.0750000  60.6290000  10.0220000  21.6010000
  54.9550000  12.4260000  23.0330000  60.6680000  12.0020000  21.1210000
  63.7640000   4.4090000  24.8010000  61.8470000   1.3810000  12.2790000
  61.6340000  13.0250000   9.7440000  54.0310000   7.7920000   9.6710000
  56.1980000   0.1100000  20.0850000  61.8560000  10.1040000  22.2160000
  64.0040000   3.3210000  25.6540000  62.8060000   0.5030000  12.8070000
  62.0710000  14.1650000  10.4550000  53.7310000   6.4870000   9.2020000
  54.0120000  -3.7830000  15.4030000  62.3400000   8.9370000  22.8730000
  63.1750000   3.0810000  26.1190000  52.8660000   6.4960000   8.7410000
  64.3170000   2.5570000  25.1280000  62.4690000  -0.4160000  12.7600000
  62.9840000   0.7380000  13.7420000  63.6350000   0.5740000  12.2890000
  62.7470000  13.8990000  11.1150000  62.4610000  14.8100000   9.8300000
  61.3090000  14.5740000  10.9150000  53.4150000  -3.4900000  14.6820000
  53.6900000   5.8680000   9.9610000  54.4280000   6.1950000   8.5800000
  53.6060000  -4.5390000  15.8750000  64.6880000   3.5670000  26.3130000
  54.8730000  -4.0590000  15.0240000  62.5240000   8.2400000  22.2080000
  63.1650000   9.1530000  23.3570000  61.6650000   8.6140000  23.5050000
  60.4150000  -2.6430000  32.4450000  61.0190000  -1.5130000  31.9590000
  61.3990000   0.0650000  37.2320000  68.3280000   3.1210000  39.6900000
  61.3770000  -1.3170000  30.6350000  61.8160000  -0.2350000  38.0660000
  60.7180000  -0.5830000  36.9570000  60.9800000   0.9400000  37.3730000
  65.1350000  11.2950000  36.5370000  68.4110000   2.3870000  40.2870000
  61.9310000   0.6440000  32.5190000  61.0360000  -0.6470000  33.8080000
  62.2950000   0.8480000  31.1920000  64.2950000   8.1840000  36.9700000
  64.8280000  12.1030000  36.1440000  63.0740000  10.2200000  35.8130000
  62.6910000   3.2770000  31.3600000  62.1450000  11.1770000  36.3240000
  63.7080000   8.4940000  34.2410000  61.3570000   3.6390000  31.5930000
  62.0400000  11.3790000  37.6920000  61.3710000  11.9640000  35.4700000
  63.3690000   5.3780000  32.2850000  64.6170000   8.7580000  34.3190000
  61.0290000   4.8440000  32.1930000  62.1230000   1.3100000  33.1680000
  60.5160000  12.9210000  35.9870000  60.6620000   3.0450000  31.3340000
  61.2010000  12.3530000  38.2210000  60.6690000   9.3670000  35.0850000
  62.0420000   5.7280000  32.5530000  64.3250000   6.4620000  32.7620000
  60.1200000   5.0650000  32.3560000  60.4350000  13.1250000  37.3640000
  69.3730000   6.1580000  39.2100000  59.9810000  13.4430000  35.4000000
  66.6980000   6.4020000  33.1510000  65.4640000   5.9760000  33.6540000
  65.0930000   7.1610000  31.6400000  63.3630000   7.4080000  33.4690000
  59.5940000  14.1260000  37.7720000  67.3360000   7.7640000  31.0190000
  63.7080000   4.1680000  31.7090000  64.5770000   7.7830000  30.5190000
  66.4670000   7.1420000  31.9080000  65.3730000   5.2200000  34.8020000
  62.0330000   7.0090000  33.2820000  59.5060000  14.3820000  39.1710000
  66.8340000   8.3970000  29.9000000  68.7100000   6.3290000  33.4930000
  65.4570000   8.4180000  29.6310000  64.6180000   3.9460000  31.5530000
  62.7010000   9.2060000  34.9110000  63.6410000   7.7810000  30.3540000
  61.0280000   7.7780000  33.8590000  64.5250000   4.9590000  35.1400000
  66.5470000   4.8420000  35.4640000  67.8650000   6.0400000  33.8170000
  58.8610000  15.1020000  39.3310000  60.3840000  14.6490000  39.5110000
  59.2100000  13.5710000  39.6340000  62.2410000  -0.0010000  29.3450000
  63.0010000   2.0190000  30.7760000  64.9690000   9.0670000  28.4820000
  61.3610000   8.8580000  34.6780000  60.1150000   7.5690000  33.6960000
  66.4510000   3.9940000  36.6020000  67.7870000   5.2550000  34.9580000
  68.2720000   7.7540000  31.1820000  63.7430000   8.6820000  27.8580000
  64.2980000   1.8220000  30.2040000  65.7170000  10.1030000  27.8510000
  64.3490000  10.1480000  36.4590000  61.4320000  11.8420000  34.5290000
  65.4360000   2.9840000  36.5670000  67.3110000   4.1030000  37.7150000
  62.5540000  10.8390000  38.2820000  62.0060000  -0.1360000  30.2550000
  64.8260000   8.9700000  37.0140000  64.7050000   2.6070000  29.1230000
  65.1810000   0.8790000  30.6940000  66.2240000  11.1670000  28.5810000
  65.9360000  10.0700000  26.4760000  63.5320000   7.4000000  27.3870000
  62.7530000   9.6450000  27.6480000  65.3770000   2.0990000  35.4940000
  67.4750000   3.0360000  38.5940000  64.4790000   2.8930000  37.5650000
  68.0150000   5.2830000  37.9880000  68.8850000   5.3580000  39.0560000
  64.1080000   3.2550000  28.7690000  66.0680000   8.9230000  37.6340000
  66.9940000   2.2310000  38.4420000  64.1940000   6.7350000  27.5350000
  66.4560000   0.7140000  30.1060000  64.9290000   0.3360000  31.4320000
  65.9570000   2.4590000  28.5580000  66.9520000  12.1810000  27.9630000
  67.4330000   8.8270000  29.3000000  66.6430000  11.0800000  25.8580000
  66.0720000  11.2050000  29.5180000  62.3640000   7.0650000  26.6980000
  65.5970000   9.3470000  25.9610000  61.5980000   9.3260000  26.9680000
  62.8770000  10.5280000  27.9760000  64.3600000   1.1670000  35.4100000
  68.5850000   4.9940000  35.4030000  61.2910000  -0.5220000  32.9010000
  64.5150000   3.4890000  38.3040000  66.3500000  11.2680000  37.1790000
  67.8900000   6.0430000  37.4310000  63.4660000   1.9430000  37.5010000
  66.0400000   2.1360000  34.8150000  69.0540000   4.2760000  39.9080000
  62.2320000   6.1800000  26.3790000  66.3960000   8.1060000  37.9900000
  66.8250000   1.5100000  29.0550000  67.0540000   0.0550000  30.4380000
  61.1940000  -1.9880000  29.9880000  67.3090000  12.8960000  28.4760000
  67.1500000  12.1360000  26.5940000  66.7820000  11.0510000  24.9180000
  61.3990000   8.0400000  26.4850000  66.2200000   3.0090000  27.8300000
  60.9340000   9.9900000  26.8290000  63.3920000   1.0950000  36.4090000
  64.3210000   0.5730000  34.6690000  62.8280000   1.8770000  38.2020000
  66.8270000  10.0830000  37.7280000  61.1530000  12.4870000  39.1600000
  66.8660000  12.0630000  37.2480000  69.9620000   4.4700000  40.9280000
  68.0450000   1.4420000  28.4060000  67.8320000  13.0860000  25.8710000
  60.2280000   7.8530000  25.7980000  62.3960000   0.1710000  36.2120000
  68.0530000  10.1650000  38.3430000  70.2020000   3.3820000  41.7810000
  69.0040000   0.5640000  28.9340000  68.2690000  14.2260000  26.5820000
  59.9280000   6.5480000  25.3290000  60.2090000  -3.7220000  31.5300000
  68.5380000   8.9980000  39.0000000  69.3730000   3.1420000  42.2460000
  59.0630000   6.5570000  24.8680000  70.5150000   2.6180000  41.2550000
  68.6670000  -0.3550000  28.8870000  69.1810000   0.7990000  29.8690000
  69.8330000   0.6350000  28.4160000  68.9450000  13.9600000  27.2420000
  68.6590000  14.8710000  25.9570000  67.5060000  14.6350000  27.0420000
  59.6130000  -3.4290000  30.8090000  59.8880000   5.9290000  26.0880000
  60.6260000   6.2560000  24.7070000  59.8040000  -4.4780000  32.0020000
  70.8850000   3.6280000  42.4400000  61.0700000  -3.9970000  31.1510000
  68.7210000   8.3010000  38.3350000  69.3630000   9.2140000  39.4840000
  67.8630000   8.6750000  39.6320000  50.5740000  11.7310000   0.1910000
  51.1770000  12.8600000  -0.2950000  51.5580000  14.4390000   4.9780000
  56.6150000  15.0880000  -2.1480000  53.6250000  16.3170000   5.2470000
  50.8760000  13.7910000   4.7030000  51.9750000  14.1380000   5.8120000
  51.1390000  15.3140000   5.1190000  54.8640000  16.9810000  -3.1310000
  51.3530000  12.3860000  -2.2660000  54.6380000  17.2670000   5.3110000
  52.9870000  16.2500000   5.9480000  54.4570000  16.1960000  -2.0500000
  54.4540000  22.5580000   4.7160000  57.1520000  16.6050000   6.1880000
  55.1280000  23.4410000  -3.7720000  55.6150000  22.7920000  -2.6230000
  57.4700000  18.4770000   5.4610000  55.5320000  19.5940000   2.5480000
  51.5200000  23.2320000   2.4240000  52.1990000  25.7530000   5.4380000
  57.6340000  17.4100000   6.3400000  53.5280000  19.7520000   0.0310000
  54.6830000  19.3330000   2.8860000  51.1860000  22.1520000   1.6050000
  54.9870000  26.4770000   3.8900000  56.2270000  23.2970000   5.3800000
  52.7130000  25.2130000   6.0280000  59.0440000  19.7320000   6.8020000
  54.6740000  17.8630000   6.0510000  52.1920000  21.3830000   1.0280000
  54.4830000  20.8360000   0.5080000  50.2790000  19.4390000   0.1020000
  59.2130000  18.6500000   7.6540000  54.4800000  14.9470000   2.4150000
  59.5320000  20.5320000   6.9560000  52.2010000  20.1020000   0.2990000
  55.2520000  21.5350000  -0.6140000  55.6230000  20.3500000   1.4000000
  53.5220000  21.7820000   1.2150000  60.1210000  18.8440000   8.6740000
  51.1880000  19.2180000  -0.0610000  54.7350000  22.1570000  -1.7350000
  53.8660000  22.8670000   1.9870000  56.6260000  21.5160000  -0.3460000
  53.8660000  18.5420000  -0.5450000  56.8570000  20.7760000   0.8970000
  60.3610000  17.7560000   9.5270000  51.5160000  18.0120000  -0.6610000
  50.2740000  21.9430000   1.4420000  52.8500000  17.6510000  -0.8940000
  53.8000000  22.1550000  -1.9000000  52.8600000  23.5790000   2.6570000
  54.7760000  23.1320000   2.0650000  58.0240000  20.4140000   1.5630000
  54.7770000  18.3200000  -0.7010000  56.7060000  19.2150000   3.2100000
  57.4940000  22.1380000  -1.2350000  58.0210000  23.0490000   7.3780000
  49.3690000  27.9450000   7.3800000  59.5210000  23.5880000   7.2300000
  50.8210000  17.4180000  -0.9200000  53.1600000  16.3930000  -1.4780000
  53.2330000  24.5940000   3.5590000  56.9930000  22.7710000  -2.3540000
  58.4300000  22.1280000  -1.0720000  56.6100000  18.3680000   4.3480000
  57.9450000  19.6290000   2.7040000  58.8690000  20.7030000   1.2390000
  55.8760000  24.4770000  -4.4030000  53.9020000  23.0560000  -4.3960000
  54.5080000  24.5220000   4.2050000  52.3040000  25.5510000   4.0700000
  54.3530000  21.1080000  -4.7190000  52.4540000  15.2220000  -1.0620000
  55.5950000  17.3580000   4.3130000  58.7430000  19.3680000   3.1490000
  56.0950000  24.4440000  -5.7780000  56.3830000  25.5410000  -3.6730000
  53.6910000  21.7740000  -4.8660000  52.9120000  24.0190000  -4.6060000
  58.1730000  19.6570000   5.7340000  55.2930000  25.6690000   4.2830000
  54.9850000  23.3440000   4.7600000  51.5300000  26.3380000   3.2160000
  55.3400000  15.2530000  -1.5600000  52.0900000  15.0170000   0.2650000
  55.5360000  16.4730000   3.2400000  52.1650000  14.2380000  -1.9980000
  56.8010000  25.4540000  -6.3960000  57.5910000  23.2010000  -2.9540000
  57.1110000  26.5550000  -4.2910000  53.0360000  24.9010000  -4.2780000
  55.7560000  23.7210000  -6.2930000  51.7570000  23.6990000  -5.2860000
  54.2670000  17.6290000  -3.4850000  56.1160000  16.8330000  -3.6960000
  52.5230000  21.4390000  -5.5560000  56.2310000  25.5790000  -2.7360000
  56.5090000  25.6420000   4.9250000  58.0490000  20.4170000   5.1770000
  50.6750000  27.2950000   3.7330000  51.5910000  26.2160000   2.2750000
  51.3600000  26.7270000   5.9670000  50.8280000  23.7400000   2.8310000
  51.4490000  13.8520000   0.6470000  52.3990000  14.3730000  -2.9090000
  51.5360000  13.0570000  -1.6190000  52.2820000  15.6840000   0.9140000
  58.4870000  17.4950000   7.4360000  56.1990000  16.5100000   2.5610000
  54.5190000  15.5410000   3.1560000  55.0880000  14.7100000  -0.8220000
  57.3090000  26.5100000  -5.6600000  57.4680000  27.2700000  -3.7780000
  52.3900000  20.5540000  -5.8750000  51.5580000  22.4130000  -5.7690000
  56.9400000  25.4250000  -7.3360000  51.0920000  24.3640000  -5.4250000
  56.5540000  22.4800000   5.7370000  56.9860000  24.4570000   5.4740000
  57.0250000  26.4370000   4.9940000  50.5940000  27.4990000   5.1100000
  50.1400000  27.8170000   3.1470000  51.3120000  26.8610000   6.9060000
  56.9840000  15.8840000  -3.1990000  56.3780000  17.3830000  -4.4240000
  51.1950000  13.7270000   1.5540000  53.5510000  15.4690000   4.1550000
  58.5690000  16.7610000   8.0330000  57.2120000  14.4280000  -1.8160000
  57.9900000  27.4600000  -6.3830000  50.3870000  22.2270000  -6.4560000
  58.2120000  24.5390000   6.0890000  49.7530000  28.5000000   5.5180000
  58.2040000  15.8160000  -3.8480000  52.5550000  14.5450000   3.9580000
  58.4270000  28.6000000  -5.6720000  50.0870000  20.9220000  -6.9250000
  58.6970000  23.3720000   6.7460000  49.6640000  28.7560000   6.9170000
  59.1630000  14.9380000  -3.3200000  50.3680000  10.6520000  -0.7240000
  59.1040000  28.3340000  -5.0120000  57.6650000  29.0090000  -5.2120000
  58.8260000  14.0190000  -3.3670000  49.2220000  20.9310000  -7.3860000
  50.7850000  20.6300000  -7.5470000  49.9630000   9.8960000  -0.2520000
  49.7720000  10.9450000  -1.4450000  58.8180000  29.2450000  -6.2970000
  58.8800000  22.6750000   6.0810000  51.2290000  10.3770000  -1.1030000
  49.0200000  29.4760000   7.0770000  50.5430000  29.0230000   7.2570000
  50.0470000  20.3030000  -6.1660000  59.3400000  15.1730000  -2.3850000
  59.9910000  15.0090000  -3.8380000  61.0440000  18.0020000  10.1860000
  60.6740000  16.9920000   9.0010000  59.5320000  17.5160000   9.9920000
  69.5100000  44.8690000  12.2790000  64.8570000  44.5230000  20.2820000
  61.6740000  39.7060000  15.4030000  62.8420000  42.1100000  14.5080000
  67.4220000  45.8860000  12.4310000  61.0780000  39.9980000  14.6820000
  61.2690000  38.9490000  15.8750000  62.5350000  39.4300000  15.0240000
  63.4710000  43.2910000  14.1290000  62.6590000  41.4400000  13.8610000
  66.6460000  44.3060000  14.5670000  67.6850000  46.4370000  11.7030000
  65.7630000  45.2490000  14.0770000  63.7060000  43.4270000  13.2180000
  66.3940000  43.7640000  15.3050000  64.4660000  45.4470000  14.6490000
  64.1560000  46.7040000  15.2330000  63.7600000  44.2760000  15.0650000
  65.1730000  47.5950000  15.5820000  62.8220000  47.0660000  15.4660000
  63.3960000  44.0710000  16.3920000  66.8420000  45.5260000  19.3670000
  64.8340000  48.8060000  16.1580000  66.0830000  47.3730000  15.4260000
  62.4940000  48.2710000  16.0660000  65.5730000  46.6830000  12.6420000
  62.7560000  42.9060000  16.7740000  63.5880000  44.7370000  17.0410000
  65.8250000  44.5940000  19.2830000  67.5050000  45.5630000  18.6880000
  63.5070000  49.1550000  16.4260000  65.7900000  49.8900000  16.6350000
  61.5850000  48.4930000  16.2290000  62.4840000  41.9140000  15.8320000
  62.5010000  42.7810000  17.6810000  68.5190000  43.4820000  14.3110000
  67.9320000  50.5690000  15.7810000  66.5580000  50.5890000  15.5130000
  64.8280000  50.8360000  17.3420000  66.9290000  49.4040000  17.5270000
  61.8800000  40.7840000  16.3180000  68.8010000  51.1920000  14.8920000
  66.0420000  51.2100000  14.3920000  65.1730000  51.9210000  18.1140000
  63.4980000  50.4360000  17.1550000  66.8380000  48.6470000  18.6750000
  68.1630000  49.8300000  17.0240000  62.8640000  43.4920000  21.1050000
  68.2990000  51.8250000  13.7730000  69.7370000  51.1810000  15.0550000
  66.9220000  51.8450000  13.5040000  65.1060000  51.2080000  14.2270000
  64.1660000  52.6330000  18.7840000  65.9900000  48.3860000  19.0130000
  62.4930000  51.2060000  17.7320000  66.0820000  52.1850000  18.1920000
  68.0120000  48.2690000  19.3370000  69.3300000  49.4680000  17.6900000
  63.2810000  43.1920000  21.9390000  62.1830000  42.8440000  20.8300000
  62.4450000  44.3680000  21.2460000  67.5370000  54.6330000  13.3910000
  64.5390000  53.6470000  19.6860000  66.4340000  52.4950000  12.3550000
  62.8260000  52.2850000  18.5510000  61.5800000  50.9970000  17.5690000
  67.9160000  47.4220000  20.4750000  69.2520000  48.6830000  18.8310000
  70.1750000  49.7570000  17.3660000  63.6100000  54.6040000  20.1970000
  67.1820000  53.5300000  11.7240000  65.8140000  53.5760000  20.3320000
  65.2080000  52.1090000  11.7310000  65.9800000  46.9160000  22.1770000
  68.7760000  47.5300000  21.5880000  66.9010000  46.4120000  20.4400000
  70.0500000  48.4220000  19.2760000  64.9970000  50.8280000  11.2600000
  62.8360000  55.3910000  19.3430000  64.2180000  53.0720000  11.5210000
  67.4010000  53.4970000  10.3490000  63.5050000  54.8060000  21.5650000
  66.2910000  52.3980000  20.8870000  66.1700000  46.0340000  12.9960000
  65.9440000  46.3210000  21.4380000  67.6890000  54.5940000  12.4540000
  66.6000000  54.7230000  20.4100000  68.9400000  46.4630000  22.4670000
  69.4800000  48.7110000  21.8610000  61.9810000  56.3490000  19.8600000
  62.8970000  55.2700000  18.4020000  62.6660000  55.7800000  22.0940000
  64.0190000  54.2670000  22.1550000  67.0620000  52.7740000   9.8340000
  68.4170000  55.6080000  11.8360000  68.8980000  52.2550000  13.1730000
  68.1080000  54.5080000   9.7310000  70.3500000  48.7860000  22.9290000
  62.1340000  52.7940000  18.9580000  69.7930000  46.5490000  23.5630000
  65.7600000  51.6110000  20.8430000  63.0630000  52.7530000  10.8410000
  64.3420000  53.9550000  11.8490000  64.9310000  45.3710000  21.3740000
  62.1270000  46.4720000  15.2070000  67.8150000  54.6960000  21.0520000
  65.6590000  50.1620000  11.4080000  63.8290000  50.4930000  10.5710000
  66.2930000  55.5310000  20.0170000  67.9210000  44.1420000  13.9790000
  69.3550000  49.4700000  21.3040000  67.5330000  52.3510000  21.5070000
  68.4590000  45.6580000  22.3150000  61.9000000  56.5520000  21.2370000
  61.4460000  56.8710000  19.2740000  68.3310000  55.4900000  21.1210000
  68.6150000  55.5640000  10.4670000  68.2470000  54.4790000   8.7910000
  68.7740000  56.3230000  12.3490000  62.6180000  55.9140000  23.0330000
  70.5190000  47.7030000  23.7810000  64.2930000  45.3040000  22.0750000
  62.8640000  51.4670000  10.3580000  62.3990000  53.4170000  10.7020000
  63.6970000  49.6080000  10.2520000  68.2900000  44.9380000  12.9280000
  67.8610000  51.5330000  21.8640000  69.8760000  45.8140000  24.1600000
  68.2920000  53.5110000  21.6010000  65.7860000  44.0010000  18.5420000
  70.8380000  49.5860000  23.0830000  61.0590000  57.5540000  21.6450000
  69.2970000  56.5130000   9.7440000  71.4270000  47.8980000  24.8010000
  63.8610000  43.5990000  20.0850000  61.6930000  51.2810000   9.6710000
  69.5180000  53.5930000  22.2160000  60.9710000  57.8090000  23.0440000
  69.7340000  57.6530000  10.4550000  71.6670000  46.8100000  25.6540000
  61.3930000  49.9750000   9.2020000  70.4690000  43.9910000  12.8070000
  70.0030000  52.4250000  22.8730000  60.3260000  58.5290000  23.2040000
  60.6750000  56.9980000  23.5070000  61.8490000  58.0760000  23.3840000
  70.4100000  57.3880000  11.1150000  68.9710000  58.0620000  10.9150000
  70.1240000  58.2990000   9.8300000  71.9800000  46.0450000  25.1280000
  70.8380000  46.5690000  26.1190000  72.3500000  47.0560000  26.3130000
  61.3530000  49.3570000   9.9610000  62.0910000  49.6830000   8.5800000
  60.5280000  49.9840000   8.7410000  70.6460000  44.2260000  13.7420000
  70.1320000  43.0720000  12.7600000  71.2980000  44.0630000  12.2890000
  70.1860000  51.7280000  22.2080000  70.8280000  52.6420000  23.3570000
  69.3280000  52.1030000  23.5050000  75.7080000  44.9310000  28.4060000
  71.0550000  44.5840000  36.4090000  67.8720000  39.7670000  31.5300000
  69.0400000  42.1720000  30.6350000  73.6200000  45.9480000  28.5580000
  67.2760000  40.0600000  30.8090000  67.4670000  39.0100000  32.0020000
  68.7330000  39.4910000  31.1510000  69.6690000  43.3530000  30.2550000
  68.8570000  41.5010000  29.9880000  72.8430000  44.3670000  30.6940000
  73.8820000  46.4980000  27.8300000  71.9610000  45.3100000  30.2040000
  69.9030000  43.4880000  29.3450000  72.5920000  43.8250000  31.4320000
  70.6640000  45.5080000  30.7760000  70.3540000  46.7650000  31.3600000
  69.9570000  44.3370000  31.1920000  71.3700000  47.6560000  31.7090000
  69.0190000  47.1270000  31.5930000  69.5940000  44.1320000  32.5190000
  73.0400000  45.5880000  35.4940000  71.0320000  48.8670000  32.2850000
  72.2810000  47.4340000  31.5530000  68.6920000  48.3330000  32.1930000
  71.7710000  46.7440000  28.7690000  68.9530000  42.9670000  32.9010000
  69.7860000  44.7980000  33.1680000  72.0230000  44.6550000  35.4100000
  73.7030000  45.6250000  34.8150000  69.7040000  49.2160000  32.5530000
  71.9870000  49.9510000  32.7620000  67.7830000  48.5540000  32.3560000
  68.6810000  41.9750000  31.9590000  68.6990000  42.8420000  33.8080000
  74.7160000  43.5430000  30.4380000  74.1300000  50.6300000  31.9080000
  72.7560000  50.6500000  31.6400000  71.0260000  50.8970000  33.4690000
  73.1270000  49.4650000  33.6540000  68.0780000  40.8450000  32.4450000
  74.9980000  51.2530000  31.0190000  72.2390000  51.2720000  30.5190000
  71.3700000  51.9820000  34.2410000  69.6960000  50.4970000  33.2820000
  73.0360000  48.7080000  34.8020000  74.3610000  49.8910000  33.1510000
  69.0620000  43.5530000  37.2320000  74.4970000  51.8860000  29.9000000
  75.9340000  51.2420000  31.1820000  73.1190000  51.9060000  29.6310000
  71.3040000  51.2690000  30.3540000  70.3640000  52.6940000  34.9110000
  72.1870000  48.4470000  35.1400000  68.6900000  51.2670000  33.8590000
  72.2790000  52.2470000  34.3190000  74.2100000  48.3300000  35.4640000
  75.5280000  49.5290000  33.8170000  69.4790000  43.2530000  38.0660000
  68.3800000  42.9050000  36.9570000  68.6430000  44.4290000  37.3730000
  73.7350000  54.6940000  29.5180000  70.7370000  53.7080000  35.8130000
  72.6320000  52.5560000  28.4820000  69.0240000  52.3460000  34.6780000
  67.7780000  51.0580000  33.6960000  74.1140000  47.4830000  36.6020000
  75.4490000  48.7440000  34.9580000  76.3730000  49.8180000  33.4930000
  69.8080000  54.6650000  36.3240000  73.3800000  53.5910000  27.8510000
  72.0120000  53.6370000  36.4590000  71.4060000  52.1710000  27.8580000
  72.1780000  46.9780000  38.3040000  74.9740000  47.5910000  37.7150000
  73.0990000  46.4730000  36.5670000  76.2470000  48.4830000  35.4030000
  71.1950000  50.8890000  27.3870000  69.0340000  55.4530000  35.4700000
  70.4150000  53.1330000  27.6480000  73.5990000  53.5580000  26.4760000
  69.7030000  54.8670000  37.6920000  72.4890000  52.4590000  37.0140000
  72.3670000  46.0950000  29.1230000  72.1420000  46.3820000  37.5650000
  73.8870000  54.6550000  28.5810000  72.7970000  54.7840000  36.5370000
  75.1380000  46.5240000  38.5940000  75.6770000  48.7720000  37.9880000
  68.1790000  56.4100000  35.9870000  69.0950000  55.3310000  34.5290000
  68.8630000  55.8410000  38.2210000  70.2170000  54.3280000  38.2820000
  73.2600000  52.8350000  25.9610000  74.6150000  55.6690000  27.9630000
  75.0950000  52.3160000  29.3000000  74.3050000  54.5690000  25.8580000
  76.5480000  48.8470000  39.0560000  68.3320000  52.8550000  35.0850000
  75.9910000  46.6100000  39.6900000  71.9580000  51.6720000  36.9700000
  69.2610000  52.8140000  26.9680000  70.5400000  54.0160000  27.9760000
  71.1290000  45.4320000  37.5010000  68.3250000  46.5330000  31.3340000
  74.0130000  54.7570000  37.1790000  71.8570000  50.2230000  27.5350000
  70.0270000  50.5540000  26.6980000  72.4910000  55.5920000  36.1440000
  74.1190000  44.2030000  30.1060000  75.5530000  49.5310000  37.4310000
  73.7310000  52.4120000  37.6340000  74.6560000  45.7200000  38.4420000
  68.0980000  56.6140000  37.3640000  67.6440000  56.9320000  35.4000000
  74.5290000  55.5510000  37.2480000  74.8130000  55.6250000  26.5940000
  74.4440000  54.5400000  24.9180000  74.9720000  56.3840000  28.4760000
  68.8160000  55.9760000  39.1600000  76.7170000  47.7650000  39.9080000
  70.4910000  45.3650000  38.2020000  69.0610000  51.5280000  26.4850000
  68.5960000  53.4790000  26.8290000  69.8940000  49.6690000  26.3790000
  74.4880000  44.9990000  29.0550000  74.0580000  51.5940000  37.9900000
  76.0730000  45.8760000  40.2870000  74.4890000  53.5720000  37.7280000
  71.9840000  44.0620000  34.6690000  77.0360000  49.6470000  39.2100000
  67.2570000  57.6150000  37.7720000  75.4940000  56.5740000  25.8710000
  77.6250000  47.9590000  40.9280000  70.0590000  43.6600000  36.2120000
  67.8910000  51.3420000  25.7980000  75.7160000  53.6540000  38.3430000
  67.1680000  57.8710000  39.1710000  75.9310000  57.7140000  26.5820000
  77.8650000  46.8710000  41.7810000  67.5910000  50.0370000  25.3290000
  76.6670000  44.0530000  28.9340000  76.2010000  52.4860000  39.0000000
  66.5240000  58.5900000  39.3310000  66.8730000  57.0590000  39.6340000
  68.0470000  58.1370000  39.5110000  76.6080000  57.4490000  27.2420000
  75.1690000  58.1240000  27.0420000  76.3210000  58.3600000  25.9570000
  78.1780000  46.1060000  41.2550000  77.0360000  46.6310000  42.2460000
  78.5480000  47.1170000  42.4400000  67.5510000  49.4180000  26.0880000
  68.2890000  49.7450000  24.7070000  66.7260000  50.0450000  24.8680000
  76.8440000  44.2870000  29.8690000  76.3300000  43.1340000  28.8870000
  77.4950000  44.1240000  28.4160000  76.3840000  51.7890000  38.3350000
  77.0250000  52.7030000  39.4840000  75.5250000  52.1640000  39.6320000
  72.0640000  59.3660000  12.2790000  67.4110000  59.0190000  20.2820000
  64.2290000  54.2020000  15.4030000  65.3960000  56.6070000  14.5080000
  69.9770000  60.3830000  12.4310000  63.6320000  54.4950000  14.6820000
  63.8230000  53.4450000  15.8750000  65.0900000  53.9260000  15.0240000
  66.0250000  57.7880000  14.1290000  65.2130000  55.9360000  13.8610000
  69.2000000  58.8020000  14.5670000  70.2390000  60.9330000  11.7030000
  68.3170000  59.7450000  14.0770000  66.2600000  57.9230000  13.2180000
  68.9480000  58.2600000  15.3050000  67.0200000  59.9430000  14.6490000
  66.7100000  61.2000000  15.2330000  66.3140000  58.7720000  15.0650000
  67.7270000  62.0910000  15.5820000  65.3760000  61.5620000  15.4660000
  65.9500000  58.5670000  16.3920000  69.3960000  60.0230000  19.3670000
  67.3880000  63.3020000  16.1580000  68.6370000  61.8700000  15.4260000
  65.0490000  62.7680000  16.0660000  68.1270000  61.1790000  12.6420000
  65.3100000  57.4020000  16.7740000  66.1420000  59.2330000  17.0410000
  68.3800000  59.0900000  19.2830000  70.0600000  60.0600000  18.6880000
  66.0610000  63.6520000  16.4260000  68.3440000  64.3860000  16.6350000
  64.1390000  62.9890000  16.2290000  65.0380000  56.4100000  15.8320000
  65.0550000  57.2770000  17.6810000  71.0730000  57.9780000  14.3110000
  70.4860000  65.0660000  15.7810000  69.1120000  65.0850000  15.5130000
  67.3820000  65.3320000  17.3420000  69.4840000  63.9000000  17.5270000
  64.4340000  55.2800000  16.3180000  71.3550000  65.6880000  14.8920000
  68.5960000  65.7070000  14.3920000  67.7270000  66.4170000  18.1140000
  66.0520000  64.9320000  17.1550000  69.3920000  63.1430000  18.6750000
  70.7170000  64.3260000  17.0240000  65.4180000  57.9890000  21.1050000
  70.8530000  66.3210000  13.7730000  72.2910000  65.6770000  15.0550000
  69.4760000  66.3410000  13.5040000  67.6600000  65.7040000  14.2270000
  66.7210000  67.1290000  18.7840000  68.5440000  62.8820000  19.0130000
  65.0470000  65.7020000  17.7320000  68.6360000  66.6820000  18.1920000
  70.5670000  62.7650000  19.3370000  71.8840000  63.9640000  17.6900000
  65.8350000  57.6880000  21.9390000  64.7370000  57.3400000  20.8300000
  65.0000000  58.8640000  21.2460000  70.0910000  69.1290000  13.3910000
  67.0930000  68.1440000  19.6860000  68.9880000  66.9910000  12.3550000
  65.3800000  66.7820000  18.5510000  64.1350000  65.4930000  17.5690000
  70.4700000  61.9180000  20.4750000  71.8060000  63.1790000  18.8310000
  72.7290000  64.2530000  17.3660000  66.1650000  69.1000000  20.1970000
  69.7370000  68.0270000  11.7240000  68.3680000  68.0720000  20.3320000
  67.7620000  66.6060000  11.7310000  68.5350000  61.4130000  22.1770000
  71.3300000  62.0270000  21.5880000  69.4560000  60.9080000  20.4400000
  72.6040000  62.9180000  19.2760000  67.5520000  65.3240000  11.2600000
  65.3910000  69.8880000  19.3430000  66.7720000  67.5690000  11.5210000
  69.9560000  67.9930000  10.3490000  66.0600000  69.3020000  21.5650000
  68.8450000  66.8940000  20.8870000  68.7240000  60.5300000  12.9960000
  68.4980000  60.8170000  21.4380000  70.2430000  69.0910000  12.4540000
  69.1540000  69.2190000  20.4100000  71.4940000  60.9590000  22.4670000
  72.0340000  63.2070000  21.8610000  64.5350000  70.8450000  19.8600000
  65.4510000  69.7660000  18.4020000  65.2200000  70.2760000  22.0940000
  66.5740000  68.7630000  22.1550000  69.6170000  67.2700000   9.8340000
  70.9710000  70.1040000  11.8360000  71.4520000  66.7510000  13.1730000
  70.6620000  69.0040000   9.7310000  72.9040000  63.2820000  22.9290000
  64.6890000  67.2900000  18.9580000  72.3470000  61.0450000  23.5630000
  68.3140000  66.1070000  20.8430000  65.6170000  67.2490000  10.8410000
  66.8960000  68.4510000  11.8490000  67.4850000  59.8670000  21.3740000
  64.6810000  60.9680000  15.2070000  70.3690000  69.1920000  21.0520000
  68.2130000  64.6580000  11.4080000  66.3830000  64.9890000  10.5710000
  68.8470000  70.0270000  20.0170000  70.4750000  58.6380000  13.9790000
  71.9100000  63.9660000  21.3040000  70.0870000  66.8470000  21.5070000
  71.0130000  60.1550000  22.3150000  64.4540000  71.0490000  21.2370000
  64.0000000  71.3670000  19.2740000  70.8850000  69.9860000  21.1210000
  71.1690000  70.0600000  10.4670000  70.8010000  68.9750000   8.7910000
  71.3280000  70.8190000  12.3490000  65.1720000  70.4110000  23.0330000
  73.0740000  62.2000000  23.7810000  66.8470000  59.8000000  22.0750000
  65.4180000  65.9630000  10.3580000  64.9530000  67.9140000  10.7020000
  66.2510000  64.1040000  10.2520000  70.8440000  59.4340000  12.9280000
  70.4150000  66.0290000  21.8640000  72.4300000  60.3110000  24.1600000
  70.8460000  68.0070000  21.6010000  68.3410000  58.4970000  18.5420000
  73.3920000  64.0820000  23.0830000  63.6140000  72.0500000  21.6450000
  71.8510000  71.0090000   9.7440000  73.9810000  62.3940000  24.8010000
  66.4150000  58.0950000  20.0850000  64.2480000  65.7770000   9.6710000
  72.0730000  68.0890000  22.2160000  63.5250000  72.3060000  23.0440000
  72.2880000  72.1490000  10.4550000  74.2210000  61.3060000  25.6540000
  63.9480000  64.4720000   9.2020000  73.0230000  58.4880000  12.8070000
  72.5570000  66.9210000  22.8730000  62.8810000  73.0260000  23.2040000
  63.2300000  71.4940000  23.5070000  64.4040000  72.5720000  23.3840000
  72.9640000  71.8840000  11.1150000  71.5260000  72.5590000  10.9150000
  72.6780000  72.7950000   9.8300000  74.5340000  60.5410000  25.1280000
  73.3920000  61.0660000  26.1190000  74.9050000  61.5520000  26.3130000
  63.9070000  63.8530000   9.9610000  64.6450000  64.1800000   8.5800000
  63.0830000  64.4800000   8.7410000  73.2010000  58.7230000  13.7420000
  72.6860000  57.5690000  12.7600000  73.8520000  58.5590000  12.2890000
  72.7410000  66.2250000  22.2080000  73.3820000  67.1380000  23.3570000
  71.8820000  66.5990000  23.5050000  78.2620000  59.4270000  28.4060000
  73.6090000  59.0800000  36.4090000  70.4260000  54.2630000  31.5300000
  71.5940000  56.6680000  30.6350000  76.1740000  60.4440000  28.5580000
  69.8300000  54.5560000  30.8090000  70.0210000  53.5060000  32.0020000
  71.2870000  53.9870000  31.1510000  72.2230000  57.8490000  30.2550000
  71.4110000  55.9970000  29.9880000  75.3980000  58.8640000  30.6940000
  76.4370000  60.9940000  27.8300000  74.5150000  59.8070000  30.2040000
  72.4580000  57.9840000  29.3450000  75.1460000  58.3210000  31.4320000
  73.2180000  60.0040000  30.7760000  72.9080000  61.2610000  31.3600000
  72.5120000  58.8330000  31.1920000  73.9250000  62.1530000  31.7090000
  71.5740000  61.6230000  31.5930000  72.1480000  58.6280000  32.5190000
  75.5940000  60.0840000  35.4940000  73.5860000  63.3630000  32.2850000
  74.8350000  61.9310000  31.5530000  71.2460000  62.8290000  32.1930000
  74.3250000  61.2400000  28.7690000  71.5080000  57.4630000  32.9010000
  72.3400000  59.2950000  33.1680000  74.5770000  59.1510000  35.4100000
  76.2570000  60.1210000  34.8150000  72.2590000  63.7130000  32.5530000
  74.5410000  64.4470000  32.7620000  70.3370000  63.0500000  32.3560000
  71.2360000  56.4710000  31.9590000  71.2530000  57.3380000  33.8080000
  77.2710000  58.0390000  30.4380000  76.6840000  65.1270000  31.9080000
  75.3100000  65.1460000  31.6400000  73.5800000  65.3930000  33.4690000
  75.6810000  63.9610000  33.6540000  70.6320000  55.3420000  32.4450000
  77.5530000  65.7490000  31.0190000  74.7940000  65.7680000  30.5190000
  73.9250000  66.4780000  34.2410000  72.2500000  64.9930000  33.2820000
  75.5900000  63.2050000  34.8020000  76.9150000  64.3870000  33.1510000
  71.6160000  58.0500000  37.2320000  77.0510000  66.3820000  29.9000000
  78.4890000  65.7390000  31.1820000  75.6740000  66.4030000  29.6310000
  73.8580000  65.7650000  30.3540000  72.9180000  67.1900000  34.9110000
  74.7410000  62.9430000  35.1400000  71.2450000  65.7630000  33.8590000
  74.8340000  66.7430000  34.3190000  76.7640000  62.8260000  35.4640000
  78.0820000  64.0250000  33.8170000  72.0330000  57.7490000  38.0660000
  70.9350000  57.4020000  36.9570000  71.1970000  58.9250000  37.3730000
  76.2890000  69.1900000  29.5180000  73.2910000  68.2050000  35.8130000
  75.1860000  67.0520000  28.4820000  71.5780000  66.8430000  34.6780000
  70.3320000  65.5540000  33.6960000  76.6680000  61.9790000  36.6020000
  78.0040000  63.2400000  34.9580000  78.9270000  64.3140000  33.4930000
  72.3620000  69.1610000  36.3240000  75.9340000  68.0880000  27.8510000
  74.5660000  68.1330000  36.4590000  73.9600000  66.6670000  27.8580000
  74.7320000  61.4740000  38.3040000  77.5280000  62.0880000  37.7150000
  75.6530000  60.9690000  36.5670000  78.8020000  62.9790000  35.4030000
  73.7490000  65.3850000  27.3870000  71.5880000  69.9490000  35.4700000
  72.9700000  67.6300000  27.6480000  76.1530000  68.0540000  26.4760000
  72.2570000  69.3640000  37.6920000  75.0430000  66.9550000  37.0140000
  74.9220000  60.5910000  29.1230000  74.6960000  60.8780000  37.5650000
  76.4410000  69.1520000  28.5810000  75.3520000  69.2800000  36.5370000
  77.6920000  61.0210000  38.5940000  78.2320000  63.2680000  37.9880000
  70.7330000  70.9060000  35.9870000  71.6490000  69.8270000  34.5290000
  71.4180000  70.3380000  38.2210000  72.7710000  68.8240000  38.2820000
  75.8140000  67.3320000  25.9610000  77.1690000  70.1650000  27.9630000
  77.6500000  66.8120000  29.3000000  76.8590000  69.0650000  25.8580000
  79.1020000  63.3430000  39.0560000  70.8860000  67.3510000  35.0850000
  78.5450000  61.1060000  39.6900000  74.5120000  66.1690000  36.9700000
  71.8150000  67.3100000  26.9680000  73.0940000  68.5120000  27.9760000
  73.6830000  59.9280000  37.5010000  70.8790000  61.0290000  31.3340000
  76.5670000  69.2530000  37.1790000  74.4110000  64.7190000  27.5350000
  72.5810000  65.0500000  26.6980000  75.0450000  70.0880000  36.1440000
  76.6730000  58.6990000  30.1060000  78.1070000  64.0280000  37.4310000
  76.2850000  66.9080000  37.6340000  77.2110000  60.2160000  38.4420000
  70.6520000  71.1100000  37.3640000  70.1980000  71.4280000  35.4000000
  77.0830000  70.0480000  37.2480000  77.3670000  70.1210000  26.5940000
  76.9990000  69.0360000  24.9180000  77.5260000  70.8810000  28.4760000
  71.3700000  70.4720000  39.1600000  79.2710000  62.2610000  39.9080000
  73.0450000  59.8610000  38.2020000  71.6160000  66.0240000  26.4850000
  71.1510000  67.9750000  26.8290000  72.4490000  64.1650000  26.3790000
  77.0420000  59.4950000  29.0550000  76.6130000  66.0910000  37.9900000
  78.6270000  60.3720000  40.2870000  77.0440000  68.0680000  37.7280000
  74.5380000  58.5580000  34.6690000  79.5900000  64.1430000  39.2100000
  69.8110000  72.1110000  37.7720000  78.0490000  71.0700000  25.8710000
  80.1790000  62.4550000  40.9280000  72.6130000  58.1560000  36.2120000
  70.4450000  65.8380000  25.7980000  78.2700000  68.1500000  38.3430000
  69.7230000  72.3670000  39.1710000  78.4860000  72.2100000  26.5820000
  80.4190000  61.3670000  41.7810000  70.1450000  64.5330000  25.3290000
  79.2210000  58.5490000  28.9340000  78.7550000  66.9830000  39.0000000
  69.0780000  73.0870000  39.3310000  69.4270000  71.5560000  39.6340000
  70.6010000  72.6340000  39.5110000  79.1620000  71.9450000  27.2420000
  77.7230000  72.6200000  27.0420000  78.8760000  72.8560000  25.9570000
  80.7320000  60.6030000  41.2550000  79.5900000  61.1270000  42.2460000
  81.1020000  61.6130000  42.4400000  70.1050000  63.9140000  26.0880000
  70.8430000  64.2410000  24.7070000  69.2800000  64.5410000  24.8680000
  79.3980000  58.7840000  29.8690000  78.8840000  57.6300000  28.8870000
  80.0500000  58.6200000  28.4160000  78.9380000  66.2860000  38.3350000
  79.5800000  67.1990000  39.4840000  78.0800000  66.6600000  39.6320000
  57.5660000   4.3480000   8.6740000  56.6590000   4.1540000   7.6540000
  57.8060000   3.2600000   9.5270000  55.9320000   2.9990000   7.4360000
  56.4890000   5.2360000   6.8020000  55.4670000   8.5530000   7.3780000
  56.9670000   9.0920000   7.2300000  58.4900000   3.5060000  10.1860000
  55.6190000   5.1610000   5.7340000  56.0150000   2.2650000   8.0330000
  55.0800000   2.9140000   6.3400000  56.9780000   6.0360000   6.9560000
  53.0410000   2.8620000   4.3130000  55.4950000   5.9210000   5.1770000
  56.1890000   4.8720000   3.1490000  54.0560000   3.8720000   4.3480000
  54.1520000   4.7190000   3.2100000  54.9160000   3.9810000   5.4610000
  52.9780000   5.0980000   2.5480000  55.3910000   5.1330000   2.7040000
  49.6450000  11.2560000   5.4380000  53.8280000  11.0450000  -3.6730000
  53.0690000   5.8540000   1.4000000  52.2210000   8.6360000   2.0650000
  55.4700000   5.9180000   1.5630000  52.1200000   3.3670000   6.0510000
  53.9550000  11.1460000   4.9250000  50.1590000  10.7170000   6.0280000
  53.6730000   8.8010000   5.3800000  54.5980000   2.1090000   6.1880000
  54.3020000   6.2800000   0.8970000  51.9290000   6.3400000   0.5080000
  56.3150000   6.2070000   1.2390000  54.4310000   9.9610000   5.4740000
  54.4710000  11.9410000   4.9940000  54.9140000  12.7730000  -3.7780000
  49.6460000   5.6060000   0.2990000  50.9730000   5.2560000   0.0310000
  50.9670000   7.2860000   1.2150000  52.6980000   7.0390000  -0.6140000
  55.6580000  10.0430000   6.0890000  48.6340000   4.7220000  -0.0610000
  51.3120000   4.0460000  -0.5450000  51.3120000   8.3710000   1.9870000
  49.6370000   6.8860000   1.0280000  52.1810000   7.6610000  -1.7350000
  54.0710000   7.0200000  -0.3460000  47.1100000  14.2600000   6.9170000
  48.9610000   3.5160000  -0.6610000  47.7250000   4.9430000   0.1020000
  50.2960000   3.1540000  -0.8940000  52.2220000   3.8240000  -0.7010000
  50.3060000   9.0830000   2.6570000  51.2460000   7.6580000  -1.9000000
  48.6320000   7.6560000   1.6050000  52.1290000   4.8360000   2.8860000
  53.0610000   8.2960000  -2.6230000  54.9400000   7.6420000  -1.2350000
  47.9890000  14.5270000   7.2570000  46.4660000  14.9800000   7.0770000
  56.5490000  13.8380000  -5.0120000  49.7280000   1.1880000   0.9140000
  50.6060000   1.8970000  -1.4780000  50.6790000  10.0980000   3.5590000
  48.9660000   8.7360000   2.4240000  47.7200000   7.4470000   1.4420000
  52.5740000   8.9450000  -3.7720000  54.4390000   8.2750000  -2.3540000
  55.8760000   7.6320000  -1.0720000  51.3470000   8.5600000  -4.3960000
  49.8990000   0.7260000  -1.0620000  51.9530000  10.0260000   4.2050000
  49.7500000  11.0540000   4.0700000  53.6760000  11.0830000  -2.7360000
  51.9020000   1.7000000  -2.0500000  53.3220000   9.9810000  -4.4030000
  55.0370000   8.7050000  -2.9540000  52.0830000   2.7710000   5.3110000
  51.1370000   7.2780000  -4.8660000  49.5350000   0.5210000   0.2650000
  52.9820000   1.9770000   3.2400000  50.3570000   9.5230000  -4.6060000
  52.7390000  11.1730000   4.2830000  52.4300000   8.8480000   4.7600000
  48.9760000  11.8420000   3.2160000  52.7850000   0.7570000  -1.5600000
  49.6100000  -0.2580000  -1.9980000  53.5410000   9.9470000  -5.7780000
  52.3090000   2.4840000  -3.1310000  54.0610000   0.5920000  -2.1480000
  51.9000000   8.0620000   4.7160000  49.9690000   6.9430000  -5.5560000
  49.8450000  -0.1230000  -2.9090000  48.2670000   2.9220000  -0.9200000
  48.9820000  -1.4390000  -1.6190000  52.5340000   0.2140000  -0.8220000
  48.8950000  -0.6440000   0.6470000  49.2030000   9.2030000  -5.2860000
  50.4810000  10.4050000  -4.2780000  48.1210000  12.7990000   3.7330000
  49.0360000  11.7200000   2.2750000  51.0710000   1.8210000   5.2470000
  52.4330000  11.9810000   3.8900000  48.8050000  12.2310000   5.9670000
  48.2740000   9.2440000   2.8310000  51.9650000   1.0440000   3.1560000
  51.7130000   3.1330000  -3.4850000  53.5620000   2.3370000  -3.6960000
  53.6450000   2.0140000   2.5610000  54.2470000  10.9580000  -6.3960000
  53.2020000   9.2250000  -6.2930000  54.5570000  12.0580000  -4.2910000
  51.7980000   6.6120000  -4.7190000  49.0030000   7.9170000  -5.7690000
  51.9260000   0.4510000   2.4150000  49.8360000   6.0580000  -5.8750000
  48.6230000  -1.6360000  -0.2950000  48.7980000  -2.1100000  -2.2660000
  48.6400000  -0.7690000   1.5540000  48.5380000   9.8680000  -5.4250000
  54.7550000  12.0140000  -5.6600000  47.5860000  13.3210000   3.1470000
  48.0400000  13.0030000   5.1100000  50.4330000   1.7540000   5.9480000
  48.7580000  12.3650000   6.9060000  50.9970000   0.9730000   4.1550000
  53.8240000   2.8870000  -4.4240000  54.6580000  -0.0680000  -1.8160000
  54.4300000   1.3880000  -3.1990000  54.3860000  10.9290000  -7.3360000
  54.0000000   7.9830000   5.7370000  55.6500000   1.3200000  -3.8480000
  48.0200000  -2.7650000   0.1910000  47.8330000   7.7310000  -6.4560000
  47.1990000  14.0040000   5.5180000  50.0000000   0.0490000   3.9580000
  55.4360000  12.9630000  -6.3830000  47.5330000   6.4260000  -6.9250000
  47.8140000  -3.8440000  -0.7240000  56.6090000   0.4420000  -3.3200000
  49.0030000  -0.0570000   4.9780000  56.1420000   8.8750000   6.7460000
  55.8730000  14.1030000  -5.6720000  48.2310000   6.1340000  -7.5470000
  46.6680000   6.4340000  -7.3860000  47.4930000   5.8070000  -6.1660000
  47.4090000  -4.6010000  -0.2520000  48.3220000  -0.7060000   4.7030000
  48.6750000  -4.1200000  -1.1030000  56.2710000  -0.4770000  -3.3670000
  56.7860000   0.6770000  -2.3850000  57.4370000   0.5130000  -3.8380000
  49.4200000  -0.3580000   5.8120000  48.5850000   0.8180000   5.1190000
  46.8150000  13.4490000   7.3800000  47.2180000  -3.5510000  -1.4450000
  56.9780000   3.0200000   9.9920000  58.1200000   2.4960000   9.0010000
  55.1110000  14.5130000  -5.2120000  56.2630000  14.7490000  -6.2970000
  56.3260000   8.1790000   6.0810000  73.1530000  30.4340000  28.4060000
  68.5010000  30.0880000  36.4090000  65.3180000  25.2710000  31.5300000
  66.4860000  27.6750000  30.6350000  71.0660000  31.4510000  28.5580000
  64.7220000  25.5630000  30.8090000  64.9120000  24.5140000  32.0020000
  66.1790000  24.9950000  31.1510000  67.1140000  28.8560000  30.2550000
  66.3020000  27.0050000  29.9880000  70.2890000  29.8710000  30.6940000
  71.3280000  32.0020000  27.8300000  69.4060000  30.8140000  30.2040000
  67.3490000  28.9920000  29.3450000  70.0370000  29.3290000  31.4320000
  68.1090000  31.0120000  30.7760000  67.7990000  32.2690000  31.3600000
  67.4030000  29.8410000  31.1920000  68.8160000  33.1600000  31.7090000
  66.4650000  32.6310000  31.5930000  67.0390000  29.6360000  32.5190000
  70.4850000  31.0910000  35.4940000  68.4770000  34.3710000  32.2850000
  69.7260000  32.9380000  31.5530000  66.1380000  33.8360000  32.1930000
  69.2170000  32.2480000  28.7690000  66.3990000  28.4710000  32.9010000
  67.2320000  30.3020000  33.1680000  69.4690000  30.1590000  35.4100000
  71.1490000  31.1280000  34.8150000  67.1500000  34.7200000  32.5530000
  69.4330000  35.4540000  32.7620000  65.2290000  34.0580000  32.3560000
  66.1270000  27.4790000  31.9590000  66.1440000  28.3460000  33.8080000
  72.1620000  29.0470000  30.4380000  71.5750000  36.1340000  31.9080000
  70.2020000  36.1540000  31.6400000  68.4710000  36.4010000  33.4690000
  70.5730000  34.9690000  33.6540000  65.5240000  26.3490000  32.4450000
  72.4440000  36.7570000  31.0190000  69.6850000  36.7750000  30.5190000
  68.8160000  37.4860000  34.2410000  67.1410000  36.0010000  33.2820000
  70.4820000  34.2120000  34.8020000  71.8060000  35.3950000  33.1510000
  66.5070000  29.0570000  37.2320000  71.9430000  37.3900000  29.9000000
  73.3800000  36.7460000  31.1820000  70.5650000  37.4100000  29.6310000
  68.7500000  36.7730000  30.3540000  67.8100000  38.1980000  34.9110000
  69.6330000  33.9510000  35.1400000  66.1360000  36.7710000  33.8590000
  69.7250000  37.7500000  34.3190000  71.6560000  33.8340000  35.4640000
  72.9740000  35.0330000  33.8170000  66.9240000  28.7570000  38.0660000
  65.8260000  28.4090000  36.9570000  66.0890000  29.9330000  37.3730000
  71.1800000  40.1980000  29.5180000  68.1830000  39.2120000  35.8130000
  70.0780000  38.0600000  28.4820000  66.4700000  37.8500000  34.6780000
  65.2240000  36.5620000  33.6960000  71.5600000  32.9870000  36.6020000
  72.8950000  34.2480000  34.9580000  73.8180000  35.3220000  33.4930000
  67.2540000  40.1690000  36.3240000  70.8260000  39.0950000  27.8510000
  69.4570000  39.1410000  36.4590000  68.8510000  37.6740000  27.8580000
  69.6240000  32.4810000  38.3040000  72.4200000  33.0950000  37.7150000
  70.5450000  31.9770000  36.5670000  73.6930000  33.9870000  35.4030000
  68.6410000  36.3930000  27.3870000  66.4800000  40.9560000  35.4700000
  67.8610000  38.6370000  27.6480000  71.0450000  39.0620000  26.4760000
  67.1490000  40.3710000  37.6920000  69.9340000  37.9630000  37.0140000
  69.8130000  31.5990000  29.1230000  69.5870000  31.8860000  37.5650000
  71.3320000  40.1590000  28.5810000  70.2430000  40.2870000  36.5370000
  72.5840000  32.0280000  38.5940000  73.1230000  34.2760000  37.9880000
  65.6250000  41.9140000  35.9870000  66.5400000  40.8340000  34.5290000
  66.3090000  41.3450000  38.2210000  67.6630000  39.8320000  38.2820000
  70.7060000  38.3390000  25.9610000  72.0600000  41.1730000  27.9630000
  72.5410000  37.8200000  29.3000000  71.7510000  40.0730000  25.8580000
  73.9930000  34.3510000  39.0560000  65.7780000  38.3590000  35.0850000
  73.4360000  32.1140000  39.6900000  69.4030000  37.1760000  36.9700000
  66.7070000  38.3180000  26.9680000  67.9850000  39.5200000  27.9760000
  68.5740000  30.9360000  37.5010000  65.7710000  32.0370000  31.3340000
  71.4580000  40.2610000  37.1790000  69.3020000  35.7270000  27.5350000
  67.4720000  36.0580000  26.6980000  69.9360000  41.0960000  36.1440000
  71.5650000  29.7070000  30.1060000  72.9990000  35.0350000  37.4310000
  71.1770000  37.9160000  37.6340000  72.1020000  31.2230000  38.4420000
  65.5440000  42.1170000  37.3640000  65.0900000  42.4360000  35.4000000
  71.9750000  41.0550000  37.2480000  72.2580000  41.1290000  26.5940000
  71.8900000  40.0440000  24.9180000  72.4180000  41.8880000  28.4760000
  66.2610000  41.4790000  39.1600000  74.1630000  33.2680000  39.9080000
  67.9370000  30.8690000  38.2020000  66.5070000  37.0320000  26.4850000
  66.0420000  38.9820000  26.8290000  67.3400000  35.1730000  26.3790000
  71.9340000  30.5030000  29.0550000  71.5040000  37.0980000  37.9900000
  73.5190000  31.3790000  40.2870000  71.9350000  39.0760000  37.7280000
  69.4300000  29.5660000  34.6690000  74.4810000  35.1510000  39.2100000
  64.7030000  43.1180000  37.7720000  72.9400000  42.0780000  25.8710000
  75.0700000  33.4630000  40.9280000  67.5040000  29.1640000  36.2120000
  65.3370000  36.8460000  25.7980000  73.1620000  39.1580000  38.3430000
  64.6140000  43.3740000  39.1710000  73.3770000  43.2180000  26.5820000
  75.3100000  32.3750000  41.7810000  65.0370000  35.5400000  25.3290000
  74.1120000  29.5560000  28.9340000  73.6460000  37.9900000  39.0000000
  63.9700000  44.0940000  39.3310000  64.3190000  42.5630000  39.6340000
  65.4930000  43.6410000  39.5110000  74.0530000  42.9530000  27.2420000
  72.6150000  43.6270000  27.0420000  73.7670000  43.8640000  25.9570000
  75.6230000  31.6100000  41.2550000  74.4810000  32.1340000  42.2460000
  75.9940000  32.6210000  42.4400000  64.9970000  34.9220000  26.0880000
  65.7340000  35.2480000  24.7070000  64.1720000  35.5490000  24.8680000
  74.2900000  29.7910000  29.8690000  73.7750000  28.6370000  28.8870000
  74.9410000  29.6280000  28.4160000  73.8300000  37.2930000  38.3350000
  74.4710000  38.2070000  39.4840000  72.9710000  37.6680000  39.6320000
  62.6750000  33.3400000   8.6740000  61.7680000  33.1460000   7.6540000
  62.9150000  32.2530000   9.5270000  59.0630000  40.1380000   4.9250000
  61.5980000  34.2280000   6.8020000  60.5760000  37.5460000   7.3780000
  62.0760000  38.0840000   7.2300000  63.5980000  32.4980000  10.1860000
  57.5390000  37.8400000   4.7600000  59.5790000  40.9330000   4.9940000
  60.7280000  34.1540000   5.7340000  62.0860000  35.0290000   6.9560000
  60.0240000  32.9730000   5.4610000  59.7070000  31.1010000   6.1880000
  60.6040000  34.9130000   5.1770000  55.7870000  39.0900000   3.5590000
  55.4140000  38.0760000   2.6570000  54.8580000  40.0470000   4.0700000
  56.4210000  37.3640000   1.9870000  60.5000000  34.1250000   2.7040000
  54.7540000  40.2490000   5.4380000  54.0840000  40.8340000   3.2160000
  56.0760000  36.2780000   1.2150000  57.3300000  37.6280000   2.0650000
  53.7420000  33.7140000  -0.0610000  61.2980000  33.8650000   3.1490000
  53.2290000  41.7920000   3.7330000  55.2670000  39.7090000   6.0280000
  53.9140000  41.2230000   5.9670000  54.1450000  40.7120000   2.2750000
  59.4110000  35.2720000   0.8970000  57.0380000  35.3320000   0.5080000
  61.4230000  35.1990000   1.2390000  53.1480000  41.9950000   5.1100000
  52.6940000  42.3130000   3.1470000  53.8660000  41.3570000   6.9060000
  59.1800000  36.0120000  -0.3460000  58.1770000  34.8460000   1.4000000
  56.0820000  34.2480000   0.0310000  57.8060000  36.0310000  -0.6140000
  52.3070000  42.9960000   5.5180000  60.5780000  34.9110000   1.5630000
  56.4210000  33.0380000  -0.5450000  58.0860000  34.0900000   2.5480000
  54.7550000  34.5980000   0.2990000  57.2900000  36.6530000  -1.7350000
  54.7460000  35.8790000   1.0280000  52.2190000  43.2520000   6.9170000
  54.0700000  32.5090000  -0.6610000  60.9850000  36.6240000  -1.0720000
  55.4040000  32.1470000  -0.8940000  57.3310000  32.8160000  -0.7010000
  59.2600000  33.7120000   3.2100000  57.2380000  33.8290000   2.8860000
  53.7410000  36.6490000   1.6050000  56.3540000  36.6510000  -1.9000000
  58.1700000  37.2880000  -2.6230000  60.0490000  36.6340000  -1.2350000
  53.0970000  43.5190000   7.2570000  51.5740000  43.9720000   7.0770000
  51.9230000  42.4410000   7.3800000  57.6420000  29.2060000  -0.8220000
  59.1640000  32.8640000   4.3480000  55.7140000  30.8900000  -1.4780000
  54.0740000  37.7280000   2.4240000  52.8330000  33.9360000   0.1020000
  57.6820000  37.9380000  -3.7720000  59.5470000  37.2670000  -2.3540000
  52.8280000  36.4390000   1.4420000  55.0080000  29.7180000  -1.0620000
  56.4560000  37.5520000  -4.3960000  57.0110000  30.6920000  -2.0500000
  58.1490000  31.8540000   4.3130000  53.3820000  38.2370000   2.8310000
  57.0620000  39.0180000   4.2050000  58.4300000  38.9730000  -4.4030000
  58.3100000  38.2170000  -6.2930000  58.0900000  30.9690000   3.2400000
  54.6440000  29.5140000   0.2650000  57.8940000  29.7490000  -1.5600000
  57.4180000  31.4770000  -3.1310000  54.7190000  28.7340000  -1.9980000
  57.8480000  40.1650000   4.2830000  57.1920000  31.7630000   5.3110000
  60.1880000  31.9060000   6.3400000  56.2450000  36.2700000  -4.8660000
  58.9370000  40.0370000  -3.6730000  55.4660000  38.5150000  -4.6060000
  58.6490000  38.9400000  -5.7780000  54.0900000  27.5530000  -1.6190000
  54.8360000  30.1800000   0.9140000  54.0040000  28.3480000   0.6470000
  56.8210000  32.1260000  -3.4850000  54.9540000  28.8690000  -2.9090000
  58.6710000  31.3290000  -3.6960000  56.9070000  35.6050000  -4.7190000
  59.1690000  29.5840000  -2.1480000  55.0770000  35.9350000  -5.5560000
  53.3750000  31.9150000  -0.9200000  56.1790000  30.8140000   5.2470000
  57.0080000  37.0540000   4.7160000  57.0730000  30.0370000   3.1560000
  58.7530000  31.0060000   2.5610000  61.0410000  31.9910000   7.4360000
  57.2280000  32.3590000   6.0510000  54.3110000  38.1960000  -5.2860000
  55.5900000  39.3980000  -4.2780000  58.7810000  37.7930000   5.3800000
  57.5410000  40.9740000   3.8900000  59.6650000  41.0510000  -4.2910000
  58.7850000  40.0750000  -2.7360000  59.3560000  39.9500000  -6.3960000
  60.1460000  37.6970000  -2.9540000  53.7320000  27.3570000  -0.2950000
  53.9070000  26.8820000  -2.2660000  53.6470000  38.8600000  -5.4250000
  59.5380000  30.3810000  -3.1990000  59.7670000  28.9250000  -1.8160000
  57.0340000  29.4440000   2.4150000  54.9450000  35.0510000  -5.8750000
  59.8630000  41.0070000  -5.6600000  55.5410000  30.7470000   5.9480000
  56.1050000  29.9650000   4.1550000  53.7490000  28.2230000   1.5540000
  61.1240000  31.2570000   8.0330000  59.5400000  38.9530000   5.4740000
  58.9330000  31.8790000  -4.4240000  59.1090000  36.9760000   5.7370000
  54.1120000  36.9100000  -5.7690000  60.0220000  41.7660000  -3.7780000
  59.4950000  39.9210000  -7.3360000  53.1280000  26.2270000   0.1910000
  60.7580000  30.3120000  -3.8480000  52.9410000  36.7240000  -6.4560000
  55.1090000  29.0420000   3.9580000  60.7660000  39.0350000   6.0890000
  60.5450000  41.9560000  -6.3830000  52.9230000  25.1490000  -0.7240000
  61.7170000  29.4340000  -3.3200000  60.9820000  43.0960000  -5.6720000
  54.1120000  28.9350000   4.9780000  61.2510000  37.8680000   6.7460000
  52.6410000  35.4180000  -6.9250000  52.5170000  24.3920000  -0.2520000
  53.7830000  24.8730000  -1.1030000  52.3260000  25.4410000  -1.4450000
  61.3800000  28.5150000  -3.3670000  61.8940000  29.6690000  -2.3850000
  62.5460000  29.5050000  -3.8380000  51.7760000  35.4270000  -7.3860000
  61.3720000  43.7420000  -6.2970000  60.2190000  43.5050000  -5.2120000
  53.4310000  28.2870000   4.7030000  53.6930000  29.8110000   5.1190000
  54.5290000  28.6350000   5.8120000  63.2280000  31.4880000   9.0010000
  61.4340000  37.1710000   6.0810000  62.0860000  32.0120000   9.9920000
  52.6010000  34.7990000  -6.1660000  61.6580000  42.8300000  -5.0120000
  53.3390000  35.1260000  -7.5470000  66.9560000  30.3730000  12.2790000
  62.3030000  30.0260000  20.2820000  59.1200000  25.2100000  15.4030000
  60.2880000  27.6140000  14.5080000  64.8680000  31.3900000  12.4310000
  58.5240000  25.5020000  14.6820000  58.7150000  24.4530000  15.8750000
  59.9810000  24.9340000  15.0240000  60.9170000  28.7950000  14.1290000
  60.1050000  26.9440000  13.8610000  64.0910000  29.8100000  14.5670000
  65.1300000  31.9410000  11.7030000  63.2090000  30.7530000  14.0770000
  61.1510000  28.9310000  13.2180000  63.8400000  29.2680000  15.3050000
  61.9120000  30.9510000  14.6490000  61.6020000  32.2080000  15.2330000
  61.2060000  29.7790000  15.0650000  62.6180000  33.0990000  15.5820000
  60.2670000  32.5700000  15.4660000  60.8420000  29.5750000  16.3920000
  64.2880000  31.0300000  19.3670000  62.2800000  34.3100000  16.1580000
  63.5290000  32.8770000  15.4260000  59.9400000  33.7750000  16.0660000
  63.0190000  32.1870000  12.6420000  60.2010000  28.4090000  16.7740000
  61.0340000  30.2410000  17.0410000  63.2710000  30.0980000  19.2830000
  64.9510000  31.0670000  18.6880000  60.9520000  34.6590000  16.4260000
  63.2350000  35.3930000  16.6350000  59.0310000  33.9970000  16.2290000
  59.9290000  27.4180000  15.8320000  59.9470000  28.2840000  17.6810000
  65.9640000  28.9860000  14.3110000  65.3780000  36.0730000  15.7810000
  64.0040000  36.0930000  15.5130000  62.2740000  36.3400000  17.3420000
  64.3750000  34.9070000  17.5270000  59.3260000  26.2880000  16.3180000
  66.2460000  36.6950000  14.8920000  63.4870000  36.7140000  14.3920000
  62.6180000  37.4250000  18.1140000  60.9440000  35.9400000  17.1550000
  64.2840000  34.1510000  18.6750000  65.6090000  35.3330000  17.0240000
  60.3100000  28.9960000  21.1050000  65.7450000  37.3290000  13.7730000
  67.1820000  36.6850000  15.0550000  64.3670000  37.3490000  13.5040000
  62.5520000  36.7120000  14.2270000  61.6120000  38.1370000  18.7840000
  63.4350000  33.8900000  19.0130000  59.9380000  36.7100000  17.7320000
  63.5280000  37.6890000  18.1920000  65.4580000  33.7730000  19.3370000
  66.7760000  34.9720000  17.6900000  60.7270000  28.6960000  21.9390000
  59.6280000  28.3480000  20.8300000  59.8910000  29.8720000  21.2460000
  64.9830000  40.1370000  13.3910000  61.9850000  39.1510000  19.6860000
  63.8800000  37.9990000  12.3550000  60.2720000  37.7890000  18.5510000
  59.0260000  36.5000000  17.5690000  65.3620000  32.9250000  20.4750000
  66.6970000  34.1870000  18.8310000  67.6210000  35.2610000  17.3660000
  61.0560000  40.1080000  20.1970000  64.6280000  39.0340000  11.7240000
  63.2600000  39.0790000  20.3320000  62.6540000  37.6130000  11.7310000
  63.4260000  32.4200000  22.1770000  66.2220000  33.0340000  21.5880000
  64.3470000  31.9150000  20.4400000  67.4950000  33.9260000  19.2760000
  62.4430000  36.3310000  11.2600000  60.2820000  40.8950000  19.3430000
  61.6640000  38.5760000  11.5210000  64.8470000  39.0010000  10.3490000
  60.9510000  40.3100000  21.5650000  63.7370000  37.9010000  20.8870000
  63.6150000  31.5380000  12.9960000  63.3900000  31.8250000  21.4380000
  65.1350000  40.0980000  12.4540000  64.0450000  40.2260000  20.4100000
  66.3860000  31.9670000  22.4670000  66.9250000  34.2150000  21.8610000
  59.4270000  41.8530000  19.8600000  60.3430000  40.7730000  18.4020000
  60.1120000  41.2840000  22.0940000  61.4650000  39.7700000  22.1550000
  64.5080000  38.2780000   9.8340000  65.8630000  41.1120000  11.8360000
  66.3430000  37.7590000  13.1730000  65.5530000  40.0120000   9.7310000
  67.7960000  34.2890000  22.9290000  59.5800000  38.2980000  18.9580000
  67.2390000  32.0520000  23.5630000  63.2060000  37.1150000  20.8430000
  60.5090000  38.2570000  10.8410000  61.7880000  39.4590000  11.8490000
  62.3770000  30.8750000  21.3740000  59.5730000  31.9760000  15.2070000
  65.2610000  40.2000000  21.0520000  63.1050000  35.6660000  11.4080000
  61.2750000  35.9970000  10.5710000  63.7390000  41.0350000  20.0170000
  65.3670000  29.6460000  13.9790000  66.8010000  34.9740000  21.3040000
  64.9790000  37.8540000  21.5070000  65.9040000  31.1620000  22.3150000
  59.3460000  42.0560000  21.2370000  58.8920000  42.3740000  19.2740000
  65.7770000  40.9940000  21.1210000  66.0610000  41.0680000  10.4670000
  65.6920000  39.9820000   8.7910000  66.2200000  41.8270000  12.3490000
  60.0640000  41.4180000  23.0330000  67.9650000  33.2070000  23.7810000
  61.7390000  30.8080000  22.0750000  60.3100000  36.9710000  10.3580000
  59.8440000  38.9210000  10.7020000  61.1420000  35.1120000  10.2520000
  65.7360000  30.4420000  12.9280000  65.3060000  37.0370000  21.8640000
  67.3210000  31.3180000  24.1600000  65.7370000  39.0150000  21.6010000
  63.2320000  29.5050000  18.5420000  68.2840000  35.0900000  23.0830000
  58.5050000  43.0570000  21.6450000  66.7420000  42.0170000   9.7440000
  68.8730000  33.4010000  24.8010000  61.3070000  29.1030000  20.0850000
  59.1390000  36.7850000   9.6710000  66.9640000  39.0960000  22.2160000
  58.4160000  43.3130000  23.0440000  67.1790000  43.1570000  10.4550000
  69.1130000  32.3140000  25.6540000  58.8390000  35.4790000   9.2020000
  67.9150000  29.4950000  12.8070000  67.4490000  37.9290000  22.8730000
  57.7720000  44.0330000  23.2040000  58.1210000  42.5020000  23.5070000
  59.2950000  43.5800000  23.3840000  67.8560000  42.8910000  11.1150000
  66.4170000  43.5660000  10.9150000  67.5700000  43.8030000   9.8300000
  69.4260000  31.5490000  25.1280000  68.2840000  32.0730000  26.1190000
  69.7960000  32.5600000  26.3130000  58.7990000  34.8610000   9.9610000
  59.5370000  35.1870000   8.5800000  57.9740000  35.4880000   8.7410000
  68.0920000  29.7300000  13.7420000  67.5780000  28.5760000  12.7600000
  68.7430000  29.5670000  12.2890000  67.6320000  37.2320000  22.2080000
  68.2730000  38.1450000  23.3570000  66.7730000  37.6070000  23.5050000
  65.2290000  47.8370000   8.6740000  64.3220000  47.6420000   7.6540000
  65.4690000  46.7490000   9.5270000  61.6170000  54.6350000   4.9250000
  64.1520000  48.7240000   6.8020000  63.1300000  52.0420000   7.3780000
  64.6300000  52.5800000   7.2300000  66.1530000  46.9950000  10.1860000
  60.0930000  52.3370000   4.7600000  62.1330000  55.4290000   4.9940000
  63.2820000  48.6500000   5.7340000  64.6400000  49.5250000   6.9560000
  62.5790000  47.4690000   5.4610000  62.2610000  45.5970000   6.1880000
  63.1580000  49.4090000   5.1770000  58.3410000  53.5860000   3.5590000
  57.9690000  52.5720000   2.6570000  57.4130000  54.5430000   4.0700000
  58.9750000  51.8600000   1.9870000  63.0540000  48.6220000   2.7040000
  57.3080000  54.7450000   5.4380000  56.6390000  55.3300000   3.2160000
  58.6300000  50.7750000   1.2150000  59.8840000  52.1240000   2.0650000
  56.2970000  48.2100000  -0.0610000  63.8520000  48.3610000   3.1490000
  55.7830000  56.2880000   3.7330000  57.8220000  54.2060000   6.0280000
  56.4680000  55.7190000   5.9670000  56.6990000  55.2080000   2.2750000
  61.9650000  49.7690000   0.8970000  59.5920000  49.8280000   0.5080000
  63.9770000  49.6960000   1.2390000  55.7020000  56.4910000   5.1100000
  55.2480000  56.8090000   3.1470000  56.4200000  55.8530000   6.9060000
  61.7340000  50.5080000  -0.3460000  60.7320000  49.3430000   1.4000000
  58.6360000  48.7450000   0.0310000  60.3610000  50.5280000  -0.6140000
  54.8620000  57.4920000   5.5180000  63.1320000  49.4070000   1.5630000
  58.9750000  47.5340000  -0.5450000  60.6400000  48.5860000   2.5480000
  57.3090000  49.0940000   0.2990000  59.8440000  51.1490000  -1.7350000
  57.3000000  50.3750000   1.0280000  54.7730000  57.7480000   6.9170000
  56.6240000  47.0050000  -0.6610000  63.5390000  51.1200000  -1.0720000
  57.9580000  46.6430000  -0.8940000  59.8850000  47.3120000  -0.7010000
  61.8150000  48.2080000   3.2100000  59.7920000  48.3250000   2.8860000
  56.2950000  51.1450000   1.6050000  58.9080000  51.1470000  -1.9000000
  60.7240000  51.7840000  -2.6230000  62.6030000  51.1300000  -1.2350000
  55.6520000  58.0150000   7.2570000  54.1290000  58.4680000   7.0770000
  54.4780000  56.9370000   7.3800000  60.1960000  43.7030000  -0.8220000
  61.7180000  47.3600000   4.3480000  58.2680000  45.3860000  -1.4780000
  56.6280000  52.2240000   2.4240000  55.3870000  48.4320000   0.1020000
  60.2360000  52.4340000  -3.7720000  62.1010000  51.7640000  -2.3540000
  55.3830000  50.9360000   1.4420000  57.5620000  44.2140000  -1.0620000
  59.0100000  52.0480000  -4.3960000  59.5650000  45.1880000  -2.0500000
  60.7040000  46.3510000   4.3130000  55.9370000  52.7330000   2.8310000
  59.6160000  53.5140000   4.2050000  60.9850000  53.4690000  -4.4030000
  60.8650000  52.7130000  -6.2930000  60.6440000  45.4650000   3.2400000
  57.1980000  44.0100000   0.2650000  60.4480000  44.2450000  -1.5600000
  59.9720000  45.9730000  -3.1310000  57.2730000  43.2300000  -1.9980000
  60.4020000  54.6610000   4.2830000  59.7460000  46.2600000   5.3110000
  62.7420000  46.4020000   6.3400000  58.8000000  50.7660000  -4.8660000
  61.4910000  54.5330000  -3.6730000  58.0200000  53.0110000  -4.6060000
  61.2040000  53.4360000  -5.7780000  56.6440000  42.0490000  -1.6190000
  57.3900000  44.6760000   0.9140000  56.5580000  42.8440000   0.6470000
  59.3750000  46.6220000  -3.4850000  57.5080000  43.3660000  -2.9090000
  61.2250000  45.8250000  -3.6960000  59.4610000  50.1010000  -4.7190000
  61.7230000  44.0810000  -2.1480000  57.6310000  50.4320000  -5.5560000
  55.9290000  46.4110000  -0.9200000  58.7330000  45.3100000   5.2470000
  59.5620000  51.5500000   4.7160000  59.6280000  44.5330000   3.1560000
  61.3080000  45.5020000   2.5610000  63.5950000  46.4870000   7.4360000
  59.7830000  46.8550000   6.0510000  56.8650000  52.6920000  -5.2860000
  58.1440000  53.8940000  -4.2780000  61.3350000  52.2890000   5.3800000
  60.0950000  55.4700000   3.8900000  62.2190000  55.5470000  -4.2910000
  61.3390000  54.5720000  -2.7360000  61.9100000  54.4470000  -6.3960000
  62.7000000  52.1940000  -2.9540000  56.2860000  41.8530000  -0.2950000
  56.4610000  41.3790000  -2.2660000  56.2010000  53.3560000  -5.4250000
  62.0920000  44.8770000  -3.1990000  62.3210000  43.4210000  -1.8160000
  59.5890000  43.9400000   2.4150000  57.4990000  49.5470000  -5.8750000
  62.4170000  55.5030000  -5.6600000  58.0950000  45.2430000   5.9480000
  58.6590000  44.4620000   4.1550000  56.3030000  42.7190000   1.5540000
  63.6780000  45.7530000   8.0330000  62.0940000  53.4500000   5.4740000
  61.4870000  46.3760000  -4.4240000  61.6630000  51.4720000   5.7370000
  56.6660000  51.4060000  -5.7690000  62.5760000  56.2620000  -3.7780000
  62.0490000  54.4170000  -7.3360000  55.6820000  40.7230000   0.1910000
  63.3120000  44.8080000  -3.8480000  55.4960000  51.2200000  -6.4560000
  57.6630000  43.5380000   3.9580000  63.3210000  53.5310000   6.0890000
  63.0990000  56.4520000  -6.3830000  55.4770000  39.6450000  -0.7240000
  64.2710000  43.9300000  -3.3200000  63.5360000  57.5920000  -5.6720000
  56.6660000  43.4310000   4.9780000  63.8050000  52.3640000   6.7460000
  55.1960000  49.9140000  -6.9250000  55.0710000  38.8880000  -0.2520000
  56.3380000  39.3690000  -1.1030000  54.8800000  39.9370000  -1.4450000
  63.9340000  43.0110000  -3.3670000  64.4490000  44.1650000  -2.3850000
  65.1000000  44.0020000  -3.8380000  54.3310000  49.9230000  -7.3860000
  63.9260000  58.2380000  -6.2970000  62.7740000  58.0010000  -5.2120000
  55.9850000  42.7830000   4.7030000  56.2480000  44.3070000   5.1190000
  57.0830000  43.1310000   5.8120000  65.7820000  45.9840000   9.0010000
  63.9890000  51.6670000   6.0810000  64.6400000  46.5080000   9.9920000
  55.1550000  49.2960000  -6.1660000  64.2120000  57.3260000  -5.0120000
  55.8930000  49.6220000  -7.5470000  65.1650000   7.3610000  20.9990000
  66.0720000   7.5560000  22.0200000  64.9250000   8.4490000  20.1460000
  74.6100000  -1.0900000  25.9410000  66.7990000   8.7110000  22.2380000
  65.7540000   8.6900000  19.6810000  64.2410000   8.2030000  19.4880000
  64.6120000   9.2140000  20.6730000  73.0860000   0.4530000  24.2350000
  70.8050000  11.2580000  27.2590000  69.7500000   9.7330000  26.4340000
  66.7160000   9.4450000  21.6410000  67.8150000   7.7290000  24.2130000
  73.6950000  -0.0100000  27.3980000  66.5420000   6.8370000  26.5250000
  68.6760000   7.8380000  25.3250000  68.5790000   6.9900000  26.4640000
  72.9810000   0.6550000  25.6030000  69.7540000   6.6120000  27.1250000
  67.3400000   6.5760000  26.9700000  67.1120000   6.5480000  23.9390000
  67.6520000   8.7960000  23.3340000  69.6620000   5.8560000  28.2740000
  70.5100000   3.0740000  27.6080000  67.2610000   5.7910000  28.1100000
  70.1980000  11.4950000  30.4960000  68.7770000   0.5630000  24.7480000
  72.5720000   0.9920000  23.6460000  66.2420000   6.4740000  22.8720000
  67.2360000   5.7890000  24.4960000  68.4290000   5.4290000  28.7770000
  70.8020000   5.3700000  29.1650000  66.4170000   5.5020000  28.4350000
  68.3000000   1.7480000  24.2000000  68.2610000  -0.2310000  24.6800000
  65.7540000   5.6730000  22.7180000  73.0850000   6.1040000  29.3740000
  71.7580000   6.4530000  29.6420000  70.0330000   4.6700000  30.2880000
  71.7640000   4.4230000  28.4590000  67.0730000   1.6670000  23.5850000
  74.0970000   6.9880000  29.7350000  71.4190000   7.6640000  30.2180000
  70.5500000   4.0490000  31.4080000  68.6600000   4.6900000  30.0200000
  71.4190000   3.3380000  27.6870000  73.0940000   4.8230000  28.6460000
  66.5890000   2.8340000  22.9280000  73.7700000   8.1930000  30.3350000
  75.0070000   6.7660000  29.5710000  72.4360000   8.5550000  30.5670000
  70.5090000   7.8860000  30.3750000  69.6700000   3.4140000  32.2970000
  71.4850000   4.0510000  31.5740000  67.7910000   4.0680000  30.9080000
  70.6020000   6.8730000  26.7870000  72.4250000   2.6260000  27.0160000
  74.0990000   4.0530000  28.0680000  67.2640000   3.1560000  22.2960000
  66.4050000   3.5310000  23.5920000  65.7640000   2.6180000  22.4440000
  72.8860000  11.8320000  32.5830000  72.1260000   9.8120000  31.1510000
  70.1570000   2.7640000  33.4450000  68.2930000   3.4340000  32.0280000
  66.8550000   4.0780000  30.7460000  72.0530000   1.6120000  26.1150000
  73.7660000   2.9740000  27.2490000  75.0110000   4.2630000  28.2310000
  70.8290000  10.0100000  31.7230000  72.8320000  10.9840000  30.7350000
  69.4090000   1.7290000  34.0760000  71.3840000   3.1500000  34.0690000
  70.2990000  -0.2720000  25.7840000  69.6900000   8.8470000  25.3610000
  70.7780000   1.6840000  25.4690000  70.8320000   3.6480000  24.9570000
  71.5940000   4.4320000  34.5400000  70.4220000   9.2250000  32.8040000
  69.9460000  10.9530000  31.2340000  73.1960000  11.1880000  29.4090000
  72.3740000   2.1870000  34.2800000  68.9030000   0.6650000  33.3460000
  69.1900000   1.7620000  35.4520000  69.9920000   0.5370000  25.3900000
  73.1210000  11.9680000  31.6720000  70.6480000   8.9380000  24.3620000
  70.3010000   2.8610000  24.9130000  73.7550000  -0.1320000  26.4580000
  73.5280000   2.5060000  34.9590000  71.0180000   8.5760000  33.1590000
  72.7630000   4.7660000  35.2290000  70.9330000   5.0970000  34.3930000
  74.4650000   8.7870000  30.5940000  73.9260000  -0.5210000  23.7070000
  73.0030000  10.5220000  28.7600000  73.7490000  13.1490000  31.2930000
  68.1750000  -0.3490000  33.9650000  72.2500000   1.3040000  33.9510000
  68.4840000   0.7510000  36.0700000  69.0550000   0.6260000  32.4090000
  69.1690000   9.3730000  33.3700000  69.5290000   2.4850000  35.9670000
  68.6710000  11.1170000  31.8220000  67.6940000   3.0040000  32.6270000
  73.8360000  12.3540000  29.0260000  69.0860000   9.6960000  27.1130000
  70.7660000  10.6650000  26.5180000  70.6110000   8.3430000  23.6230000
  71.6610000   9.8880000  24.4260000  68.1330000   9.6010000  23.4860000
  69.0580000   2.9090000  24.2940000  74.4570000   2.4650000  26.8430000
  73.7280000   3.7920000  35.4420000  74.1930000   1.8420000  35.0990000
  75.1450000  -1.6110000  26.5270000  74.6910000  -1.2930000  24.5630000
  72.8950000   5.6510000  35.5490000  73.9330000  13.8190000  31.9400000
  68.3450000   0.7810000  37.0090000  67.9770000  -0.3050000  35.3340000
  67.8170000  -1.0640000  33.4520000  68.3020000  10.3210000  32.8720000
  68.9070000   8.8220000  34.0980000  68.0730000  11.7770000  31.4900000
  74.1080000  13.3450000  29.9680000  74.0910000  12.4790000  28.1200000
  72.2980000   9.9550000  23.7250000  71.7340000  10.7370000  25.5190000
  68.7310000   3.7260000  23.9370000  73.9740000  -0.6550000  22.7670000
  74.8980000   3.9780000  36.1300000  72.7310000  11.6600000  25.7150000
  67.2950000  -1.2540000  36.0570000  67.0820000  10.3900000  33.5220000
  74.7110000  14.4750000  29.4830000  75.5320000  -2.2940000  24.1560000
  75.1980000   5.2840000  36.5990000  73.7280000  11.7670000  24.6950000
  66.8580000  -2.3940000  35.3450000  66.1230000  11.2680000  32.9930000
  74.9170000  15.5530000  30.3980000  75.6210000  -2.5500000  22.7560000
  74.5010000   5.5760000  37.2210000  74.1460000  10.8910000  24.5550000
  76.2650000  -3.2700000  22.5960000  74.4090000  12.4150000  24.9710000
  75.2390000   5.9020000  35.8390000  76.0630000   5.2750000  37.0600000
  66.4680000  -3.0400000  35.9710000  67.6200000  -2.8030000  34.8860000
  66.1820000  -2.1280000  34.6860000  65.2940000  11.1960000  33.5120000
  65.9450000  11.0330000  32.0590000  66.4600000  12.1870000  33.0410000
  74.0560000  15.8290000  30.7770000  75.5130000  15.2610000  31.1190000
  75.3230000  16.3100000  29.9260000  75.9160000  -1.7390000  22.2940000
  74.7420000  -2.8170000  22.4170000  73.3110000  12.0670000  23.8610000
  69.8490000  13.2420000  36.0570000  70.5310000  14.1910000  35.3340000
  69.4120000  12.1020000  35.3450000  71.0380000  15.2480000  36.0700000
  70.7290000  14.1470000  33.9650000  68.7360000  12.3680000  34.6860000
  70.1750000  11.6930000  34.8860000  69.0220000  11.4560000  35.9710000
  71.7440000  16.2580000  35.4520000  70.8990000  15.2770000  37.0090000
  71.4570000  15.1610000  33.3460000  70.3720000  13.4320000  33.4520000
  71.9630000  16.2250000  34.0760000  72.0830000  16.9810000  35.9670000
  71.6090000  15.1230000  32.4090000  72.7120000  17.2600000  33.4450000
  72.2240000  17.9100000  32.2970000  73.9380000  17.6460000  34.0690000
  73.1040000  18.5450000  31.4080000  70.8470000  17.9310000  32.0280000
  74.1490000  18.9280000  34.5400000  74.9280000  16.6830000  34.2800000
  72.5880000  19.1670000  30.2880000  74.0400000  18.5470000  31.5740000
  70.3450000  18.5640000  30.9080000  70.2480000  17.5010000  32.6270000
  75.3170000  19.2630000  35.2290000  73.4870000  19.5930000  34.3930000
  76.0830000  17.0020000  34.9590000  74.8040000  15.8000000  33.9510000
  71.2140000  19.1860000  30.0200000  73.3560000  19.8660000  29.1650000
  69.4090000  18.5740000  30.7460000  76.2820000  18.2880000  35.4420000
  75.4490000  20.1470000  35.5490000  76.7470000  16.3380000  35.0990000
  70.9830000  19.9260000  28.7770000  72.2160000  20.3520000  28.2740000
  74.3120000  20.9500000  29.6420000  74.3180000  18.9200000  28.4590000
  77.4530000  18.4750000  36.1300000  69.8160000  20.2870000  28.1100000
  72.3080000  21.1080000  27.1250000  73.9730000  22.1600000  30.2180000
  75.6390000  20.6000000  29.3740000  73.9730000  17.8340000  27.6870000
  75.6480000  19.3190000  28.6460000  77.7530000  19.7800000  36.5990000
  69.8940000  21.0730000  26.9700000  68.9710000  19.9990000  28.4350000
  71.1340000  21.4860000  26.4640000  73.1560000  21.3690000  26.7870000
  74.9900000  23.0510000  30.5670000  73.0630000  22.3820000  30.3750000
  76.6520000  21.4840000  29.7350000  73.0640000  17.5700000  27.6080000
  74.9800000  17.1220000  27.0160000  76.6530000  18.5490000  28.0680000
  77.7930000  20.3990000  35.8390000  78.6180000  19.7710000  37.0600000
  77.0550000  20.0720000  37.2210000  69.0960000  21.3330000  26.5250000
  71.2300000  22.3340000  25.3250000  74.6800000  24.3080000  31.1510000
  76.3240000  22.6890000  30.3350000  77.5610000  21.2620000  29.5710000
  74.6070000  16.1080000  26.1150000  76.3200000  17.4700000  27.2490000
  77.5650000  18.7590000  28.2310000  72.2440000  23.3440000  25.3610000
  70.3700000  22.2250000  24.2130000  75.3860000  25.4800000  30.7350000
  73.3830000  24.5060000  31.7230000  77.0190000  23.2830000  30.5940000
  73.3320000  16.1800000  25.4690000  75.5360000  15.1510000  25.6030000
  77.0110000  16.9610000  26.8430000  72.3040000  24.2290000  26.4340000
  73.2020000  23.4350000  24.3620000  70.2060000  23.2920000  23.3340000
  69.6660000  21.0440000  23.9390000  75.7500000  25.6840000  29.4090000
  75.6750000  26.4640000  31.6720000  72.5000000  25.4490000  31.2340000
  72.9760000  23.7210000  32.8040000  72.8550000  17.3580000  24.9130000
  72.5460000  15.0330000  25.3900000  75.6400000  14.9490000  24.2350000
  76.3100000  14.3640000  26.4580000  73.3210000  25.1610000  26.5180000
  71.6410000  24.1920000  27.1130000  74.2150000  24.3840000  24.4260000
  73.1650000  22.8390000  23.6230000  70.6870000  24.0970000  23.4860000
  69.3530000  23.2070000  22.2380000  69.7900000  20.2850000  24.4960000
  68.7960000  20.9700000  22.8720000  76.3900000  26.8500000  29.0260000
  75.5580000  25.0180000  28.7600000  76.3040000  27.6450000  31.2930000
  75.4400000  26.3290000  32.5830000  71.2250000  25.6140000  31.8220000
  72.7520000  25.9920000  30.4960000  71.7230000  23.8690000  33.3700000
  73.5730000  23.0720000  33.1590000  71.6130000  17.4050000  24.2940000
  73.3860000  18.1440000  24.9570000  71.3310000  15.0600000  24.7480000
  72.8530000  14.2240000  25.7840000  77.1650000  13.4060000  25.9410000
  76.2490000  14.4860000  27.3980000  76.4800000  13.9750000  23.7070000
  75.1270000  15.4890000  23.6460000  74.2890000  25.2330000  25.5190000
  73.3600000  25.7540000  27.2590000  74.8530000  24.4510000  23.7250000
  68.6260000  22.0520000  22.0200000  69.2700000  23.9410000  21.6410000
  68.3080000  20.1690000  22.7180000  76.6450000  26.9750000  28.1200000
  76.6620000  27.8410000  29.9680000  76.4870000  28.3160000  31.9400000
  70.8560000  24.8170000  32.8720000  70.6270000  26.2730000  31.4900000
  71.4610000  23.3190000  34.0980000  70.8540000  16.2450000  24.2000000
  71.2850000  18.2220000  23.9370000  70.8150000  14.2650000  24.6800000
  77.2460000  13.2030000  24.5630000  77.7000000  12.8850000  26.5270000
  76.5280000  13.8410000  22.7670000  75.2850000  26.1560000  25.7150000
  67.7190000  21.8580000  20.9990000  77.2660000  28.9710000  29.4830000
  69.6360000  24.8860000  33.5220000  69.6280000  16.1630000  23.5850000
  78.0860000  12.2020000  24.1560000  76.2820000  26.2630000  24.6950000
  67.4790000  22.9450000  20.1460000  77.4710000  30.0490000  30.3980000
  68.6770000  25.7640000  32.9930000  69.1430000  17.3300000  22.9280000
  78.1750000  11.9460000  22.7560000  75.8650000  26.5630000  23.8610000
  76.9630000  26.9110000  24.9710000  76.7000000  25.3870000  24.5550000
  67.1660000  23.7100000  20.6730000  66.7960000  22.7000000  19.4880000
  68.3080000  23.1860000  19.6810000  78.0680000  29.7570000  31.1190000
  76.6110000  30.3250000  30.7770000  77.8770000  30.8060000  29.9260000
  69.0140000  26.6830000  33.0410000  67.8480000  25.6930000  33.5120000
  68.5000000  25.5290000  32.0590000  69.8180000  17.6520000  22.2960000
  68.9590000  18.0270000  23.5920000  68.3180000  17.1140000  22.4440000
  78.4710000  12.7570000  22.2940000  77.2960000  11.6790000  22.4170000
  78.8200000  11.2260000  22.5960000  76.0470000  13.3030000  52.1840000
  76.7290000  14.2530000  51.4610000  75.6100000  12.1630000  51.4720000
  77.2360000  15.3090000  52.1970000  76.9270000  14.2080000  50.0920000
  74.9340000  12.4290000  50.8130000  76.3720000  11.7540000  51.0130000
  75.2200000  11.5180000  52.0980000  77.9420000  16.3190000  51.5790000
  77.0970000  15.3380000  53.1360000  77.6550000  15.2220000  49.4730000
  76.5690000  13.4930000  49.5790000  78.1610000  16.2860000  50.2030000
  78.2810000  17.0420000  52.0940000  77.8070000  15.1840000  48.5360000
  78.9090000  17.3220000  49.5720000  78.4220000  17.9710000  48.4240000
  80.1360000  17.7070000  50.1960000  79.3020000  18.6060000  47.5350000
  77.0440000  17.9920000  48.1550000  80.3460000  18.9890000  50.6670000
  81.1260000  16.7440000  50.4070000  78.7850000  19.2280000  46.4150000
  80.2370000  18.6080000  47.7010000  76.5430000  18.6250000  47.0350000
  76.4460000  17.5620000  48.7540000  81.5150000  19.3240000  51.3560000
  79.6850000  19.6550000  50.5200000  82.2800000  17.0630000  51.0860000
  81.0020000  15.8620000  50.0780000  77.4120000  19.2470000  46.1470000
  79.5540000  19.9270000  45.2920000  75.6070000  18.6350000  46.8730000
  82.4800000  18.3500000  51.5690000  81.6470000  20.2090000  51.6760000
  82.9450000  16.3990000  51.2260000  77.1810000  19.9870000  44.9040000
  78.4140000  20.4130000  44.4010000  80.5100000  21.0110000  45.7690000
  80.5160000  18.9810000  44.5860000  83.6500000  18.5360000  52.2570000
  76.0130000  20.3490000  44.2370000  78.5060000  21.1690000  43.2520000
  80.1710000  22.2210000  46.3450000  81.8370000  20.6610000  45.5010000
  80.1710000  17.8960000  43.8140000  81.8460000  19.3800000  44.7730000
  83.9500000  19.8410000  52.7260000  76.0920000  21.1340000  43.0970000
  75.1690000  20.0600000  44.5620000  77.3310000  21.5480000  42.5910000
  79.3540000  21.4300000  42.9140000  81.1880000  23.1120000  46.6940000
  79.2610000  22.4430000  46.5020000  82.8490000  21.5450000  45.8620000
  79.2620000  17.6310000  43.7350000  81.1770000  17.1840000  43.1430000
  82.8510000  18.6110000  44.1950000  83.9900000  20.4600000  51.9660000
  84.8150000  19.8320000  53.1870000  83.2530000  20.1330000  53.3480000
  75.2940000  21.3950000  42.6520000  77.4270000  22.3950000  41.4520000
  80.8780000  24.3700000  47.2780000  82.5220000  22.7500000  46.4620000
  83.7590000  21.3240000  45.6980000  80.8040000  16.1690000  42.2420000
  82.5170000  17.5310000  43.3760000  83.7630000  18.8200000  44.3580000
  78.4420000  23.4050000  41.4880000  76.5670000  22.2860000  40.3400000
  81.5840000  25.5410000  46.8620000  79.5810000  24.5670000  47.8500000
  83.2170000  23.3440000  46.7210000  79.5300000  16.2410000  41.5950000
  81.7330000  15.2120000  41.7300000  83.2090000  17.0230000  42.9700000
  78.5020000  24.2900000  42.5610000  79.4000000  23.4960000  40.4890000
  76.4030000  23.3530000  39.4610000  75.8640000  21.1060000  40.0660000
  81.9480000  25.7460000  45.5360000  81.8730000  26.5250000  47.7990000
  78.6980000  25.5100000  47.3610000  79.1740000  23.7820000  48.9310000
  79.0530000  17.4190000  41.0400000  78.7440000  15.0940000  41.5170000
  81.8380000  15.0100000  40.3620000  82.5070000  14.4250000  42.5850000
  79.5180000  25.2220000  42.6450000  77.8380000  24.2530000  43.2390000
  80.4130000  24.4460000  40.5530000  79.3630000  22.9000000  39.7500000
  76.8850000  24.1580000  39.6130000  75.5510000  23.2680000  38.3650000
  75.9880000  20.3460000  40.6230000  74.9940000  21.0310000  38.9990000
  82.5880000  26.9110000  45.1530000  81.7550000  25.0790000  44.8870000
  82.5010000  27.7060000  47.4200000  81.6380000  26.3900000  48.7100000
  77.4220000  25.6750000  47.9490000  78.9500000  26.0530000  46.6230000
  77.9210000  23.9300000  49.4970000  79.7700000  23.1340000  49.2850000
  77.8100000  17.4660000  40.4200000  79.5840000  18.2050000  41.0840000
  77.5290000  15.1210000  40.8750000  79.0510000  14.2860000  41.9110000
  83.3620000  13.4680000  42.0680000  82.4470000  14.5470000  43.5250000
  82.6780000  14.0360000  39.8340000  81.3240000  15.5500000  39.7730000
  80.4860000  25.2940000  41.6460000  79.5570000  25.8160000  43.3860000
  81.0500000  24.5130000  39.8520000  74.8240000  22.1130000  38.1470000
  75.4680000  24.0020000  37.7680000  74.5060000  20.2310000  38.8450000
  82.8430000  27.0360000  44.2470000  82.8600000  27.9020000  46.0950000
  82.6850000  28.3770000  48.0670000  77.0540000  24.8790000  48.9990000
  76.8250000  26.3350000  47.6170000  77.6590000  23.3800000  50.2250000
  77.0520000  16.3060000  40.3270000  77.4830000  18.2830000  40.0640000
  77.0120000  14.3260000  40.8070000  83.4430000  13.2640000  40.6900000
  83.8970000  12.9460000  42.6540000  82.7260000  13.9020000  38.8940000
  81.4830000  26.2180000  41.8420000  73.9170000  21.9190000  37.1260000
  83.4630000  29.0320000  45.6100000  75.8340000  24.9470000  49.6490000
  75.8250000  16.2240000  39.7120000  84.2840000  12.2630000  40.2830000
  82.4800000  26.3240000  40.8220000  73.6770000  23.0070000  36.2730000
  83.6690000  30.1110000  46.5250000  74.8750000  25.8250000  49.1200000
  75.3410000  17.3910000  39.0550000  84.3730000  12.0070000  38.8830000
  82.0630000  26.6250000  39.9880000  83.1610000  26.9720000  41.0980000
  82.8980000  25.4490000  40.6820000  73.3640000  23.7710000  36.8000000
  72.9930000  22.7610000  35.6150000  74.5060000  23.2470000  35.8080000
  84.2650000  29.8180000  47.2460000  82.8080000  30.3860000  46.9040000
  84.0750000  30.8670000  46.0530000  75.2120000  26.7440000  49.1680000
  74.0460000  25.7540000  49.6390000  74.6970000  25.5900000  48.1860000
  76.0160000  17.7140000  38.4230000  75.1570000  18.0880000  39.7190000
  74.5160000  17.1750000  38.5710000  84.6680000  12.8180000  38.4210000
  83.4940000  11.7400000  38.5440000  85.0170000  11.2870000  38.7230000
  71.3620000   7.4230000  37.1260000  72.2700000   7.6170000  38.1470000
  71.1230000   8.5100000  36.2730000  80.8080000  -1.0290000  42.0680000
  72.9960000   8.7720000  38.3650000  71.9510000   8.7510000  35.8080000
  70.4390000   8.2640000  35.6150000  70.8090000   9.2750000  36.8000000
  79.2840000   0.5140000  40.3620000  77.0030000  11.3190000  43.3860000
  75.9470000   9.7940000  42.5610000  72.9140000   9.5060000  37.7680000
  74.0130000   7.7900000  40.3400000  79.8920000   0.0510000  43.5250000
  72.7400000   6.8980000  42.6520000  74.8730000   7.8990000  41.4520000
  74.7770000   7.0510000  42.5910000  79.1790000   0.7160000  41.7300000
  75.9510000   6.6730000  43.2520000  73.5380000   6.6380000  43.0970000
  73.3100000   6.6090000  40.0660000  73.8490000   8.8570000  39.4610000
  75.8600000   5.9170000  44.4010000  76.7080000   3.1350000  43.7350000
  73.4590000   5.8520000  44.2370000  76.3950000  11.5570000  46.6230000
  74.9740000   0.6240000  40.8750000  78.7700000   1.0540000  39.7730000
  72.4390000   6.5350000  38.9990000  73.4340000   5.8500000  40.6230000
  74.6260000   5.4910000  44.9040000  77.0000000   5.4310000  45.2920000
  72.6140000   5.5640000  44.5620000  74.4980000   1.8100000  40.3270000
  74.4580000  -0.1700000  40.8070000  71.9510000   5.7340000  38.8450000
  79.2830000   6.1650000  45.5010000  77.9550000   6.5150000  45.7690000
  76.2310000   4.7320000  46.4150000  77.9610000   4.4850000  44.5860000
  73.2710000   1.7280000  39.7120000  80.2950000   7.0490000  45.8620000
  77.6170000   7.7250000  46.3450000  76.7480000   4.1100000  47.5350000
  74.8570000   4.7510000  46.1470000  77.6170000   3.3990000  43.8140000
  79.2920000   4.8840000  44.7730000  72.7860000   2.8950000  39.0550000
  79.9680000   8.2540000  46.4620000  81.2040000   6.8270000  45.6980000
  78.6330000   8.6160000  46.6940000  76.7060000   7.9470000  46.5020000
  75.8680000   3.4750000  48.4240000  77.6830000   4.1120000  47.7010000
  73.9890000   4.1290000  47.0350000  76.8000000   6.9340000  42.9140000
  78.6230000   2.6870000  43.1430000  80.2970000   4.1140000  44.1950000
  73.4620000   3.2170000  38.4230000  72.6030000   3.5920000  39.7190000
  71.9620000   2.6790000  38.5710000  79.0840000  11.8940000  48.7100000
  78.3230000   9.8730000  47.2780000  76.3550000   2.8250000  49.5720000
  74.4900000   3.4960000  48.1550000  73.0530000   4.1390000  46.8730000
  78.2500000   1.6730000  42.2420000  79.9630000   3.0350000  43.3760000
  81.2090000   4.3240000  44.3580000  77.0270000  10.0710000  47.8500000
  79.0300000  11.0450000  46.8620000  75.6070000   1.7900000  50.2030000
  77.5810000   3.2110000  50.1960000  76.4960000  -0.2110000  41.9110000
  75.8880000   8.9090000  41.4880000  76.9760000   1.7450000  41.5950000
  77.0290000   3.7090000  41.0840000  77.7920000   4.4930000  50.6670000
  76.6200000   9.2860000  48.9310000  76.1440000  11.0140000  47.3610000
  79.3940000  11.2490000  45.5360000  78.5720000   2.2480000  50.4070000
  75.1010000   0.7260000  49.4730000  75.3880000   1.8230000  51.5790000
  76.1900000   0.5980000  41.5170000  79.3180000  12.0290000  47.7990000
  76.8460000   9.0000000  40.4890000  76.4980000   2.9230000  41.0400000
  79.9530000  -0.0710000  42.5850000  79.7260000   2.5670000  51.0860000
  77.2160000   8.6370000  49.2850000  78.9600000   4.8280000  51.3560000
  77.1300000   5.1580000  50.5200000  80.6620000   8.8480000  46.7210000
  80.1240000  -0.4600000  39.8340000  79.2010000  10.5830000  44.8870000
  79.9470000  13.2100000  47.4200000  74.3720000  -0.2880000  50.0920000
  78.4470000   1.3650000  50.0780000  74.6820000   0.8130000  52.1970000
  75.2520000   0.6880000  48.5360000  75.3670000   9.4340000  49.4970000
  75.7270000   2.5460000  52.0940000  74.8680000  11.1790000  47.9490000
  73.8920000   3.0660000  48.7540000  80.0340000  12.4150000  45.1530000
  75.2840000   9.7570000  43.2390000  76.9640000  10.7260000  42.6450000
  76.8090000   8.4040000  39.7500000  77.8580000   9.9490000  40.5530000
  74.3310000   9.6620000  39.6130000  75.2560000   2.9700000  40.4200000
  80.6550000   2.5260000  42.9700000  79.9260000   3.8530000  51.5690000
  80.3910000   1.9030000  51.2260000  81.3430000  -1.5500000  42.6540000
  80.8890000  -1.2320000  40.6900000  79.0930000   5.7120000  51.6760000
  80.1300000  13.8810000  48.0670000  74.5430000   0.8420000  53.1360000
  74.1740000  -0.2440000  51.4610000  74.0150000  -1.0030000  49.5790000
  74.4990000  10.3820000  48.9990000  75.1050000   8.8830000  50.2250000
  74.2710000  11.8380000  47.6170000  80.3060000  13.4060000  46.0950000
  80.2880000  12.5400000  44.2470000  78.4960000  10.0160000  39.8520000
  77.9320000  10.7980000  41.6460000  74.9290000   3.7870000  40.0640000
  80.1710000  -0.5940000  38.8940000  81.0960000   4.0390000  52.2570000
  78.9280000  11.7210000  41.8420000  73.4930000  -1.1930000  52.1840000
  73.2790000  10.4510000  49.6490000  80.9090000  14.5360000  45.6100000
  81.7300000  -2.2330000  40.2830000  81.3960000   5.3450000  52.7260000
  79.9260000  11.8280000  40.8220000  73.0560000  -2.3330000  51.4720000
  72.3200000  11.3290000  49.1200000  81.1150000  15.6140000  46.5250000
  81.8190000  -2.4890000  38.8830000  80.6980000   5.6370000  53.3480000
  80.3440000  10.9520000  40.6820000  82.4630000  -3.2090000  38.7230000
  80.6070000  12.4760000  41.0980000  81.4360000   5.9640000  51.9660000
  82.2610000   5.3360000  53.1870000  72.6660000  -2.9790000  52.0980000
  73.8180000  -2.7420000  51.0130000  72.3800000  -2.0670000  50.8130000
  71.4920000  11.2570000  49.6390000  72.1430000  11.0940000  48.1860000
  72.6580000  12.2480000  49.1680000  80.2540000  15.8900000  46.9040000
  81.7110000  15.3220000  47.2460000  81.5200000  16.3710000  46.0530000
  82.1140000  -1.6780000  38.4210000  80.9400000  -2.7560000  38.5440000
  79.5080000  12.1280000  39.9880000  63.6520000  13.1810000  19.9300000
  64.3330000  14.1300000  19.2070000  63.2140000  12.0410000  19.2180000
  64.8410000  15.1860000  19.9430000  64.5310000  14.0860000  17.8380000
  62.5380000  12.3070000  18.5590000  63.9770000  11.6320000  18.7590000
  62.8240000  11.3950000  19.8440000  65.5470000  16.1970000  19.3250000
  64.7010000  15.2160000  20.8820000  65.2590000  15.1000000  17.2190000
  64.1740000  13.3710000  17.3250000  65.7660000  16.1640000  17.9490000
  65.8860000  16.9200000  19.8400000  65.4110000  15.0620000  16.2820000
  66.5140000  17.1990000  17.3180000  66.0270000  17.8490000  16.1700000
  67.7400000  17.5850000  17.9420000  66.9070000  18.4840000  15.2810000
  64.6490000  17.8690000  15.9010000  67.9510000  18.8670000  18.4130000
  68.7300000  16.6220000  18.1530000  66.3900000  19.1050000  14.1610000
  67.8420000  18.4860000  15.4470000  64.1480000  18.5030000  14.7820000
  64.0510000  17.4390000  16.5000000  69.1190000  19.2010000  19.1020000
  67.2890000  19.5320000  18.2660000  69.8850000  16.9410000  18.8320000
  68.6060000  15.7390000  17.8240000  65.0160000  19.1250000  13.8930000
  67.1590000  19.8050000  13.0380000  63.2120000  18.5130000  14.6190000
  70.0840000  18.2270000  19.3150000  69.2520000  20.0860000  19.4220000
  70.5500000  16.2770000  18.9720000  64.7850000  19.8650000  12.6500000
  66.0190000  20.2910000  12.1470000  68.1140000  20.8880000  13.5150000
  68.1200000  18.8580000  12.3320000  71.2550000  18.4130000  20.0030000
  63.6180000  20.2260000  11.9830000  66.1100000  21.0470000  10.9980000
  67.7760000  22.0990000  14.0910000  69.4410000  20.5390000  13.2470000
  67.7750000  17.7730000  11.5600000  69.4500000  19.2580000  12.5190000
  71.5550000  19.7190000  20.4720000  63.6960000  21.0110000  10.8430000
  62.7730000  19.9370000  12.3080000  64.9360000  21.4250000  10.3370000
  66.9590000  21.3080000  10.6600000  68.7920000  22.9900000  14.4400000
  66.8650000  22.3210000  14.2480000  70.4540000  21.4230000  13.6080000
  66.8660000  17.5090000  11.4810000  68.7820000  17.0610000  10.8890000
  70.4560000  18.4880000  11.9410000  71.5950000  20.3380000  19.7120000
  70.8570000  20.0110000  21.0940000  72.4200000  19.7100000  20.9330000
  62.8990000  21.2720000  10.3980000  65.0320000  22.2730000   9.1980000
  68.4820000  24.2470000  15.0240000  70.1260000  22.6280000  14.2080000
  71.3630000  21.2010000  13.4440000  68.4090000  16.0470000   9.9880000
  70.1220000  17.4090000  11.1220000  71.3680000  18.6980000  12.1040000
  66.0470000  23.2830000   9.2340000  64.1720000  22.1640000   8.0860000
  69.1880000  25.4190000  14.6080000  67.1850000  24.4450000  15.5960000
  70.8210000  23.2220000  14.4670000  67.1340000  16.1190000   9.3420000
  69.3380000  15.0900000   9.4760000  70.8140000  16.9000000  10.7160000
  66.1060000  24.1680000  10.3070000  67.0040000  23.3730000   8.2350000
  64.0080000  23.2310000   7.2070000  63.4680000  20.9830000   7.8120000
  69.5520000  25.6230000  13.2820000  69.4770000  26.4030000  15.5450000
  66.3020000  25.3880000  15.1070000  66.7780000  23.6600000  16.6770000
  66.6570000  17.2970000   8.7860000  66.3480000  14.9720000   9.2630000
  70.1120000  14.3030000  10.3310000  69.4430000  14.8880000   8.1080000
  67.1230000  25.1000000  10.3910000  65.4430000  24.1310000  10.9860000
  68.0170000  24.3230000   8.2990000  66.9680000  22.7780000   7.4960000
  64.4900000  24.0360000   7.3590000  63.1550000  23.1460000   6.1110000
  63.5930000  20.2240000   8.3690000  62.5980000  20.9090000   6.7450000
  70.1930000  26.7890000  12.8990000  69.3600000  24.9570000  12.6330000
  70.1060000  27.5840000  15.1660000  69.2430000  26.2670000  16.4560000
  65.0270000  25.5520000  15.6950000  66.5540000  25.9300000  14.3690000
  65.5260000  23.8080000  17.2430000  67.3750000  23.0110000  17.0320000
  65.4150000  17.3440000   8.1670000  67.1880000  18.0830000   8.8300000
  65.1330000  14.9980000   8.6210000  66.6550000  14.1630000   9.6570000
  70.9670000  13.3450000   9.8140000  70.0510000  14.4250000  11.2710000
  70.2820000  13.9140000   7.5800000  68.9290000  15.4280000   7.5190000
  68.0910000  25.1720000   9.3920000  67.1620000  25.6930000  11.1320000
  68.6550000  24.3900000   7.5980000  62.4290000  21.9910000   5.8930000
  63.0730000  23.8800000   5.5140000  62.1100000  20.1080000   6.5910000
  70.4470000  26.9140000  11.9930000  70.4650000  27.7800000  13.8410000
  70.2890000  28.2540000  15.8130000  64.6580000  24.7560000  16.7450000
  64.4290000  26.2120000  15.3630000  65.2640000  23.2570000  17.9710000
  64.6560000  16.1830000   8.0730000  65.0870000  18.1610000   7.8100000
  64.6170000  14.2040000   8.5530000  71.0480000  13.1420000   8.4360000
  71.5020000  12.8240000  10.4000000  70.3300000  13.7800000   6.6400000
  69.0870000  26.0950000   9.5880000  61.5210000  21.7970000   4.8720000
  71.0680000  28.9100000  13.3560000  63.4380000  24.8250000  17.3950000
  63.4300000  16.1020000   7.4580000  71.8890000  12.1410000   8.0290000
  70.0840000  26.2020000   8.5680000  61.2810000  22.8840000   4.0190000
  71.2740000  29.9880000  14.2710000  62.4790000  25.7030000  16.8660000
  62.9450000  17.2690000   6.8010000  71.9770000  11.8850000   6.6290000
  69.6670000  26.5020000   7.7340000  70.7660000  26.8500000   8.8440000
  70.5030000  25.3260000   8.4280000  60.5980000  22.6380000   3.3610000
  60.9680000  23.6490000   4.5460000  62.1100000  23.1250000   3.5540000
  71.6790000  30.7450000  13.7990000  70.4130000  30.2640000  14.6500000
  71.8700000  29.6960000  14.9920000  62.3020000  25.4680000  15.9320000
  61.6510000  25.6310000  17.3850000  62.8160000  26.6220000  16.9140000
  62.7620000  17.9660000   7.4650000  63.6210000  17.5910000   6.1690000
  62.1210000  17.0530000   6.3170000  72.2730000  12.6960000   6.1670000
  72.6220000  11.1650000   6.4690000  71.0990000  11.6180000   6.2900000
  66.2060000  27.6770000  19.9300000  66.8870000  28.6270000  19.2070000
  65.7690000  26.5370000  19.2180000  67.3950000  29.6830000  19.9430000
  67.0850000  28.5820000  17.8380000  65.0930000  26.8030000  18.5590000
  65.3790000  25.8910000  19.8440000  66.5310000  26.1280000  18.7590000
  68.1010000  30.6930000  19.3250000  67.2560000  29.7120000  20.8820000
  67.8140000  29.5960000  17.2190000  66.7280000  27.8670000  17.3250000
  68.3200000  30.6600000  17.9490000  68.4400000  31.4160000  19.8400000
  67.9660000  29.5580000  16.2820000  69.0680000  31.6950000  17.3180000
  68.5810000  32.3450000  16.1700000  70.2940000  32.0810000  17.9420000
  69.4610000  32.9800000  15.2810000  67.2030000  32.3660000  15.9010000
  70.5050000  33.3630000  18.4130000  71.2850000  31.1180000  18.1530000
  68.9440000  33.6020000  14.1610000  70.3960000  32.9820000  15.4470000
  66.7020000  32.9990000  14.7820000  66.6050000  31.9360000  16.5000000
  72.4390000  31.4370000  18.8320000  69.8430000  34.0280000  18.2660000
  71.6730000  33.6980000  19.1020000  71.1600000  30.2350000  17.8240000
  67.5710000  33.6210000  13.8930000  69.7130000  34.3010000  13.0380000
  65.7660000  33.0090000  14.6190000  72.6390000  32.7230000  19.3150000
  71.8060000  34.5830000  19.4220000  73.1040000  30.7730000  18.9720000
  67.3400000  34.3610000  12.6500000  68.5730000  34.7870000  12.1470000
  70.6690000  35.3850000  13.5150000  70.6740000  33.3550000  12.3320000
  73.8090000  32.9100000  20.0030000  66.1720000  34.7220000  11.9830000
  68.6640000  35.5430000  10.9980000  70.3300000  36.5950000  14.0910000
  71.9960000  35.0350000  13.2470000  70.3300000  32.2690000  11.5600000
  72.0050000  33.7540000  12.5190000  74.1090000  34.2150000  20.4720000
  66.2510000  35.5080000  10.8430000  65.3270000  34.4340000  12.3080000
  67.4900000  35.9210000  10.3370000  69.5130000  35.8040000  10.6600000
  71.3460000  37.4860000  14.4400000  69.4190000  36.8170000  14.2480000
  73.0080000  35.9190000  13.6080000  69.4210000  32.0050000  11.4810000
  71.3360000  31.5570000  10.8890000  73.0100000  32.9850000  11.9410000
  73.4110000  34.5070000  21.0940000  74.1490000  34.8340000  19.7120000
  74.9740000  34.2060000  20.9330000  72.6060000  28.9210000  11.2710000
  67.5860000  36.7690000   9.1980000  71.0360000  38.7440000  15.0240000
  72.6810000  37.1240000  14.2080000  73.9170000  35.6980000  13.4440000
  70.9630000  30.5430000   9.9880000  72.6760000  31.9050000  11.1220000
  73.9220000  33.1940000  12.1040000  68.6010000  37.7790000   9.2340000
  66.7260000  36.6600000   8.0860000  71.7430000  39.9150000  14.6080000
  69.7400000  38.9410000  15.5960000  73.3750000  37.7180000  14.4670000
  69.6890000  30.6150000   9.3420000  71.8920000  29.5860000   9.4760000
  73.3680000  31.3960000  10.7160000  68.6600000  38.6640000  10.3070000
  69.5590000  37.8700000   8.2350000  66.5620000  37.7270000   7.2070000
  66.0230000  35.4790000   7.8120000  72.1070000  40.1190000  13.2820000
  72.0310000  40.8990000  15.5450000  68.8570000  39.8840000  15.1070000
  69.3330000  38.1560000  16.6770000  69.2120000  31.7930000   8.7860000
  68.9030000  29.4680000   9.2630000  72.6660000  28.7990000  10.3310000
  71.9970000  29.3840000   8.1080000  69.6770000  39.5960000  10.3910000
  67.9970000  38.6270000  10.9860000  70.5710000  38.8190000   8.2990000
  69.5220000  37.2740000   7.4960000  67.0440000  38.5320000   7.3590000
  65.7100000  37.6420000   6.1110000  65.4530000  35.7680000  10.3980000
  65.1530000  35.4050000   6.7450000  72.7470000  41.2850000  12.8990000
  71.9140000  39.4530000  12.6330000  72.6600000  42.0800000  15.1660000
  71.7970000  40.7640000  16.4560000  68.0800000  38.3040000  17.2430000
  69.1080000  40.4270000  14.3690000  67.5810000  40.0490000  15.6950000
  69.9290000  37.5080000  17.0320000  67.9690000  31.8400000   8.1670000
  66.1470000  34.7200000   8.3690000  67.6870000  29.4950000   8.6210000
  69.2090000  28.6590000   9.6570000  72.8370000  28.4100000   7.5800000
  71.4830000  29.9240000   7.5190000  73.5210000  27.8410000   9.8140000
  69.7420000  32.5790000   8.8300000  70.6450000  39.6680000   9.3920000
  69.7160000  40.1900000  11.1320000  71.2090000  38.8860000   7.5980000
  64.9830000  36.4870000   5.8930000  65.6270000  38.3760000   5.5140000
  64.6640000  34.6040000   6.5910000  73.0020000  41.4100000  11.9930000
  73.0190000  42.2760000  13.8410000  72.8430000  42.7510000  15.8130000
  67.2120000  39.2520000  16.7450000  66.9840000  40.7080000  15.3630000
  67.8180000  37.7540000  17.9710000  67.2110000  30.6800000   8.0730000
  67.6420000  32.6570000   7.8100000  67.1710000  28.7000000   8.5530000
  73.6020000  27.6380000   8.4360000  74.0560000  27.3200000  10.4000000
  72.8840000  28.2760000   6.6400000  71.6420000  40.5910000   9.5880000
  64.0750000  36.2930000   4.8720000  73.6220000  43.4060000  13.3560000
  65.9920000  39.3210000  17.3950000  65.9840000  30.5980000   7.4580000
  74.4430000  26.6370000   8.0290000  72.6390000  40.6980000   8.5680000
  63.8360000  37.3800000   4.0190000  73.8280000  44.4840000  14.2710000
  65.0330000  40.1990000  16.8660000  65.5000000  31.7650000   6.8010000
  74.5320000  26.3810000   6.6290000  72.2220000  40.9980000   7.7340000
  73.3200000  41.3460000   8.8440000  73.0570000  39.8230000   8.4280000
  63.5220000  38.1450000   4.5460000  64.6640000  37.6210000   3.5540000
  63.1520000  37.1350000   3.3610000  74.2330000  45.2410000  13.7990000
  72.9670000  44.7600000  14.6500000  74.4240000  44.1920000  14.9920000
  64.8560000  39.9640000  15.9320000  64.2050000  40.1280000  17.3850000
  65.3710000  41.1180000  16.9140000  64.6750000  31.5490000   6.3170000
  65.3160000  32.4620000   7.4650000  66.1750000  32.0880000   6.1690000
  75.1760000  25.6610000   6.4690000  74.8270000  27.1920000   6.1670000
  73.6530000  26.1140000   6.2900000  86.0180000  43.5280000  45.6100000
  85.4140000  42.3990000  46.0950000  86.5050000  34.3370000  52.7260000
  85.0560000  42.2020000  47.4200000  84.0690000  33.8200000  51.3560000
  86.5450000  34.9560000  51.9660000  85.8070000  34.6290000  53.3480000
  87.3700000  34.3290000  53.1870000  84.4270000  41.0210000  47.7990000
  82.1110000  40.3120000  43.3860000  84.3920000  29.5060000  40.3620000
  84.2010000  34.7050000  51.6760000  82.1350000  39.0630000  47.8500000
  84.1920000  40.8860000  48.7100000  85.7710000  37.8410000  46.7210000
  83.4320000  38.8660000  47.2780000  83.7420000  37.6090000  46.6940000
  84.1380000  40.0370000  46.8620000  82.7250000  36.7170000  46.3450000
  85.0760000  37.2470000  46.4620000  81.0560000  38.7860000  42.5610000
  84.5020000  40.2420000  45.5360000  83.0640000  35.5070000  45.7690000
  81.9080000  35.9270000  42.9140000  85.4040000  36.0410000  45.8620000
  82.3250000  37.6300000  49.2850000  82.0730000  39.7190000  42.6450000
  84.3100000  39.5750000  44.8870000  85.1420000  41.4070000  45.1530000
  85.0010000  29.0430000  43.5250000  84.3910000  35.1570000  45.5010000
  82.1080000  34.4230000  45.2920000  86.3130000  35.8200000  45.6980000
  83.0410000  39.7900000  41.6460000  79.3790000  40.8310000  47.6170000
  85.3970000  41.5320000  44.2470000  79.9660000  33.7430000  46.1470000
  81.3400000  33.7240000  46.4150000  80.9680000  34.9090000  44.4010000
  83.0700000  33.4770000  44.5860000  84.0370000  40.7140000  41.8420000
  79.0970000  33.1210000  47.0350000  81.8560000  33.1020000  47.5350000
  81.0600000  35.6650000  43.2520000  79.7350000  34.4830000  44.9040000
  82.7250000  32.3920000  43.8140000  84.4000000  33.8770000  44.7730000
  86.2230000  44.6070000  46.5250000  79.5990000  32.4880000  48.1550000
  78.1610000  33.1310000  46.8730000  80.9760000  32.4670000  48.4240000
  81.8160000  32.1270000  43.7350000  79.8850000  36.0440000  42.5910000
  81.8150000  36.9390000  46.5020000  78.5680000  34.8450000  44.2370000
  82.7920000  33.1050000  47.7010000  83.7310000  31.6800000  43.1430000
  85.4050000  33.1070000  44.1950000  86.8200000  44.3140000  47.2460000
  86.6290000  45.3640000  46.0530000  85.3630000  44.8830000  46.9040000
  79.0000000  32.0580000  48.7540000  81.4640000  31.8180000  49.5720000
  79.9820000  36.8910000  41.4520000  78.6460000  35.6300000  43.0970000
  77.7230000  34.5560000  44.5620000  83.3590000  30.6650000  42.2420000
  85.0720000  32.0270000  43.3760000  86.3170000  33.3160000  44.3580000
  82.6900000  32.2030000  50.1960000  80.7150000  30.7820000  50.2030000
  80.9960000  37.9010000  41.4880000  79.1220000  36.7820000  40.3400000
  81.9170000  37.3960000  39.7500000  82.0840000  30.7370000  41.5950000
  84.2870000  29.7090000  41.7300000  79.4390000  38.6540000  39.6130000
  82.9000000  33.4850000  50.6670000  80.2090000  29.7180000  49.4730000
  83.6800000  31.2400000  50.4070000  80.4960000  30.8160000  51.5790000
  78.9580000  37.8490000  39.4610000  78.4180000  35.6020000  40.0660000
  81.7280000  38.2790000  48.9310000  81.2520000  40.0060000  47.3610000
  81.6070000  31.9150000  41.0400000  85.0620000  28.9210000  42.5850000
  81.9540000  37.9920000  40.4890000  81.2980000  29.5900000  41.5170000
  80.3650000  31.9620000  40.4200000  80.8350000  31.5380000  52.0940000
  80.0830000  29.6170000  40.8750000  78.5420000  34.8420000  40.6230000
  83.8780000  30.0460000  39.7730000  79.4810000  28.7050000  50.0920000
  80.3610000  29.6800000  48.5360000  79.7900000  29.8050000  52.1970000
  77.5480000  35.5270000  38.9990000  77.8480000  35.8910000  42.6520000
  78.1050000  37.7640000  38.3650000  80.3920000  38.7490000  43.2390000
  79.9770000  40.1710000  47.9490000  82.2390000  34.1510000  50.5200000
  80.4750000  38.4260000  49.4970000  81.5040000  40.5490000  46.6230000
  84.8350000  31.5600000  51.0860000  83.5560000  30.3580000  50.0780000
  85.9170000  27.9640000  42.0680000  85.7630000  31.5190000  42.9700000
  82.9670000  38.9420000  40.5530000  82.1380000  32.7010000  41.0840000
  85.2320000  28.5320000  39.8340000  81.6050000  28.7820000  41.9110000
  79.6060000  30.8020000  40.3270000  80.0370000  32.7790000  40.0640000
  79.5670000  28.8220000  40.8070000  79.2830000  28.7490000  51.4610000
  79.1240000  27.9890000  49.5790000  79.6510000  29.8340000  53.1360000
  77.0600000  34.7270000  38.8450000  77.3780000  36.6090000  38.1470000
  78.0220000  38.4980000  37.7680000  79.6080000  39.3750000  48.9990000
  85.2390000  42.8730000  48.0670000  80.2130000  37.8760000  50.2250000
  85.0340000  32.8460000  51.5690000  86.4520000  27.4420000  42.6540000
  85.4990000  30.8950000  51.2260000  85.9980000  27.7600000  40.6900000
  83.6050000  39.0090000  39.8520000  85.2800000  28.3980000  38.8940000
  78.3790000  30.7200000  39.7120000  78.6010000  27.8000000  52.1840000
  76.4710000  36.4150000  37.1260000  78.3880000  39.4430000  49.6490000
  86.2040000  33.0320000  52.2570000  86.8380000  26.7590000  40.2830000
  76.2310000  37.5030000  36.2730000  78.1640000  26.6600000  51.4720000
  77.8950000  31.8870000  39.0550000  77.4290000  40.3210000  49.1200000
  85.0340000  40.8200000  40.8220000  86.9270000  26.5030000  38.8830000
  77.0600000  37.7430000  35.8080000  77.0700000  31.6710000  38.5710000
  78.5700000  32.2100000  38.4230000  78.9270000  26.2500000  51.0130000
  77.4880000  26.9250000  50.8130000  77.7740000  26.0140000  52.0980000
  75.9180000  38.2670000  36.8000000  77.7110000  32.5840000  39.7190000
  75.5480000  37.2570000  35.6150000  77.7660000  41.2400000  49.1680000
  76.6000000  40.2500000  49.6390000  77.2510000  40.0860000  48.1860000
  84.6170000  41.1210000  39.9880000  85.7150000  41.4680000  41.0980000
  85.4520000  39.9450000  40.6820000  87.2230000  27.3140000  38.4210000
  86.0480000  26.2360000  38.5440000  87.5710000  25.7830000  38.7230000
  79.8200000  43.4670000  29.4830000  79.2160000  42.3380000  29.9680000
  80.3070000  34.2760000  36.5990000  78.8580000  42.1410000  31.2930000
  77.8710000  33.7590000  35.2290000  80.3470000  34.8950000  35.8390000
  79.6090000  34.5680000  37.2210000  81.1720000  34.2670000  37.0600000
  78.2290000  40.9600000  31.6720000  75.9140000  40.2510000  27.2590000
  78.1950000  29.4450000  24.2350000  78.0040000  34.6440000  35.5490000
  75.9370000  39.0020000  31.7230000  77.9950000  40.8250000  32.5830000
  79.5730000  37.7800000  30.5940000  77.2340000  38.8050000  31.1510000
  77.5440000  37.5470000  30.5670000  77.9400000  39.9760000  30.7350000
  76.5280000  36.6560000  30.2180000  78.8780000  37.1860000  30.3350000
  74.8580000  38.7250000  26.4340000  78.3040000  40.1810000  29.4090000
  76.8660000  35.4460000  29.6420000  75.7110000  35.8650000  26.7870000
  79.2060000  35.9800000  29.7350000  76.1270000  37.5690000  33.1590000
  75.8750000  39.6570000  26.5180000  78.1120000  39.5140000  28.7600000
  78.9440000  41.3460000  29.0260000  78.8030000  28.9820000  27.3980000
  78.1930000  35.0960000  29.3740000  75.9110000  34.3620000  29.1650000
  80.1150000  35.7590000  29.5710000  76.8430000  39.7290000  25.5190000
  73.1810000  40.7700000  31.4900000  79.1990000  41.4710000  28.1200000
  73.7680000  33.6820000  30.0200000  75.1420000  33.6630000  30.2880000
  74.7710000  34.8480000  28.2740000  76.8720000  33.4160000  28.4590000
  77.8390000  40.6530000  25.7150000  72.8990000  33.0600000  30.9080000
  75.6590000  33.0410000  31.4080000  74.8620000  35.6040000  27.1250000
  73.5370000  34.4220000  28.7770000  76.5270000  32.3310000  27.6870000
  78.2020000  33.8150000  28.6460000  80.0260000  44.5460000  30.3980000
  73.4010000  32.4270000  32.0280000  71.9630000  33.0700000  30.7460000
  74.7790000  32.4060000  32.2970000  75.6180000  32.0660000  27.6080000
  73.6880000  35.9830000  26.4640000  75.6170000  36.8780000  30.3750000
  72.3700000  34.7840000  28.1100000  76.5940000  33.0430000  31.5740000
  77.5340000  31.6190000  27.0160000  79.2070000  33.0460000  28.0680000
  80.6220000  44.2530000  31.1190000  80.4310000  45.3020000  29.9260000
  79.1650000  44.8210000  30.7770000  72.8030000  31.9970000  32.6270000
  75.2660000  31.7570000  33.4450000  73.7840000  36.8300000  25.3250000
  72.4480000  35.5690000  26.9700000  71.5250000  34.4950000  28.4350000
  77.1610000  30.6040000  26.1150000  78.8740000  31.9660000  27.2490000
  80.1200000  33.2550000  28.2310000  76.4920000  32.1420000  34.0690000
  74.5180000  30.7210000  34.0760000  74.7990000  37.8400000  25.3610000
  72.9240000  36.7210000  24.2130000  75.7200000  37.3350000  23.6230000
  75.8860000  30.6760000  25.4690000  78.0900000  29.6470000  25.6030000
  73.2420000  38.5930000  23.4860000  76.7030000  33.4240000  34.5400000
  74.0110000  29.6570000  33.3460000  77.4820000  31.1790000  34.2800000
  74.2990000  30.7540000  35.4520000  72.7600000  37.7880000  23.3340000
  72.2200000  35.5410000  23.9390000  75.5300000  38.2170000  32.8040000
  75.0540000  39.9450000  31.2340000  75.4090000  31.8540000  24.9130000
  78.8640000  28.8600000  26.4580000  75.7560000  37.9310000  24.3620000
  75.1000000  29.5290000  25.3900000  74.1670000  31.9010000  24.2940000
  74.6380000  31.4770000  35.9670000  73.8850000  29.5560000  24.7480000
  72.3450000  34.7810000  24.4960000  77.6810000  29.9850000  23.6460000
  73.2830000  28.6430000  33.9650000  74.1630000  29.6190000  32.4090000
  73.5930000  29.7440000  36.0700000  71.3500000  35.4660000  22.8720000
  71.6500000  35.8300000  26.5250000  71.9070000  37.7030000  22.2380000
  74.1950000  38.6880000  27.1130000  73.7790000  40.1100000  31.8220000
  76.0410000  34.0900000  34.3930000  74.2780000  38.3650000  33.3700000
  75.3060000  40.4880000  30.4960000  78.6370000  31.4990000  34.9590000
  77.3580000  30.2970000  33.9510000  79.7190000  27.9030000  25.9410000
  79.5660000  31.4580000  26.8430000  76.7690000  38.8810000  24.4260000
  75.9400000  32.6400000  24.9570000  79.0340000  28.4710000  23.7070000
  75.4070000  28.7210000  25.7840000  73.4080000  30.7410000  24.2000000
  73.8390000  32.7180000  23.9370000  73.3690000  28.7610000  24.6800000
  73.0850000  28.6880000  35.3340000  72.9260000  27.9280000  33.4520000
  73.4530000  29.7730000  37.0090000  70.8620000  34.6660000  22.7180000
  71.1810000  36.5480000  22.0200000  71.8250000  38.4370000  21.6410000
  73.4100000  39.3140000  32.8720000  79.0410000  42.8120000  31.9400000
  74.0150000  37.8150000  34.0980000  78.8360000  32.7850000  35.4420000
  80.2540000  27.3810000  26.5270000  79.3020000  30.8340000  35.0990000
  79.8000000  27.6990000  24.5630000  77.4070000  38.9480000  23.7250000
  79.0820000  28.3370000  22.7670000  72.1820000  30.6590000  23.5850000
  72.4040000  27.7380000  36.0570000  70.2730000  36.3540000  20.9990000
  72.1900000  39.3820000  33.5220000  80.0070000  32.9710000  36.1300000
  80.6410000  26.6980000  24.1560000  70.0330000  37.4420000  20.1460000
  71.9660000  26.5980000  35.3450000  71.6970000  31.8260000  22.9280000
  71.2310000  40.2600000  32.9930000  78.8360000  40.7590000  24.6950000
  80.7290000  26.4420000  22.7560000  70.8620000  37.6820000  19.6810000
  70.8730000  31.6100000  22.4440000  72.3720000  32.1490000  22.2960000
  72.7290000  26.1890000  34.8860000  71.2900000  26.8640000  34.6860000
  71.5760000  25.9530000  35.9710000  69.7200000  38.2060000  20.6730000
  71.5140000  32.5230000  23.5920000  69.3500000  37.1960000  19.4880000
  71.5680000  41.1790000  33.0410000  70.4030000  40.1890000  33.5120000
  71.0540000  40.0250000  32.0590000  78.4190000  41.0600000  23.8610000
  79.5170000  41.4070000  24.9710000  79.2550000  39.8840000  24.5550000
  81.0250000  27.2530000  22.2940000  79.8510000  26.1750000  22.4170000
  81.3740000  25.7220000  22.5960000  82.3740000  57.9630000  29.4830000
  81.7710000  56.8340000  29.9680000  82.8610000  48.7720000  36.5990000
  81.4120000  56.6370000  31.2930000  80.4250000  48.2550000  35.2290000
  82.9010000  49.3910000  35.8390000  82.1630000  49.0640000  37.2210000
  83.7260000  48.7640000  37.0600000  80.7830000  55.4560000  31.6720000
  78.4680000  54.7470000  27.2590000  80.7490000  43.9420000  24.2350000
  80.5580000  49.1400000  35.5490000  78.4920000  53.4980000  31.7230000
  80.5490000  55.3210000  32.5830000  82.1270000  52.2760000  30.5940000
  79.7880000  53.3010000  31.1510000  80.0980000  52.0440000  30.5670000
  80.4950000  54.4720000  30.7350000  79.0820000  51.1520000  30.2180000
  81.4330000  51.6820000  30.3350000  77.4120000  53.2210000  26.4340000
  80.8590000  54.6770000  29.4090000  79.4200000  49.9420000  29.6420000
  78.2650000  50.3620000  26.7870000  81.7600000  50.4760000  29.7350000
  78.6810000  52.0650000  33.1590000  78.4290000  54.1540000  26.5180000
  80.6660000  54.0110000  28.7600000  81.4990000  55.8420000  29.0260000
  81.3580000  43.4780000  27.3980000  80.7480000  49.5920000  29.3740000
  78.4650000  48.8580000  29.1650000  82.6690000  50.2550000  29.5710000
  79.3970000  54.2250000  25.5190000  75.7360000  55.2660000  31.4900000
  81.7530000  55.9670000  28.1200000  76.3220000  48.1780000  30.0200000
  77.6960000  48.1590000  30.2880000  77.3250000  49.3440000  28.2740000
  79.4260000  47.9120000  28.4590000  80.3930000  55.1490000  25.7150000
  75.4540000  47.5560000  30.9080000  78.2130000  47.5370000  31.4080000
  77.4160000  50.1000000  27.1250000  76.0910000  48.9180000  28.7770000
  79.0820000  46.8270000  27.6870000  80.7570000  48.3120000  28.6460000
  82.5800000  59.0420000  30.3980000  75.9550000  46.9230000  32.0280000
  74.5180000  47.5670000  30.7460000  77.3330000  46.9030000  32.2970000
  78.1730000  46.5620000  27.6080000  76.2420000  50.4790000  26.4640000
  78.1710000  51.3740000  30.3750000  74.9240000  49.2800000  28.1100000
  79.1480000  47.5400000  31.5740000  80.0880000  46.1150000  27.0160000
  81.7620000  47.5420000  28.0680000  83.1760000  58.7490000  31.1190000
  82.9850000  59.7990000  29.9260000  81.7190000  59.3180000  30.7770000
  75.3570000  46.4930000  32.6270000  77.8200000  46.2530000  33.4450000
  76.3380000  51.3260000  25.3250000  75.0030000  50.0650000  26.9700000
  74.0790000  48.9910000  28.4350000  79.7150000  45.1000000  26.1150000
  81.4280000  46.4620000  27.2490000  82.6740000  47.7510000  28.2310000
  79.0460000  46.6380000  34.0690000  77.0720000  45.2170000  34.0760000
  77.3530000  52.3360000  25.3610000  75.4780000  51.2170000  24.2130000
  78.2740000  51.8310000  23.6230000  78.4410000  45.1720000  25.4690000
  80.6440000  44.1440000  25.6030000  75.7960000  53.0890000  23.4860000
  79.2570000  47.9200000  34.5400000  76.5660000  44.1530000  33.3460000
  80.0370000  45.6750000  34.2800000  76.8530000  45.2510000  35.4520000
  75.3140000  52.2840000  23.3340000  74.7750000  50.0370000  23.9390000
  78.0850000  52.7140000  32.8040000  77.6090000  54.4410000  31.2340000
  77.9630000  46.3500000  24.9130000  81.4180000  43.3560000  26.4580000
  78.3110000  52.4270000  24.3620000  77.6550000  44.0250000  25.3900000
  76.7210000  46.3970000  24.2940000  77.1920000  45.9730000  35.9670000
  76.4390000  44.0520000  24.7480000  74.8990000  49.2770000  24.4960000
  80.2350000  44.4810000  23.6460000  75.8370000  43.1400000  33.9650000
  76.7170000  44.1150000  32.4090000  76.1470000  44.2400000  36.0700000
  73.9050000  49.9620000  22.8720000  74.2050000  50.3260000  26.5250000
  74.4620000  52.1990000  22.2380000  76.7490000  53.1840000  27.1130000
  76.3330000  54.6060000  31.8220000  78.5950000  48.5860000  34.3930000
  76.8320000  52.8610000  33.3700000  77.8600000  54.9840000  30.4960000
  81.1910000  45.9950000  34.9590000  79.9120000  44.7930000  33.9510000
  82.2730000  42.3990000  25.9410000  82.1200000  45.9540000  26.8430000
  79.3230000  53.3770000  24.4260000  78.4940000  47.1360000  24.9570000
  81.5890000  42.9670000  23.7070000  77.9610000  43.2170000  25.7840000
  75.9630000  45.2370000  24.2000000  76.3940000  47.2150000  23.9370000
  75.9230000  43.2570000  24.6800000  75.6390000  43.1840000  35.3340000
  75.4800000  42.4250000  33.4520000  76.0080000  44.2690000  37.0090000
  73.4160000  49.1620000  22.7180000  73.7350000  51.0440000  22.0200000
  74.3790000  52.9330000  21.6410000  75.9640000  53.8100000  32.8720000
  81.5950000  57.3080000  31.9400000  76.5700000  52.3110000  34.0980000
  81.3910000  47.2810000  35.4420000  82.8080000  41.8770000  26.5270000
  81.8560000  45.3300000  35.0990000  82.3540000  42.1950000  24.5630000
  79.9610000  53.4440000  23.7250000  81.6360000  42.8330000  22.7670000
  74.7360000  45.1550000  23.5850000  74.9580000  42.2350000  36.0570000
  72.8270000  50.8500000  20.9990000  74.7440000  53.8780000  33.5220000
  82.5610000  47.4670000  36.1300000  83.1950000  41.1940000  24.1560000
  72.5880000  51.9380000  20.1460000  74.5210000  41.0950000  35.3450000
  74.2510000  46.3230000  22.9280000  73.7850000  54.7560000  32.9930000
  81.3910000  55.2550000  24.6950000  83.2840000  40.9380000  22.7560000
  73.4160000  52.1780000  19.6810000  73.4270000  46.1060000  22.4440000
  74.9270000  46.6450000  22.2960000  75.2830000  40.6850000  34.8860000
  73.8450000  41.3600000  34.6860000  74.1310000  40.4490000  35.9710000
  72.2740000  52.7020000  20.6730000  74.0680000  47.0190000  23.5920000
  71.9040000  51.6920000  19.4880000  74.1230000  55.6750000  33.0410000
  72.9570000  54.6850000  33.5120000  73.6080000  54.5210000  32.0590000
  80.9730000  55.5560000  23.8610000  82.0720000  55.9040000  24.9710000
  81.8090000  54.3800000  24.5550000  83.5790000  41.7490000  22.2940000
  82.4050000  40.6710000  22.4170000  83.9280000  40.2180000  22.5960000
  88.5720000  58.0250000  45.6100000  87.9680000  56.8950000  46.0950000
  89.0590000  48.8330000  52.7260000  87.6100000  56.6980000  47.4200000
  86.6230000  48.3160000  51.3560000  89.0990000  49.4520000  51.9660000
  88.3610000  49.1250000  53.3480000  89.9240000  48.8250000  53.1870000
  86.9810000  55.5170000  47.7990000  84.6660000  54.8080000  43.3860000
  86.9470000  44.0030000  40.3620000  86.7560000  49.2010000  51.6760000
  84.6890000  53.5600000  47.8500000  86.7470000  55.3820000  48.7100000
  88.3250000  52.3370000  46.7210000  85.9860000  53.3620000  47.2780000
  86.2960000  52.1050000  46.6940000  86.6920000  54.5330000  46.8620000
  85.2790000  51.2140000  46.3450000  87.6300000  51.7430000  46.4620000
  83.6100000  53.2820000  42.5610000  87.0560000  54.7380000  45.5360000
  85.6180000  50.0030000  45.7690000  84.4630000  50.4230000  42.9140000
  87.9580000  50.5370000  45.8620000  84.8790000  52.1260000  49.2850000
  84.6270000  54.2150000  42.6450000  86.8640000  54.0720000  44.8870000
  87.6960000  55.9030000  45.1530000  87.5550000  43.5390000  43.5250000
  86.9450000  49.6540000  45.5010000  84.6630000  48.9190000  45.2920000
  88.8670000  50.3160000  45.6980000  85.5950000  54.2860000  41.6460000
  81.9330000  55.3270000  47.6170000  87.9510000  56.0280000  44.2470000
  82.5200000  48.2400000  46.1470000  83.8940000  48.2200000  46.4150000
  83.5230000  49.4050000  44.4010000  85.6240000  47.9730000  44.5860000
  86.5910000  55.2100000  41.8420000  81.6510000  47.6170000  47.0350000
  84.4110000  47.5980000  47.5350000  83.6140000  50.1620000  43.2520000
  82.2890000  48.9790000  44.9040000  85.2790000  46.8880000  43.8140000
  86.9540000  48.3730000  44.7730000  88.7780000  59.1030000  46.5250000
  82.1530000  46.9840000  48.1550000  80.7150000  47.6280000  46.8730000
  83.5310000  46.9640000  48.4240000  84.3700000  46.6230000  43.7350000
  82.4400000  50.5400000  42.5910000  84.3690000  51.4360000  46.5020000
  81.1220000  49.3410000  44.2370000  85.3460000  47.6010000  47.7010000
  86.2860000  46.1760000  43.1430000  87.9590000  47.6030000  44.1950000
  89.3740000  58.8100000  47.2460000  89.1830000  59.8600000  46.0530000
  87.9170000  59.3790000  46.9040000  81.5550000  46.5540000  48.7540000
  84.0180000  46.3140000  49.5720000  82.5360000  51.3870000  41.4520000
  81.2000000  50.1260000  43.0970000  80.2770000  49.0520000  44.5620000
  85.9130000  45.1620000  42.2420000  87.6260000  46.5240000  43.3760000
  88.8720000  47.8120000  44.3580000  85.2440000  46.6990000  50.1960000
  83.2700000  45.2790000  50.2030000  83.5510000  52.3970000  41.4880000
  81.6760000  51.2790000  40.3400000  84.4720000  51.8920000  39.7500000
  84.6380000  45.2330000  41.5950000  86.8420000  44.2050000  41.7300000
  81.9930000  53.1500000  39.6130000  85.4550000  47.9810000  50.6670000
  82.7630000  44.2150000  49.4730000  86.2340000  45.7370000  50.4070000
  83.0510000  45.3120000  51.5790000  81.5120000  52.3460000  39.4610000
  80.9720000  50.0980000  40.0660000  84.2820000  52.7750000  48.9310000
  83.8060000  54.5030000  47.3610000  84.1610000  46.4110000  41.0400000
  87.6160000  43.4170000  42.5850000  84.5080000  52.4880000  40.4890000
  83.8520000  44.0860000  41.5170000  82.9190000  46.4580000  40.4200000
  83.3900000  46.0350000  52.0940000  82.6370000  44.1130000  40.8750000
  81.0970000  49.3390000  40.6230000  86.4330000  44.5420000  39.7730000
  82.0350000  43.2010000  50.0920000  82.9150000  44.1760000  48.5360000
  82.3450000  44.3010000  52.1970000  80.1020000  50.0230000  38.9990000
  80.4020000  50.3870000  42.6520000  80.6590000  52.2600000  38.3650000
  82.9470000  53.2450000  43.2390000  82.5310000  54.6670000  47.9490000
  84.7930000  48.6470000  50.5200000  83.0300000  52.9220000  49.4970000
  84.0580000  55.0450000  46.6230000  87.3890000  46.0560000  51.0860000
  86.1100000  44.8540000  50.0780000  88.4710000  42.4600000  42.0680000
  88.3180000  46.0150000  42.9700000  85.5210000  53.4380000  40.5530000
  84.6920000  47.1980000  41.0840000  87.7860000  43.0290000  39.8340000
  84.1590000  43.2780000  41.9110000  82.1600000  45.2980000  40.3270000
  82.5910000  47.2760000  40.0640000  82.1210000  43.3190000  40.8070000
  81.8370000  43.2450000  51.4610000  81.6780000  42.4860000  49.5790000
  82.2050000  44.3300000  53.1360000  79.6140000  49.2230000  38.8450000
  79.9330000  51.1050000  38.1470000  80.5770000  52.9940000  37.7680000
  82.1620000  53.8710000  48.9990000  87.7930000  57.3690000  48.0670000
  82.7670000  52.3720000  50.2250000  87.5880000  47.3420000  51.5690000
  89.0060000  41.9380000  42.6540000  88.0540000  45.3910000  51.2260000
  88.5520000  42.2560000  40.6900000  86.1590000  53.5050000  39.8520000
  87.8340000  42.8940000  38.8940000  80.9340000  45.2160000  39.7120000
  81.1560000  42.2960000  52.1840000  79.0250000  50.9110000  37.1260000
  80.9420000  53.9390000  49.6490000  88.7590000  47.5280000  52.2570000
  89.3930000  41.2550000  40.2830000  78.7850000  51.9990000  36.2730000
  80.7180000  41.1560000  51.4720000  80.4490000  46.3840000  39.0550000
  79.9830000  54.8170000  49.1200000  87.5880000  55.3170000  40.8220000
  89.4810000  40.9990000  38.8830000  79.6140000  52.2390000  35.8080000
  79.6240000  46.1670000  38.5710000  81.1240000  46.7060000  38.4230000
  81.4810000  40.7460000  51.0130000  80.0420000  41.4210000  50.8130000
  80.3280000  40.5100000  52.0980000  78.4720000  52.7640000  36.8000000
  80.2660000  47.0810000  39.7190000  78.1020000  51.7530000  35.6150000
  80.3200000  55.7360000  49.1680000  79.1540000  54.7460000  49.6390000
  79.8060000  54.5830000  48.1860000  87.1710000  55.6170000  39.9880000
  88.2690000  55.9650000  41.0980000  88.0070000  54.4410000  40.6820000
  89.7770000  41.8110000  38.4210000  88.6030000  40.7330000  38.5440000
  90.1260000  40.2800000  38.7230000  68.7600000  42.1740000  19.9300000
  69.4420000  43.1230000  19.2070000  68.3230000  41.0330000  19.2180000
  69.9490000  44.1790000  19.9430000  69.6400000  43.0790000  17.8380000
  67.6470000  41.2990000  18.5590000  67.9330000  40.3880000  19.8440000
  69.0850000  40.6240000  18.7590000  70.6550000  45.1890000  19.3250000
  69.8100000  44.2080000  20.8820000  70.3680000  44.0920000  17.2190000
  69.2820000  42.3630000  17.3250000  70.8740000  45.1560000  17.9490000
  70.9940000  45.9120000  19.8400000  70.5200000  44.0540000  16.2820000
  71.6220000  46.1920000  17.3180000  71.1350000  46.8410000  16.1700000
  72.8490000  46.5770000  17.9420000  72.0150000  47.4760000  15.2810000
  69.7580000  46.8620000  15.9010000  73.0590000  47.8590000  18.4130000
  73.8390000  45.6140000  18.1530000  71.4980000  48.0980000  14.1610000
  72.9500000  47.4780000  15.4470000  69.2560000  47.4950000  14.7820000
  69.1590000  46.4320000  16.5000000  74.9930000  45.9340000  18.8320000
  72.3980000  48.5250000  18.2660000  74.2280000  48.1940000  19.1020000
  73.7150000  44.7320000  17.8240000  70.1250000  48.1170000  13.8930000
  72.2670000  48.7970000  13.0380000  68.3200000  47.5050000  14.6190000
  75.1930000  47.2200000  19.3150000  74.3600000  49.0790000  19.4220000
  75.6580000  45.2690000  18.9720000  69.8940000  48.8570000  12.6500000
  71.1270000  49.2830000  12.1470000  73.2230000  49.8810000  13.5150000
  73.2290000  47.8510000  12.3320000  76.3630000  47.4060000  20.0030000
  68.7270000  49.2190000  11.9830000  71.2190000  50.0390000  10.9980000
  72.8840000  51.0910000  14.0910000  74.5500000  49.5310000  13.2470000
  72.8840000  46.7660000  11.5600000  74.5590000  48.2500000  12.5190000
  76.6630000  48.7110000  20.4720000  68.8050000  50.0040000  10.8430000
  67.8820000  48.9300000  12.3080000  70.0440000  50.4180000  10.3370000
  72.0670000  50.3000000  10.6600000  73.9010000  51.9820000  14.4400000
  71.9740000  51.3130000  14.2480000  75.5620000  50.4150000  13.6080000
  71.9750000  46.5010000  11.4810000  73.8900000  46.0540000  10.8890000
  75.5640000  47.4810000  11.9410000  75.9660000  49.0030000  21.0940000
  76.7040000  49.3300000  19.7120000  77.5280000  48.7020000  20.9330000
  75.1600000  43.4170000  11.2710000  70.1410000  51.2650000   9.1980000
  73.5910000  53.2400000  15.0240000  75.2350000  51.6210000  14.2080000
  76.4720000  50.1940000  13.4440000  73.5180000  45.0390000   9.9880000
  75.2310000  46.4010000  11.1220000  76.4760000  47.6900000  12.1040000
  71.1550000  52.2750000   9.2340000  69.2800000  51.1560000   8.0860000
  74.2970000  54.4110000  14.6080000  72.2940000  53.4370000  15.5960000
  75.9300000  52.2150000  14.4670000  72.2430000  45.1110000   9.3420000
  74.4460000  44.0820000   9.4760000  75.9220000  45.8930000  10.7160000
  71.2150000  53.1600000  10.3070000  72.1130000  52.3660000   8.2350000
  69.1170000  52.2230000   7.2070000  68.5770000  49.9760000   7.8120000
  74.6610000  54.6160000  13.2820000  74.5860000  55.3950000  15.5450000
  71.4110000  54.3800000  15.1070000  71.8870000  52.6530000  16.6770000
  71.7660000  46.2890000   8.7860000  71.4570000  43.9640000   9.2630000
  75.2200000  43.2950000  10.3310000  74.5510000  43.8800000   8.1080000
  72.2310000  54.0920000  10.3910000  70.5510000  53.1230000  10.9860000
  73.1260000  53.3160000   8.2990000  72.0760000  51.7700000   7.4960000
  69.5980000  53.0280000   7.3590000  68.2640000  52.1380000   6.1110000
  68.0070000  50.2650000  10.3980000  67.7070000  49.9010000   6.7450000
  75.3010000  55.7810000  12.8990000  74.4680000  53.9490000  12.6330000
  75.2140000  56.5760000  15.1660000  74.3510000  55.2600000  16.4560000
  70.6340000  52.8000000  17.2430000  71.6630000  54.9230000  14.3690000
  70.1360000  54.5450000  15.6950000  72.4830000  52.0040000  17.0320000
  70.5240000  46.3360000   8.1670000  68.7010000  49.2160000   8.3690000
  70.2420000  43.9910000   8.6210000  71.7640000  43.1560000   9.6570000
  75.3910000  42.9060000   7.5800000  74.0370000  44.4200000   7.5190000
  76.0750000  42.3380000   9.8140000  72.2970000  47.0750000   8.8300000
  73.1990000  54.1640000   9.3920000  72.2700000  54.6860000  11.1320000
  73.7630000  53.3830000   7.5980000  67.5370000  50.9830000   5.8930000
  68.1810000  52.8720000   5.5140000  67.2190000  49.1010000   6.5910000
  75.5560000  55.9060000  11.9930000  75.5730000  56.7730000  13.8410000
  75.3980000  57.2470000  15.8130000  69.7670000  53.7490000  16.7450000
  69.5380000  55.2050000  15.3630000  70.3720000  52.2500000  17.9710000
  69.7650000  45.1760000   8.0730000  70.1960000  47.1530000   7.8100000
  69.7260000  43.1960000   8.5530000  76.1560000  42.1340000   8.4360000
  76.6100000  41.8160000  10.4000000  75.4390000  42.7720000   6.6400000
  74.1960000  55.0880000   9.5880000  66.6300000  50.7890000   4.8720000
  76.1760000  57.9020000  13.3560000  68.5470000  53.8170000  17.3950000
  68.5380000  45.0940000   7.4580000  76.9970000  41.1330000   8.0290000
  75.1930000  55.1940000   8.5680000  66.3900000  51.8770000   4.0190000
  76.3820000  58.9810000  14.2710000  67.5880000  54.6950000  16.8660000
  68.0540000  46.2610000   6.8010000  77.0860000  40.8770000   6.6290000
  74.7760000  55.4950000   7.7340000  75.8740000  55.8420000   8.8440000
  75.6110000  54.3190000   8.4280000  66.0770000  52.6410000   4.5460000
  67.2190000  52.1170000   3.5540000  65.7060000  51.6310000   3.3610000
  76.7880000  59.7370000  13.7990000  75.5210000  59.2570000  14.6500000
  76.9790000  58.6880000  14.9920000  67.4100000  54.4600000  15.9320000
  66.7590000  54.6240000  17.3850000  67.9250000  55.6140000  16.9140000
  67.2290000  46.0450000   6.3170000  67.8700000  46.9580000   7.4650000
  68.7290000  46.5840000   6.1690000  77.7300000  40.1570000   6.4690000
  77.3810000  41.6880000   6.1670000  76.2070000  40.6100000   6.2900000
  71.3140000  56.6700000  19.9300000  71.9960000  57.6190000  19.2070000
  70.8770000  55.5300000  19.2180000  72.5030000  58.6750000  19.9430000
  72.1940000  57.5750000  17.8380000  70.2010000  55.7950000  18.5590000
  70.4870000  54.8840000  19.8440000  71.6400000  55.1200000  18.7590000
  73.2090000  59.6860000  19.3250000  72.3640000  58.7040000  20.8820000
  72.9220000  58.5880000  17.2190000  71.8370000  56.8600000  17.3250000
  73.4280000  59.6520000  17.9490000  73.5480000  60.4080000  19.8400000
  73.0740000  58.5500000  16.2820000  74.1770000  60.6880000  17.3180000
  73.6890000  61.3380000  16.1700000  75.4030000  61.0730000  17.9420000
  74.5690000  61.9720000  15.2810000  72.3120000  61.3580000  15.9010000
  75.6140000  62.3550000  18.4130000  76.3930000  60.1100000  18.1530000
  74.0530000  62.5940000  14.1610000  75.5050000  61.9750000  15.4470000
  71.8100000  61.9910000  14.7820000  71.7130000  60.9280000  16.5000000
  77.5480000  60.4300000  18.8320000  74.9520000  63.0210000  18.2660000
  76.7820000  62.6900000  19.1020000  76.2690000  59.2280000  17.8240000
  72.6790000  62.6130000  13.8930000  74.8210000  63.2930000  13.0380000
  70.8740000  62.0020000  14.6190000  77.7470000  61.7160000  19.3150000
  76.9140000  63.5750000  19.4220000  78.2120000  59.7650000  18.9720000
  72.4480000  63.3530000  12.6500000  73.6810000  63.7790000  12.1470000
  75.7770000  64.3770000  13.5150000  75.7830000  62.3470000  12.3320000
  78.9180000  61.9020000  20.0030000  71.2810000  63.7150000  11.9830000
  73.7730000  64.5360000  10.9980000  75.4380000  65.5880000  14.0910000
  77.1040000  64.0270000  13.2470000  75.4380000  61.2620000  11.5600000
  77.1130000  62.7470000  12.5190000  79.2180000  63.2070000  20.4720000
  71.3590000  64.5000000  10.8430000  70.4360000  63.4260000  12.3080000
  72.5990000  64.9140000  10.3370000  74.6210000  64.7970000  10.6600000
  76.4550000  66.4790000  14.4400000  74.5280000  65.8090000  14.2480000
  78.1170000  64.9110000  13.6080000  74.5290000  60.9970000  11.4810000
  76.4450000  60.5500000  10.8890000  78.1180000  61.9770000  11.9410000
  78.5200000  63.4990000  21.0940000  79.2580000  63.8260000  19.7120000
  80.0830000  63.1990000  20.9330000  77.7140000  57.9130000  11.2710000
  72.6950000  65.7610000   9.1980000  76.1450000  67.7360000  15.0240000
  77.7890000  66.1170000  14.2080000  79.0260000  64.6900000  13.4440000
  76.0720000  59.5350000   9.9880000  77.7850000  60.8970000  11.1220000
  79.0300000  62.1860000  12.1040000  73.7090000  66.7710000   9.2340000
  71.8350000  65.6520000   8.0860000  76.8510000  68.9070000  14.6080000
  74.8480000  67.9330000  15.5960000  78.4840000  66.7110000  14.4670000
  74.7970000  59.6070000   9.3420000  77.0010000  58.5790000   9.4760000
  78.4760000  60.3890000  10.7160000  73.7690000  67.6560000  10.3070000
  74.6670000  66.8620000   8.2350000  71.6710000  66.7200000   7.2070000
  71.1310000  64.4720000   7.8120000  77.2150000  69.1120000  13.2820000
  77.1400000  69.8910000  15.5450000  73.9650000  68.8760000  15.1070000
  74.4410000  67.1490000  16.6770000  74.3200000  60.7850000   8.7860000
  74.0110000  58.4600000   9.2630000  77.7750000  57.7910000  10.3310000
  77.1050000  58.3770000   8.1080000  74.7860000  68.5890000  10.3910000
  73.1060000  67.6190000  10.9860000  75.6800000  67.8120000   8.2990000
  74.6300000  66.2660000   7.4960000  72.1520000  67.5240000   7.3590000
  70.8180000  66.6340000   6.1110000  70.5610000  64.7610000  10.3980000
  70.2610000  64.3970000   6.7450000  77.8550000  70.2770000  12.8990000
  77.0230000  68.4460000  12.6330000  77.7690000  71.0720000  15.1660000
  76.9050000  69.7560000  16.4560000  73.1880000  67.2960000  17.2430000
  74.2170000  69.4190000  14.3690000  72.6900000  69.0410000  15.6950000
  75.0380000  66.5000000  17.0320000  73.0780000  60.8320000   8.1670000
  71.2550000  63.7120000   8.3690000  72.7960000  58.4870000   8.6210000
  74.3180000  57.6520000   9.6570000  77.9450000  57.4020000   7.5800000
  76.5920000  58.9160000   7.5190000  78.6300000  56.8340000   9.8140000
  74.8510000  61.5720000   8.8300000  75.7540000  68.6600000   9.3920000
  74.8250000  69.1820000  11.1320000  76.3180000  67.8790000   7.5980000
  70.0910000  65.4790000   5.8930000  70.7350000  67.3680000   5.5140000
  69.7730000  63.5970000   6.5910000  78.1100000  70.4020000  11.9930000
  78.1270000  71.2690000  13.8410000  77.9520000  71.7430000  15.8130000
  72.3210000  68.2450000  16.7450000  72.0920000  69.7010000  15.3630000
  72.9260000  66.7460000  17.9710000  72.3190000  59.6720000   8.0730000
  72.7500000  61.6500000   7.8100000  72.2800000  57.6920000   8.5530000
  78.7110000  56.6300000   8.4360000  79.1650000  56.3120000  10.4000000
  77.9930000  57.2680000   6.6400000  76.7500000  69.5840000   9.5880000
  69.1840000  65.2850000   4.8720000  78.7310000  72.3990000  13.3560000
  71.1010000  68.3130000  17.3950000  71.0930000  59.5900000   7.4580000
  79.5510000  55.6290000   8.0290000  77.7470000  69.6900000   8.5680000
  68.9440000  66.3730000   4.0190000  78.9360000  73.4770000  14.2710000
  70.1420000  69.1910000  16.8660000  70.6080000  60.7580000   6.8010000
  79.6400000  55.3730000   6.6290000  77.3300000  69.9910000   7.7340000
  78.4280000  70.3390000   8.8440000  78.1650000  68.8150000   8.4280000
  68.6310000  67.1370000   4.5460000  69.7730000  66.6130000   3.5540000
  68.2610000  66.1270000   3.3610000  79.3420000  74.2340000  13.7990000
  78.0760000  73.7530000  14.6500000  79.5330000  73.1840000  14.9920000
  69.9650000  68.9560000  15.9320000  69.3130000  69.1200000  17.3850000
  70.4790000  70.1100000  16.9140000  69.7830000  60.5410000   6.3170000
  70.4240000  61.4540000   7.4650000  71.2830000  61.0800000   6.1690000
  80.2850000  54.6530000   6.4690000  79.9360000  56.1850000   6.1670000
  78.7610000  55.1060000   6.2900000  84.9280000  72.4600000  29.4830000
  84.3250000  71.3300000  29.9680000  85.4150000  63.2680000  36.5990000
  83.9660000  71.1330000  31.2930000  82.9800000  62.7510000  35.2290000
  85.4550000  63.8870000  35.8390000  84.7180000  63.5600000  37.2210000
  86.2800000  63.2600000  37.0600000  83.3380000  69.9520000  31.6720000
  81.0220000  69.2430000  27.2590000  83.3030000  58.4380000  24.2350000
  83.1120000  63.6360000  35.5490000  81.0460000  67.9950000  31.7230000
  83.1030000  69.8170000  32.5830000  84.6820000  66.7720000  30.5940000
  82.3430000  67.7970000  31.1510000  82.6530000  66.5400000  30.5670000
  83.0490000  68.9680000  30.7350000  81.6360000  65.6490000  30.2180000
  83.9870000  66.1780000  30.3350000  79.9670000  67.7180000  26.4340000
  83.4130000  69.1730000  29.4090000  81.9750000  64.4380000  29.6420000
  80.8190000  64.8580000  26.7870000  84.3140000  64.9720000  29.7350000
  81.2350000  66.5610000  33.1590000  80.9830000  68.6500000  26.5180000
  83.2200000  68.5070000  28.7600000  84.0530000  70.3380000  29.0260000
  83.9120000  57.9740000  27.3980000  83.3020000  64.0890000  29.3740000
  81.0190000  63.3540000  29.1650000  85.2240000  64.7510000  29.5710000
  81.9510000  68.7210000  25.5190000  78.2900000  69.7620000  31.4900000
  84.3080000  70.4630000  28.1200000  78.8770000  62.6750000  30.0200000
  80.2500000  62.6550000  30.2880000  79.8790000  63.8400000  28.2740000
  81.9810000  62.4080000  28.4590000  82.9480000  69.6450000  25.7150000
  78.0080000  62.0520000  30.9080000  80.7670000  62.0330000  31.4080000
  79.9710000  64.5970000  27.1250000  78.6460000  63.4140000  28.7770000
  81.6360000  61.3230000  27.6870000  83.3110000  62.8080000  28.6460000
  85.1340000  73.5380000  30.3980000  78.5090000  61.4190000  32.0280000
  77.0720000  62.0630000  30.7460000  79.8870000  61.3990000  32.2970000
  80.7270000  61.0590000  27.6080000  78.7960000  64.9750000  26.4640000
  80.7260000  65.8710000  30.3750000  77.4780000  63.7760000  28.1100000
  81.7020000  62.0360000  31.5740000  82.6420000  60.6110000  27.0160000
  84.3160000  62.0380000  28.0680000  85.7300000  73.2450000  31.1190000
  85.5400000  74.2950000  29.9260000  84.2730000  73.8140000  30.7770000
  77.9110000  60.9890000  32.6270000  80.3740000  60.7490000  33.4450000
  78.8920000  65.8220000  25.3250000  77.5570000  64.5610000  26.9700000
  76.6340000  63.4870000  28.4350000  82.2700000  59.5970000  26.1150000
  83.9820000  60.9590000  27.2490000  85.2280000  62.2470000  28.2310000
  81.6010000  61.1340000  34.0690000  79.6260000  59.7140000  34.0760000
  79.9070000  66.8320000  25.3610000  78.0320000  65.7140000  24.2130000
  80.8280000  66.3270000  23.6230000  80.9950000  59.6680000  25.4690000
  83.1980000  58.6400000  25.6030000  78.3500000  67.5850000  23.4860000
  81.8110000  62.4160000  34.5400000  79.1200000  58.6500000  33.3460000
  82.5910000  60.1720000  34.2800000  79.4070000  59.7470000  35.4520000
  77.8690000  66.7810000  23.3340000  77.3290000  64.5330000  23.9390000
  80.6390000  67.2100000  32.8040000  80.1630000  68.9380000  31.2340000
  80.5180000  60.8460000  24.9130000  83.9720000  57.8530000  26.4580000
  80.8650000  66.9230000  24.3620000  80.2090000  58.5210000  25.3900000
  79.2750000  60.8930000  24.2940000  79.7460000  60.4700000  35.9670000
  78.9940000  58.5480000  24.7480000  77.4530000  63.7740000  24.4960000
  82.7890000  58.9770000  23.6460000  78.3920000  57.6360000  33.9650000
  79.2720000  58.6110000  32.4090000  78.7010000  58.7360000  36.0700000
  76.4590000  64.4580000  22.8720000  76.7590000  64.8220000  26.5250000
  77.0160000  66.6950000  22.2380000  79.3030000  67.6810000  27.1130000
  78.8870000  69.1020000  31.8220000  81.1500000  63.0820000  34.3930000
  79.3860000  67.3580000  33.3700000  80.4150000  69.4800000  30.4960000
  83.7450000  60.4910000  34.9590000  82.4670000  59.2890000  33.9510000
  84.8270000  56.8950000  25.9410000  84.6740000  60.4500000  26.8430000
  81.8780000  67.8730000  24.4260000  81.0490000  61.6330000  24.9570000
  84.1430000  57.4640000  23.7070000  80.5160000  57.7130000  25.7840000
  78.5170000  59.7330000  24.2000000  78.9480000  61.7110000  23.9370000
  78.4770000  57.7540000  24.6800000  78.1940000  57.6800000  35.3340000
  78.0340000  56.9210000  33.4520000  78.5620000  58.7650000  37.0090000
  75.9710000  63.6580000  22.7180000  76.2890000  65.5400000  22.0200000
  76.9330000  67.4290000  21.6410000  78.5190000  68.3060000  32.8720000
  84.1500000  71.8040000  31.9400000  79.1240000  66.8070000  34.0980000
  83.9450000  61.7770000  35.4420000  85.3620000  56.3730000  26.5270000
  84.4100000  59.8260000  35.0990000  84.9080000  56.6910000  24.5630000
  82.5150000  67.9400000  23.7250000  84.1910000  57.3290000  22.7670000
  77.2900000  59.6510000  23.5850000  77.5120000  56.7310000  36.0570000
  75.3820000  65.3460000  20.9990000  77.2990000  68.3740000  33.5220000
  85.1150000  61.9630000  36.1300000  85.7490000  55.6900000  24.1560000
  75.1420000  66.4340000  20.1460000  77.0750000  55.5910000  35.3450000
  76.8060000  60.8190000  22.9280000  76.3400000  69.2520000  32.9930000
  83.9450000  69.7520000  24.6950000  85.8380000  55.4340000  22.7560000
  75.9710000  66.6740000  19.6810000  75.9810000  60.6020000  22.4440000
  77.4810000  61.1410000  22.2960000  77.8370000  55.1820000  34.8860000
  76.3990000  55.8560000  34.6860000  76.6850000  54.9450000  35.9710000
  74.8290000  67.1990000  20.6730000  76.6220000  61.5160000  23.5920000
  74.4580000  66.1880000  19.4880000  76.6770000  70.1710000  33.0410000
  75.5110000  69.1810000  33.5120000  76.1620000  69.0180000  32.0590000
  83.5280000  70.0520000  23.8610000  84.6260000  70.4000000  24.9710000
  84.3630000  68.8760000  24.5550000  86.1330000  56.2460000  22.2940000
  84.9590000  55.1680000  22.4170000  86.4820000  54.7150000  22.5960000
  91.1260000  72.5210000  45.6100000  90.5230000  71.3910000  46.0950000
  91.6130000  63.3300000  52.7260000  90.1640000  71.1950000  47.4200000
  89.1770000  62.8120000  51.3560000  91.6530000  63.9480000  51.9660000
  90.9150000  63.6220000  53.3480000  92.4780000  63.3210000  53.1870000
  89.5350000  70.0140000  47.7990000  87.2200000  69.3040000  43.3860000
  89.5010000  58.4990000  40.3620000  89.3100000  63.6970000  51.6760000
  87.2440000  68.0560000  47.8500000  89.3010000  69.8780000  48.7100000
  90.8790000  66.8330000  46.7210000  88.5400000  67.8580000  47.2780000
  88.8500000  66.6010000  46.6940000  89.2470000  69.0290000  46.8620000
  87.8340000  65.7100000  46.3450000  90.1850000  66.2390000  46.4620000
  86.1640000  67.7790000  42.5610000  89.6110000  69.2340000  45.5360000
  88.1720000  64.4990000  45.7690000  87.0170000  64.9190000  42.9140000
  90.5120000  65.0340000  45.8620000  87.4330000  66.6220000  49.2850000
  87.1810000  68.7110000  42.6450000  89.4180000  68.5680000  44.8870000
  90.2510000  70.3990000  45.1530000  90.1090000  58.0360000  43.5250000
  89.5000000  64.1500000  45.5010000  87.2170000  63.4160000  45.2920000
  91.4210000  64.8120000  45.6980000  88.1490000  68.7820000  41.6460000
  84.4880000  69.8230000  47.6170000  90.5050000  70.5240000  44.2470000
  85.0740000  62.7360000  46.1470000  86.4480000  62.7160000  46.4150000
  86.0770000  63.9010000  44.4010000  88.1780000  62.4690000  44.5860000
  89.1450000  69.7060000  41.8420000  84.2060000  62.1130000  47.0350000
  86.9650000  62.0950000  47.5350000  86.1680000  64.6580000  43.2520000
  84.8430000  63.4750000  44.9040000  87.8340000  61.3840000  43.8140000
  89.5090000  62.8690000  44.7730000  91.3320000  73.5990000  46.5250000
  84.7070000  61.4800000  48.1550000  83.2700000  62.1240000  46.8730000
  86.0850000  61.4600000  48.4240000  86.9250000  61.1200000  43.7350000
  84.9940000  65.0360000  42.5910000  86.9230000  65.9320000  46.5020000
  83.6760000  63.8370000  44.2370000  87.9000000  62.0970000  47.7010000
  88.8400000  60.6720000  43.1430000  90.5140000  62.0990000  44.1950000
  91.9280000  73.3070000  47.2460000  91.7370000  74.3560000  46.0530000
  90.4710000  73.8750000  46.9040000  84.1090000  61.0500000  48.7540000
  86.5720000  60.8100000  49.5720000  85.0900000  65.8830000  41.4520000
  83.7550000  64.6220000  43.0970000  82.8310000  63.5480000  44.5620000
  88.4670000  59.6580000  42.2420000  90.1800000  61.0200000  43.3760000
  91.4260000  62.3080000  44.3580000  87.7980000  61.1960000  50.1960000
  85.8240000  59.7750000  50.2030000  86.1050000  66.8930000  41.4880000
  84.2300000  65.7750000  40.3400000  87.0260000  66.3890000  39.7500000
  87.1920000  59.7290000  41.5950000  89.3960000  58.7010000  41.7300000
  84.5480000  67.6470000  39.6130000  88.0090000  62.4770000  50.6670000
  85.3180000  58.7110000  49.4730000  88.7890000  60.2330000  50.4070000
  85.6050000  59.8080000  51.5790000  84.0660000  66.8420000  39.4610000
  83.5270000  64.5940000  40.0660000  86.8370000  67.2710000  48.9310000
  86.3610000  68.9990000  47.3610000  86.7150000  60.9070000  41.0400000
  90.1700000  57.9140000  42.5850000  87.0630000  66.9840000  40.4890000
  86.4070000  58.5830000  41.5170000  85.4730000  60.9540000  40.4200000
  85.9440000  60.5310000  52.0940000  85.1910000  58.6090000  40.8750000
  83.6510000  63.8350000  40.6230000  88.9870000  59.0380000  39.7730000
  84.5890000  57.6970000  50.0920000  85.4690000  58.6720000  48.5360000
  84.8990000  58.7970000  52.1970000  82.6560000  64.5190000  38.9990000
  82.9570000  64.8830000  42.6520000  83.2130000  66.7560000  38.3650000
  85.5010000  67.7420000  43.2390000  85.0850000  69.1630000  47.9490000
  87.3470000  63.1430000  50.5200000  85.5840000  67.4190000  49.4970000
  86.6120000  69.5410000  46.6230000  89.9430000  60.5520000  51.0860000
  88.6640000  59.3500000  50.0780000  91.0250000  56.9560000  42.0680000
  90.8720000  60.5110000  42.9700000  88.0750000  67.9340000  40.5530000
  87.2460000  61.6940000  41.0840000  90.3410000  57.5250000  39.8340000
  86.7130000  57.7740000  41.9110000  84.7150000  59.7940000  40.3270000
  85.1460000  61.7720000  40.0640000  84.6750000  57.8150000  40.8070000
  84.3910000  57.7410000  51.4610000  84.2320000  56.9820000  49.5790000
  84.7600000  58.8260000  53.1360000  82.1680000  63.7190000  38.8450000
  82.4870000  65.6020000  38.1470000  83.1310000  67.4910000  37.7680000
  84.7160000  68.3670000  48.9990000  90.3470000  71.8650000  48.0670000
  85.3220000  66.8680000  50.2250000  90.1430000  61.8380000  51.5690000
  91.5600000  56.4340000  42.6540000  90.6080000  59.8880000  51.2260000
  91.1060000  56.7530000  40.6900000  88.7130000  68.0010000  39.8520000
  90.3880000  57.3910000  38.8940000  83.4880000  59.7120000  39.7120000
  83.7100000  56.7920000  52.1840000  81.5790000  65.4070000  37.1260000
  83.4960000  68.4360000  49.6490000  91.3130000  62.0240000  52.2570000
  91.9470000  55.7520000  40.2830000  81.3390000  66.4950000  36.2730000
  83.2730000  55.6520000  51.4720000  83.0030000  60.8800000  39.0550000
  82.5370000  69.3140000  49.1200000  90.1420000  69.8130000  40.8220000
  92.0360000  55.4960000  38.8830000  82.1680000  66.7360000  35.8080000
  82.1790000  60.6630000  38.5710000  83.6790000  61.2020000  38.4230000
  84.0350000  55.2430000  51.0130000  82.5970000  55.9170000  50.8130000
  82.8830000  55.0060000  52.0980000  81.0260000  67.2600000  36.8000000
  82.8200000  61.5770000  39.7190000  80.6560000  66.2490000  35.6150000
  82.8740000  70.2330000  49.1680000  81.7090000  69.2420000  49.6390000
  82.3600000  69.0790000  48.1860000  89.7250000  70.1130000  39.9880000
  90.8240000  70.4610000  41.0980000  90.5610000  68.9370000  40.6820000
  92.3310000  56.3070000  38.4210000  91.1570000  55.2290000  38.5440000
  92.6800000  54.7760000  38.7230000  68.5140000  14.4140000  13.3560000
  67.9100000  13.2840000  13.8410000  68.7190000  15.4920000  14.2710000
  67.6380000  12.2920000  12.8990000  67.5520000  13.0880000  15.1660000
  69.1250000  16.2490000  13.7990000  69.3160000  15.2000000  14.9920000
  67.8590000  15.7680000  14.6500000  64.4500000   8.8770000   8.2350000
  67.8930000  12.4170000  11.9930000  66.9980000  11.1270000  13.2820000
  67.7350000  13.7580000  15.8130000  66.6340000  10.9220000  14.6080000
  62.8890000   9.6350000  10.9860000  68.2670000   8.7260000  14.4670000
  62.4780000   7.7760000   9.1980000  66.2380000   8.4940000  14.4400000
  63.4920000   8.7860000   9.2340000  63.5560000   6.5510000  10.9980000
  67.5720000   8.1320000  14.2080000  63.5520000   9.6720000  10.3070000
  61.4540000   8.7350000   7.2070000  65.5600000   6.3920000  13.5150000
  64.4040000   6.8120000  10.6600000  67.9000000   6.9270000  13.6080000
  66.8060000  10.4610000  12.6330000  64.5690000  10.6040000  10.3910000
  64.0000000  11.4340000  14.3690000  65.4630000   9.8270000   8.2990000
  64.4130000   8.2820000   7.4960000  62.2310000   5.3680000  12.6500000
  64.6040000   5.3090000  13.0380000  68.8090000   6.7050000  13.4440000
  65.5370000  10.6750000   9.3920000  64.6080000  11.1970000  11.1320000
  66.1010000   9.8940000   7.5980000  66.8870000   6.0430000  13.2470000
  63.8360000   4.6090000  14.1610000  63.4640000   5.7940000  12.1470000
  65.5660000   4.3620000  12.3320000  66.5330000  11.5990000   9.5880000
  61.5930000   4.0060000  14.7820000  65.2210000   7.6030000  14.0910000
  65.2210000   3.2770000  11.5600000  62.4620000   4.6290000  13.8930000
  64.3520000   3.9880000  15.2810000  66.8960000   4.7620000  12.5190000
  60.3910000   2.7730000   6.8010000  62.0950000   3.3730000  15.9010000
  68.8130000   4.2010000  12.1040000  63.4720000   3.3530000  16.1700000
  65.2880000   3.9900000  15.4470000  62.3820000   6.9290000  10.3370000
  64.3110000   7.8250000  14.2480000  61.0640000   5.7300000  11.9830000
  64.3120000   3.0130000  11.4810000  66.2280000   2.5650000  10.8890000
  67.9010000   3.9920000  11.9410000  60.2070000   3.4700000   7.4650000
  58.0440000   8.1420000   3.3610000  61.0660000   3.0950000   6.1690000
  66.6880000  11.7710000  16.4560000  65.9280000   9.7510000  15.0240000
  65.8550000   1.5510000   9.9880000  61.1420000   6.5150000  10.8430000
  60.6570000   4.0170000  14.6190000  63.9600000   2.7030000  17.3180000
  67.5680000   2.9130000  11.1220000  60.2190000   5.4410000  12.3080000
  63.2120000   1.6680000  17.9490000  65.1860000   3.0890000  17.9420000
  66.7840000   0.5940000   9.4760000  61.6180000   7.6680000   8.0860000
  61.0380000   5.7280000   8.3690000  64.6310000   9.9490000  15.5960000
  64.5800000   1.6220000   9.3420000  64.1010000  -0.3330000   9.6570000
  62.7050000   0.6040000  17.2190000  66.1760000   2.1260000  18.1530000
  62.9930000   1.7010000  19.3250000  65.3970000   4.3700000  18.4130000
  63.7940000   0.4760000   9.2630000  66.8880000   0.3920000   8.1080000
  63.7480000  10.8920000  15.1070000  60.9140000   6.4870000   7.8120000
  64.2240000   9.1640000  16.6770000  66.9230000  11.9070000  15.5450000
  64.1030000   2.8000000   8.7860000  67.5580000  -0.1930000  10.3310000
  60.0440000   6.4120000   6.7450000  61.4960000   2.9430000  16.5000000
  61.9770000  -0.4100000  17.8380000  62.8570000   0.5650000  16.2820000
  63.3320000   2.4240000  19.8400000  62.2860000   0.6900000  19.9430000
  64.8210000   8.5150000  17.0320000  67.3310000   2.4450000  18.8320000
  62.5790000   0.5020000   8.6210000  67.4970000  -0.0720000  11.2710000
  62.8610000   2.8470000   8.1670000  61.9350000   9.5400000   7.3590000
  62.9710000   9.3120000  17.2430000  64.7350000   5.0360000  18.2660000
  62.4730000  11.0560000  15.6950000  60.3440000   6.7760000  10.3980000
  66.5650000   4.7050000  19.1020000  66.0520000   1.2430000  17.8240000
  68.4130000  -1.1510000   9.8140000  66.3750000   0.9310000   7.5190000
  60.6010000   8.6490000   6.1110000  64.6340000   3.5870000   8.8300000
  67.7280000  -0.5820000   7.5800000  68.2600000   2.4040000  10.7160000
  61.7790000  -0.3660000  19.2070000  62.5330000   3.6650000   7.8100000
  61.6200000  -1.1250000  17.3250000  67.5300000   3.7310000  19.3150000
  62.1470000   0.7190000  20.8820000  67.9950000   1.7810000  18.9720000
  62.0630000  -0.2920000   8.5530000  62.1020000   1.6870000   8.0730000
  59.5560000   5.6120000   6.5910000  62.1040000  10.2600000  16.7450000
  62.7090000   8.7610000  17.9710000  61.8750000  11.7160000  15.3630000
  68.4940000  -1.3540000   8.4360000  66.6970000   5.5900000  19.4220000
  67.7760000  -0.7160000   6.6400000  59.8740000   7.4950000   5.8930000
  60.5180000   9.3840000   5.5140000  68.9480000  -1.6730000  10.4000000
  61.0970000  -1.3150000  19.9300000  68.7010000   3.9170000  20.0030000
  60.8760000   1.6050000   7.4580000  60.8840000  10.3290000  17.3950000
  69.3350000  -2.3550000   8.0290000  58.9670000   7.3000000   4.8720000
  60.6600000  -2.4550000  19.2180000  67.5300000  11.7060000   8.5680000
  58.7270000   8.3880000   4.0190000  59.9250000  11.2070000  16.8660000
  69.0010000   5.2230000  20.4720000  69.4230000  -2.6110000   6.6290000
  59.9840000  -2.1900000  18.5590000  60.2700000  -3.1010000  19.8440000
  61.4230000  -2.8640000  18.7590000  67.9480000  10.8300000   8.4280000
  67.1130000  12.0060000   7.7340000  68.2110000  12.3540000   8.8440000
  59.5560000   8.6290000   3.5540000  58.4140000   9.1530000   4.5460000
  59.5660000   2.5560000   6.3170000  59.7480000  10.9720000  15.9320000
  59.0960000  11.1350000  17.3850000  60.2620000  12.1260000  16.9140000
  69.0410000   5.8410000  19.7120000  69.8660000   5.2140000  20.9330000
  68.3030000   5.5150000  21.0940000  69.7190000  -1.8000000   6.1670000
  70.0680000  -3.3310000   6.4690000  68.5440000  -2.8780000   6.2900000
  32.1960000  26.7590000  40.2830000  31.3560000  27.7600000  40.6900000
  32.2850000  26.5030000  38.8830000  30.5900000  28.5320000  39.8340000
  25.3350000  40.1710000  47.9490000  32.5810000  27.3140000  38.4210000
  32.1780000  44.3140000  47.2460000  32.9290000  25.7830000  38.7230000
  29.7500000  29.5060000  40.3620000  31.8100000  27.4420000  42.6540000
  27.0860000  38.2790000  48.9310000  28.9630000  39.0090000  39.8520000
  29.6450000  29.7090000  41.7300000  30.3590000  29.0430000  43.5250000
  27.4960000  32.7010000  41.0840000  28.7170000  30.6650000  42.2420000
  29.0890000  31.6800000  43.1430000  28.0480000  32.2030000  50.1960000
  28.0830000  32.3920000  43.8140000  30.4300000  32.0270000  43.3760000
  30.4200000  28.9210000  42.5850000  29.0380000  31.2400000  50.4070000
  28.4280000  33.4770000  44.5860000  28.1500000  33.1050000  47.7010000
  30.7630000  33.1070000  44.1950000  31.1210000  31.5190000  42.9700000
  31.2750000  27.9640000  42.0680000  29.2360000  30.0460000  39.7730000
  30.1930000  31.5600000  51.0860000  27.5970000  34.1510000  50.5200000
  29.7580000  33.8770000  44.7730000  27.4660000  34.4230000  45.2920000
  31.6750000  33.3160000  44.3580000  30.3920000  32.8460000  51.5690000
  30.8570000  30.8950000  51.2260000  29.5590000  34.7050000  51.6760000
  25.0930000  34.4830000  44.9040000  26.3260000  34.9090000  44.4010000
  26.6980000  33.7240000  46.4150000  28.4220000  35.5070000  45.7690000
  31.5620000  33.0320000  52.2570000  23.9260000  34.8450000  44.2370000
  26.4180000  35.6650000  43.2520000  27.2140000  33.1020000  47.5350000
  25.3240000  33.7430000  46.1470000  28.0830000  36.7170000  46.3450000
  29.7490000  35.1570000  45.5010000  31.8630000  34.3370000  52.7260000
  24.0040000  35.6300000  43.0970000  23.0810000  34.5560000  44.5620000
  25.2430000  36.0440000  42.5910000  27.1730000  36.9390000  46.5020000
  26.3340000  32.4670000  48.4240000  27.1740000  32.1270000  43.7350000
  24.4550000  33.1210000  47.0350000  27.2660000  35.9270000  42.9140000
  29.1000000  37.6090000  46.6940000  30.7620000  36.0410000  45.8620000
  31.9030000  34.9560000  51.9660000  32.7280000  34.3290000  53.1870000
  31.1650000  34.6290000  53.3480000  23.9000000  34.8420000  40.6230000
  25.3400000  36.8910000  41.4520000  26.8220000  31.8180000  49.5720000
  24.9570000  32.4880000  48.1550000  23.5190000  33.1310000  46.8730000
  28.7900000  38.8660000  47.2780000  30.4340000  37.2470000  46.4620000
  31.6710000  35.8200000  45.6980000  24.4800000  36.7820000  40.3400000
  26.3540000  37.9010000  41.4880000  26.0730000  30.7820000  50.2030000
  27.4420000  30.7370000  41.5950000  26.1930000  31.5380000  52.0940000
  27.4930000  39.0630000  47.8500000  29.4960000  40.0370000  46.8620000
  29.5500000  40.8860000  48.7100000  26.6560000  29.5900000  41.5170000
  29.7850000  41.0210000  47.7990000  23.7760000  35.6020000  40.0660000
  24.3160000  37.8490000  39.4610000  28.2580000  33.4850000  50.6670000
  25.8540000  30.8160000  51.5790000  26.9650000  31.9150000  41.0400000
  25.5670000  29.7180000  49.4730000  26.4140000  38.7860000  42.5610000
  27.3120000  37.9920000  40.4890000  26.6100000  40.0060000  47.3610000
  29.8600000  40.2420000  45.5360000  29.4270000  33.8200000  51.3560000
  23.2060000  35.8910000  42.6520000  25.8330000  38.4260000  49.4970000
  25.7500000  38.7490000  43.2390000  24.7970000  38.6540000  39.6130000
  23.4630000  37.7640000  38.3650000  27.2750000  37.3960000  39.7500000
  22.9060000  35.5270000  38.9990000  24.8390000  28.7050000  50.0920000
  24.3580000  32.0580000  48.7540000  25.1480000  29.8050000  52.1970000
  25.7190000  29.6800000  48.5360000  25.4410000  29.6170000  40.8750000
  26.9630000  28.7820000  41.9110000  25.7230000  31.9620000  40.4200000
  28.9140000  30.3580000  50.0780000  27.4310000  39.7190000  42.6450000
  27.6830000  37.6300000  49.2850000  30.5000000  41.4070000  45.1530000
  29.6680000  39.5750000  44.8870000  28.3250000  38.9420000  40.5530000
  31.1290000  37.8410000  46.7210000  30.4140000  42.2020000  47.4200000
  26.8620000  40.5490000  46.6230000  24.9660000  39.3750000  48.9990000
  25.3950000  32.7790000  40.0640000  25.5710000  37.8760000  50.2250000
  22.7360000  36.6090000  38.1470000  22.4180000  34.7270000  38.8450000
  23.3800000  38.4980000  37.7680000  25.0090000  29.8340000  53.1360000
  24.6410000  28.7490000  51.4610000  24.4820000  27.9890000  49.5790000
  24.9640000  30.8020000  40.3270000  24.9250000  28.8220000  40.8070000
  30.6380000  28.3980000  38.8940000  28.3990000  39.7900000  41.6460000
  24.7370000  40.8310000  47.6170000  30.7550000  41.5320000  44.2470000
  30.7720000  42.3990000  46.0950000  30.5970000  42.8730000  48.0670000
  27.4690000  40.3120000  43.3860000  23.7460000  39.4430000  49.6490000
  21.8290000  36.4150000  37.1260000  23.9590000  27.8000000  52.1840000
  23.7370000  30.7200000  39.7120000  29.3950000  40.7140000  41.8420000
  31.3760000  43.5280000  45.6100000  22.7870000  40.3210000  49.1200000
  21.5890000  37.5030000  36.2730000  23.5220000  26.6600000  51.4720000
  23.2530000  31.8870000  39.0550000  30.3920000  40.8200000  40.8220000
  31.5810000  44.6070000  46.5250000  23.0690000  32.5840000  39.7190000
  21.9580000  40.2500000  49.6390000  22.6090000  40.0860000  48.1860000
  21.2760000  38.2670000  36.8000000  20.9060000  37.2570000  35.6150000
  22.4180000  37.7430000  35.8080000  23.1320000  26.0140000  52.0980000
  24.2850000  26.2500000  51.0130000  22.8460000  26.9250000  50.8130000
  23.9280000  32.2100000  38.4230000  31.4060000  26.2360000  38.5440000
  22.4280000  31.6710000  38.5710000  30.8100000  39.9450000  40.6820000
  31.0730000  41.4680000  41.0980000  29.9750000  41.1210000  39.9880000
  23.1240000  41.2400000  49.1680000  30.7210000  44.8830000  46.9040000
  31.9870000  45.3640000  46.0530000  25.9990000  26.6980000  24.1560000
  25.1580000  27.6990000  24.5630000  26.0870000  26.4420000  22.7560000
  24.3920000  28.4710000  23.7070000  19.1370000  40.1100000  31.8220000
  26.3830000  27.2530000  22.2940000  25.9800000  44.2530000  31.1190000
  26.7320000  25.7220000  22.5960000  23.5530000  29.4450000  24.2350000
  25.6120000  27.3810000  26.5270000  20.8880000  38.2170000  32.8040000
  22.7650000  38.9480000  23.7250000  23.4480000  29.6470000  25.6030000
  24.1610000  28.9820000  27.3980000  21.2980000  32.6400000  24.9570000
  22.5190000  30.6040000  26.1150000  22.8920000  31.6190000  27.0160000
  21.8500000  32.1420000  34.0690000  21.8850000  32.3310000  27.6870000
  24.2320000  31.9660000  27.2490000  24.2220000  28.8600000  26.4580000
  22.8400000  31.1790000  34.2800000  22.2300000  33.4160000  28.4590000
  21.9520000  33.0430000  31.5740000  24.5650000  33.0460000  28.0680000
  24.9240000  31.4580000  26.8430000  25.0770000  27.9030000  25.9410000
  23.0390000  29.9850000  23.6460000  23.9950000  31.4990000  34.9590000
  21.3990000  34.0900000  34.3930000  23.5600000  33.8150000  28.6460000
  21.2690000  34.3620000  29.1650000  25.4780000  33.2550000  28.2310000
  24.1940000  32.7850000  35.4420000  24.6600000  30.8340000  35.0990000
  23.3620000  34.6440000  35.5490000  18.8950000  34.4220000  28.7770000
  20.1290000  34.8480000  28.2740000  20.5000000  33.6630000  30.2880000
  22.2240000  35.4460000  29.6420000  25.3650000  32.9710000  36.1300000
  17.7280000  34.7840000  28.1100000  20.2200000  35.6040000  27.1250000
  21.0170000  33.0410000  31.4080000  19.1260000  33.6820000  30.0200000
  21.8860000  36.6560000  30.2180000  23.5510000  35.0960000  29.3740000
  25.6650000  34.2760000  36.5990000  17.8060000  35.5690000  26.9700000
  16.8830000  34.4950000  28.4350000  19.0460000  35.9830000  26.4640000
  20.9750000  36.8780000  30.3750000  20.1370000  32.4060000  32.2970000
  20.9760000  32.0660000  27.6080000  18.2570000  33.0600000  30.9080000
  21.0690000  35.8650000  26.7870000  22.9020000  37.5470000  30.5670000
  24.5640000  35.9800000  29.7350000  25.7050000  34.8950000  35.8390000
  26.5300000  34.2670000  37.0600000  24.9670000  34.5680000  37.2210000
  17.7030000  34.7810000  24.4960000  19.1420000  36.8300000  25.3250000
  20.6240000  31.7570000  33.4450000  18.7590000  32.4270000  32.0280000
  17.3210000  33.0700000  30.7460000  22.5920000  38.8050000  31.1510000
  24.2360000  37.1860000  30.3350000  25.4730000  35.7590000  29.5710000
  18.2820000  36.7210000  24.2130000  20.1570000  37.8400000  25.3610000
  19.8760000  30.7210000  34.0760000  21.2440000  30.6760000  25.4690000
  19.9960000  31.4770000  35.9670000  21.2950000  39.0020000  31.7230000
  23.2980000  39.9760000  30.7350000  23.3530000  40.8250000  32.5830000
  20.4580000  29.5290000  25.3900000  23.5870000  40.9600000  31.6720000
  17.5780000  35.5410000  23.9390000  18.1180000  37.7880000  23.3340000
  22.0610000  33.4240000  34.5400000  19.6570000  30.7540000  35.4520000
  20.7670000  31.8540000  24.9130000  19.3690000  29.6570000  33.3460000
  20.2160000  38.7250000  26.4340000  21.1140000  37.9310000  24.3620000
  20.4120000  39.9450000  31.2340000  23.6620000  40.1810000  29.4090000
  23.2290000  33.7590000  35.2290000  17.0080000  35.8300000  26.5250000
  19.6360000  38.3650000  33.3700000  19.5530000  38.6880000  27.1130000
  18.6000000  38.5930000  23.4860000  17.2650000  37.7030000  22.2380000
  21.0780000  37.3350000  23.6230000  16.7080000  35.4660000  22.8720000
  18.6410000  28.6430000  33.9650000  18.1610000  31.9970000  32.6270000
  18.9510000  29.7440000  36.0700000  19.5210000  29.6190000  32.4090000
  19.2430000  29.5560000  24.7480000  20.7650000  28.7210000  25.7840000
  19.5250000  31.9010000  24.2940000  22.7160000  30.2970000  33.9510000
  21.2330000  39.6570000  26.5180000  21.4850000  37.5690000  33.1590000
  24.3020000  41.3460000  29.0260000  23.4700000  39.5140000  28.7600000
  22.1270000  38.8810000  24.4260000  24.9310000  37.7800000  30.5940000
  24.2160000  42.1410000  31.2930000  20.6640000  40.4880000  30.4960000
  18.7680000  39.3140000  32.8720000  19.1970000  32.7180000  23.9370000
  19.3730000  37.8150000  34.0980000  16.5390000  36.5480000  22.0200000
  16.2200000  34.6660000  22.7180000  17.1830000  38.4370000  21.6410000
  18.8110000  29.7730000  37.0090000  18.4430000  28.6880000  35.3340000
  18.2840000  27.9280000  33.4520000  18.7660000  30.7410000  24.2000000
  18.7270000  28.7610000  24.6800000  24.4400000  28.3370000  22.7670000
  22.2010000  39.7290000  25.5190000  18.5390000  40.7700000  31.4900000
  24.5570000  41.4710000  28.1200000  24.5740000  42.3380000  29.9680000
  24.3990000  42.8120000  31.9400000  21.2720000  40.2510000  27.2590000
  17.5480000  39.3820000  33.5220000  15.6310000  36.3540000  20.9990000
  17.7620000  27.7380000  36.0570000  17.5400000  30.6590000  23.5850000
  23.1970000  40.6530000  25.7150000  25.1780000  43.4670000  29.4830000
  16.5890000  40.2600000  32.9930000  15.3910000  37.4420000  20.1460000
  17.3240000  26.5980000  35.3450000  17.0550000  31.8260000  22.9280000
  24.1940000  40.7590000  24.6950000  25.3840000  44.5460000  30.3980000
  16.8720000  32.5230000  23.5920000  15.7610000  40.1890000  33.5120000
  16.4120000  40.0250000  32.0590000  15.0780000  38.2060000  20.6730000
  14.7080000  37.1960000  19.4880000  16.2200000  37.6820000  19.6810000
  16.9340000  25.9530000  35.9710000  18.0870000  26.1890000  34.8860000
  16.6480000  26.8640000  34.6860000  17.7300000  32.1490000  22.2960000
  25.2090000  26.1750000  22.4170000  16.2310000  31.6100000  22.4440000
  24.6130000  39.8840000  24.5550000  24.8750000  41.4070000  24.9710000
  23.7770000  41.0600000  23.8610000  16.9260000  41.1790000  33.0410000
  24.5230000  44.8210000  30.7770000  25.7890000  45.3020000  29.9260000
  34.7510000  41.2550000  40.2830000  33.9100000  42.2560000  40.6900000
  34.8390000  40.9990000  38.8830000  33.1440000  43.0290000  39.8340000
  27.8890000  54.6670000  47.9490000  35.1350000  41.8110000  38.4210000
  34.7320000  58.8100000  47.2460000  35.4840000  40.2800000  38.7230000
  32.3050000  44.0030000  40.3620000  34.3640000  41.9380000  42.6540000
  29.6400000  52.7750000  48.9310000  31.5170000  53.5050000  39.8520000
  32.2000000  44.2050000  41.7300000  32.9130000  43.5390000  43.5250000
  30.0500000  47.1980000  41.0840000  31.2710000  45.1620000  42.2420000
  31.6440000  46.1760000  43.1430000  30.6020000  46.6990000  50.1960000
  30.6370000  46.8880000  43.8140000  32.9840000  46.5240000  43.3760000
  32.9740000  43.4170000  42.5850000  31.5920000  45.7370000  50.4070000
  30.9820000  47.9730000  44.5860000  30.7040000  47.6010000  47.7010000
  33.3170000  47.6030000  44.1950000  33.6760000  46.0150000  42.9700000
  33.8290000  42.4600000  42.0680000  31.7910000  44.5420000  39.7730000
  32.7470000  46.0560000  51.0860000  30.1510000  48.6470000  50.5200000
  32.3120000  48.3730000  44.7730000  30.0210000  48.9190000  45.2920000
  34.2300000  47.8120000  44.3580000  32.9460000  47.3420000  51.5690000
  33.4120000  45.3910000  51.2260000  32.1140000  49.2010000  51.6760000
  27.6470000  48.9790000  44.9040000  28.8810000  49.4050000  44.4010000
  29.2520000  48.2200000  46.4150000  30.9760000  50.0030000  45.7690000
  34.1170000  47.5280000  52.2570000  26.4800000  49.3410000  44.2370000
  28.9720000  50.1620000  43.2520000  29.7690000  47.5980000  47.5350000
  27.8780000  48.2400000  46.1470000  30.6370000  51.2140000  46.3450000
  32.3030000  49.6540000  45.5010000  34.4170000  48.8330000  52.7260000
  26.5580000  50.1260000  43.0970000  25.6350000  49.0520000  44.5620000
  27.7980000  50.5400000  42.5910000  29.7270000  51.4360000  46.5020000
  28.8890000  46.9640000  48.4240000  29.7280000  46.6230000  43.7350000
  27.0090000  47.6170000  47.0350000  29.8210000  50.4230000  42.9140000
  31.6540000  52.1050000  46.6940000  33.3160000  50.5370000  45.8620000
  34.4570000  49.4520000  51.9660000  35.2820000  48.8250000  53.1870000
  33.7190000  49.1250000  53.3480000  26.4550000  49.3390000  40.6230000
  27.8940000  51.3870000  41.4520000  29.3760000  46.3140000  49.5720000
  27.5110000  46.9840000  48.1550000  26.0730000  47.6280000  46.8730000
  31.3440000  53.3620000  47.2780000  32.9880000  51.7430000  46.4620000
  34.2250000  50.3160000  45.6980000  27.0340000  51.2790000  40.3400000
  28.9090000  52.3970000  41.4880000  28.6280000  45.2790000  50.2030000
  29.9960000  45.2330000  41.5950000  28.7480000  46.0350000  52.0940000
  30.0470000  53.5600000  47.8500000  32.0500000  54.5330000  46.8620000
  32.1050000  55.3820000  48.7100000  29.2100000  44.0860000  41.5170000
  32.3390000  55.5170000  47.7990000  26.3300000  50.0980000  40.0660000
  26.8700000  52.3460000  39.4610000  30.8130000  47.9810000  50.6670000
  28.4090000  45.3120000  51.5790000  29.5190000  46.4110000  41.0400000
  28.1210000  44.2150000  49.4730000  28.9680000  53.2820000  42.5610000
  29.8660000  52.4880000  40.4890000  29.1640000  54.5030000  47.3610000
  32.4140000  54.7380000  45.5360000  31.9810000  48.3160000  51.3560000
  25.7600000  50.3870000  42.6520000  28.3880000  52.9220000  49.4970000
  28.3050000  53.2450000  43.2390000  27.3510000  53.1500000  39.6130000
  26.0170000  52.2600000  38.3650000  29.8300000  51.8920000  39.7500000
  25.4600000  50.0230000  38.9990000  27.3930000  43.2010000  50.0920000
  26.9130000  46.5540000  48.7540000  27.7030000  44.3010000  52.1970000
  28.2730000  44.1760000  48.5360000  27.9950000  44.1130000  40.8750000
  29.5170000  43.2780000  41.9110000  28.2770000  46.4580000  40.4200000
  31.4680000  44.8540000  50.0780000  29.9850000  54.2150000  42.6450000
  30.2370000  52.1260000  49.2850000  33.0540000  55.9030000  45.1530000
  32.2220000  54.0720000  44.8870000  30.8790000  53.4380000  40.5530000
  33.6830000  52.3370000  46.7210000  32.9680000  56.6980000  47.4200000
  29.4160000  55.0450000  46.6230000  27.5200000  53.8710000  48.9990000
  27.9490000  47.2760000  40.0640000  28.1250000  52.3720000  50.2250000
  25.2910000  51.1050000  38.1470000  24.9720000  49.2230000  38.8450000
  25.9350000  52.9940000  37.7680000  27.5630000  44.3300000  53.1360000
  27.1950000  43.2450000  51.4610000  27.0360000  42.4860000  49.5790000
  27.5180000  45.2980000  40.3270000  27.4790000  43.3190000  40.8070000
  33.1920000  42.8940000  38.8940000  30.9530000  54.2860000  41.6460000
  27.2910000  55.3270000  47.6170000  33.3090000  56.0280000  44.2470000
  33.3260000  56.8950000  46.0950000  33.1510000  57.3690000  48.0670000
  30.0240000  54.8080000  43.3860000  26.3000000  53.9390000  49.6490000
  24.3830000  50.9110000  37.1260000  26.5140000  42.2960000  52.1840000
  26.2920000  45.2160000  39.7120000  31.9490000  55.2100000  41.8420000
  33.9300000  58.0250000  45.6100000  25.3410000  54.8170000  49.1200000
  24.1430000  51.9990000  36.2730000  26.0760000  41.1560000  51.4720000
  25.8070000  46.3840000  39.0550000  32.9460000  55.3170000  40.8220000
  34.1360000  59.1030000  46.5250000  25.6240000  47.0810000  39.7190000
  24.5120000  54.7460000  49.6390000  25.1640000  54.5830000  48.1860000
  23.8300000  52.7640000  36.8000000  23.4600000  51.7530000  35.6150000
  24.9720000  52.2390000  35.8080000  25.6860000  40.5100000  52.0980000
  26.8390000  40.7460000  51.0130000  25.4000000  41.4210000  50.8130000
  26.4820000  46.7060000  38.4230000  33.9610000  40.7330000  38.5440000
  24.9820000  46.1670000  38.5710000  33.3650000  54.4410000  40.6820000
  33.6270000  55.9650000  41.0980000  32.5290000  55.6170000  39.9880000
  25.6780000  55.7360000  49.1680000  33.2750000  59.3790000  46.9040000
  34.5410000  59.8600000  46.0530000  28.5530000  41.1940000  24.1560000
  27.7120000  42.1950000  24.5630000  28.6420000  40.9380000  22.7560000
  26.9470000  42.9670000  23.7070000  21.6910000  54.6060000  31.8220000
  28.9370000  41.7490000  22.2940000  28.5340000  58.7490000  31.1190000
  29.2860000  40.2180000  22.5960000  26.1070000  43.9420000  24.2350000
  28.1660000  41.8770000  26.5270000  23.4430000  52.7140000  32.8040000
  25.3190000  53.4440000  23.7250000  26.0020000  44.1440000  25.6030000
  26.7160000  43.4780000  27.3980000  23.8520000  47.1360000  24.9570000
  25.0730000  45.1000000  26.1150000  25.4460000  46.1150000  27.0160000
  24.4040000  46.6380000  34.0690000  24.4400000  46.8270000  27.6870000
  26.7860000  46.4620000  27.2490000  26.7760000  43.3560000  26.4580000
  25.3950000  45.6750000  34.2800000  24.7840000  47.9120000  28.4590000
  24.5060000  47.5400000  31.5740000  27.1200000  47.5420000  28.0680000
  27.4780000  45.9540000  26.8430000  27.6310000  42.3990000  25.9410000
  25.5930000  44.4810000  23.6460000  26.5490000  45.9950000  34.9590000
  23.9530000  48.5860000  34.3930000  26.1150000  48.3120000  28.6460000
  23.8230000  48.8580000  29.1650000  28.0320000  47.7510000  28.2310000
  26.7490000  47.2810000  35.4420000  27.2140000  45.3300000  35.0990000
  25.9160000  49.1400000  35.5490000  21.4490000  48.9180000  28.7770000
  22.6830000  49.3440000  28.2740000  23.0540000  48.1590000  30.2880000
  24.7780000  49.9420000  29.6420000  27.9190000  47.4670000  36.1300000
  20.2820000  49.2800000  28.1100000  22.7740000  50.1000000  27.1250000
  23.5710000  47.5370000  31.4080000  21.6800000  48.1780000  30.0200000
  24.4400000  51.1520000  30.2180000  26.1060000  49.5920000  29.3740000
  28.2190000  48.7720000  36.5990000  20.3610000  50.0650000  26.9700000
  19.4370000  48.9910000  28.4350000  21.6000000  50.4790000  26.4640000
  23.5290000  51.3740000  30.3750000  22.6910000  46.9030000  32.2970000
  23.5310000  46.5620000  27.6080000  20.8120000  47.5560000  30.9080000
  23.6230000  50.3620000  26.7870000  25.4560000  52.0440000  30.5670000
  27.1180000  50.4760000  29.7350000  28.2590000  49.3910000  35.8390000
  29.0840000  48.7640000  37.0600000  27.5210000  49.0640000  37.2210000
  20.2570000  49.2770000  24.4960000  21.6960000  51.3260000  25.3250000
  23.1780000  46.2530000  33.4450000  21.3130000  46.9230000  32.0280000
  19.8760000  47.5670000  30.7460000  25.1460000  53.3010000  31.1510000
  26.7910000  51.6820000  30.3350000  28.0270000  50.2550000  29.5710000
  20.8360000  51.2170000  24.2130000  22.7110000  52.3360000  25.3610000
  22.4300000  45.2170000  34.0760000  23.7990000  45.1720000  25.4690000
  22.5500000  45.9730000  35.9670000  23.8500000  53.4980000  31.7230000
  25.8530000  54.4720000  30.7350000  25.9070000  55.3210000  32.5830000
  23.0130000  44.0250000  25.3900000  26.1410000  55.4560000  31.6720000
  20.1330000  50.0370000  23.9390000  20.6720000  52.2840000  23.3340000
  24.6150000  47.9200000  34.5400000  22.2110000  45.2510000  35.4520000
  23.3210000  46.3500000  24.9130000  21.9240000  44.1530000  33.3460000
  22.7700000  53.2210000  26.4340000  23.6690000  52.4270000  24.3620000
  22.9670000  54.4410000  31.2340000  26.2170000  54.6770000  29.4090000
  25.7830000  48.2550000  35.2290000  19.5630000  50.3260000  26.5250000
  22.1900000  52.8610000  33.3700000  22.1070000  53.1840000  27.1130000
  21.1540000  53.0890000  23.4860000  19.8200000  52.1990000  22.2380000
  23.6320000  51.8310000  23.6230000  19.2630000  49.9620000  22.8720000
  21.1950000  43.1400000  33.9650000  20.7150000  46.4930000  32.6270000
  21.5050000  44.2400000  36.0700000  22.0750000  44.1150000  32.4090000
  21.7970000  44.0520000  24.7480000  23.3190000  43.2170000  25.7840000
  22.0790000  46.3970000  24.2940000  25.2700000  44.7930000  33.9510000
  23.7870000  54.1540000  26.5180000  24.0390000  52.0650000  33.1590000
  26.8570000  55.8420000  29.0260000  26.0240000  54.0110000  28.7600000
  24.6810000  53.3770000  24.4260000  27.4850000  52.2760000  30.5940000
  26.7700000  56.6370000  31.2930000  23.2180000  54.9840000  30.4960000
  21.3220000  53.8100000  32.8720000  21.7520000  47.2150000  23.9370000
  21.9280000  52.3110000  34.0980000  19.0930000  51.0440000  22.0200000
  18.7740000  49.1620000  22.7180000  19.7370000  52.9330000  21.6410000
  21.3660000  44.2690000  37.0090000  20.9970000  43.1840000  35.3340000
  20.8380000  42.4250000  33.4520000  21.3210000  45.2370000  24.2000000
  21.2810000  43.2570000  24.6800000  26.9940000  42.8330000  22.7670000
  24.7550000  54.2250000  25.5190000  21.0940000  55.2660000  31.4900000
  27.1110000  55.9670000  28.1200000  27.1290000  56.8340000  29.9680000
  26.9530000  57.3080000  31.9400000  23.8260000  54.7470000  27.2590000
  20.1020000  53.8780000  33.5220000  18.1850000  50.8500000  20.9990000
  20.3160000  42.2350000  36.0570000  20.0940000  45.1550000  23.5850000
  25.7510000  55.1490000  25.7150000  27.7320000  57.9630000  29.4830000
  19.1430000  54.7560000  32.9930000  17.9460000  51.9380000  20.1460000
  19.8790000  41.0950000  35.3450000  19.6090000  46.3230000  22.9280000
  26.7490000  55.2550000  24.6950000  27.9380000  59.0420000  30.3980000
  19.4260000  47.0190000  23.5920000  18.3150000  54.6850000  33.5120000
  18.9660000  54.5210000  32.0590000  17.6320000  52.7020000  20.6730000
  17.2620000  51.6920000  19.4880000  18.7740000  52.1780000  19.6810000
  19.4890000  40.4490000  35.9710000  20.6410000  40.6850000  34.8860000
  19.2030000  41.3600000  34.6860000  20.2850000  46.6450000  22.2960000
  27.7630000  40.6710000  22.4170000  18.7850000  46.1060000  22.4440000
  27.1670000  54.3800000  24.5550000  27.4300000  55.9040000  24.9710000
  26.3310000  55.5560000  23.8610000  19.4810000  55.6750000  33.0410000
  27.0770000  59.3180000  30.7770000  28.3430000  59.7990000  29.9260000
  31.1070000  55.6900000  24.1560000  30.2660000  56.6910000  24.5630000
  31.1960000  55.4340000  22.7560000  29.5010000  57.4640000  23.7070000
  24.2450000  69.1020000  31.8220000  31.4910000  56.2460000  22.2940000
  31.0880000  73.2450000  31.1190000  31.8400000  54.7150000  22.5960000
  28.6610000  58.4380000  24.2350000  30.7200000  56.3730000  26.5270000
  25.9970000  67.2100000  32.8040000  27.8730000  67.9400000  23.7250000
  28.5560000  58.6400000  25.6030000  29.2700000  57.9740000  27.3980000
  26.4070000  61.6330000  24.9570000  27.6280000  59.5970000  26.1150000
  28.0000000  60.6110000  27.0160000  26.9590000  61.1340000  34.0690000
  26.9940000  61.3230000  27.6870000  29.3400000  60.9590000  27.2490000
  29.3300000  57.8530000  26.4580000  27.9490000  60.1720000  34.2800000
  27.3390000  62.4080000  28.4590000  27.0600000  62.0360000  31.5740000
  29.6740000  62.0380000  28.0680000  30.0320000  60.4500000  26.8430000
  30.1850000  56.8950000  25.9410000  28.1470000  58.9770000  23.6460000
  29.1030000  60.4910000  34.9590000  26.5080000  63.0820000  34.3930000
  28.6690000  62.8080000  28.6460000  26.3770000  63.3540000  29.1650000
  30.5860000  62.2470000  28.2310000  29.3030000  61.7770000  35.4420000
  29.7680000  59.8260000  35.0990000  28.4700000  63.6360000  35.5490000
  24.0040000  63.4140000  28.7770000  25.2370000  63.8400000  28.2740000
  25.6080000  62.6550000  30.2880000  27.3330000  64.4380000  29.6420000
  30.4730000  61.9630000  36.1300000  22.8360000  63.7760000  28.1100000
  25.3290000  64.5970000  27.1250000  26.1250000  62.0330000  31.4080000
  24.2350000  62.6750000  30.0200000  26.9940000  65.6490000  30.2180000
  28.6600000  64.0890000  29.3740000  30.7730000  63.2680000  36.5990000
  22.9150000  64.5610000  26.9700000  21.9920000  63.4870000  28.4350000
  24.1540000  64.9750000  26.4640000  26.0840000  65.8710000  30.3750000
  25.2450000  61.3990000  32.2970000  26.0850000  61.0590000  27.6080000
  23.3660000  62.0520000  30.9080000  26.1770000  64.8580000  26.7870000
  28.0110000  66.5400000  30.5670000  29.6720000  64.9720000  29.7350000
  30.8130000  63.8870000  35.8390000  31.6380000  63.2600000  37.0600000
  30.0760000  63.5600000  37.2210000  22.8110000  63.7740000  24.4960000
  24.2500000  65.8220000  25.3250000  25.7320000  60.7490000  33.4450000
  23.8670000  61.4190000  32.0280000  22.4300000  62.0630000  30.7460000
  27.7010000  67.7970000  31.1510000  29.3450000  66.1780000  30.3350000
  30.5820000  64.7510000  29.5710000  23.3900000  65.7140000  24.2130000
  25.2650000  66.8320000  25.3610000  24.9840000  59.7140000  34.0760000
  26.3530000  59.6680000  25.4690000  25.1040000  60.4700000  35.9670000
  26.4040000  67.9950000  31.7230000  28.4070000  68.9680000  30.7350000
  28.4610000  69.8170000  32.5830000  25.5670000  58.5210000  25.3900000
  28.6960000  69.9520000  31.6720000  22.6870000  64.5330000  23.9390000
  23.2270000  66.7810000  23.3340000  27.1690000  62.4160000  34.5400000
  24.7650000  59.7470000  35.4520000  25.8760000  60.8460000  24.9130000
  24.4780000  58.6500000  33.3460000  25.3250000  67.7180000  26.4340000
  26.2230000  66.9230000  24.3620000  25.5210000  68.9380000  31.2340000
  28.7710000  69.1730000  29.4090000  28.3380000  62.7510000  35.2290000
  22.1170000  64.8220000  26.5250000  24.7440000  67.3580000  33.3700000
  24.6610000  67.6810000  27.1130000  23.7080000  67.5850000  23.4860000
  22.3740000  66.6950000  22.2380000  26.1860000  66.3270000  23.6230000
  21.8170000  64.4580000  22.8720000  23.7500000  57.6360000  33.9650000
  23.2690000  60.9890000  32.6270000  24.0590000  58.7360000  36.0700000
  24.6300000  58.6110000  32.4090000  24.3520000  58.5480000  24.7480000
  25.8740000  57.7130000  25.7840000  24.6330000  60.8930000  24.2940000
  27.8250000  59.2890000  33.9510000  26.3410000  68.6500000  26.5180000
  26.5930000  66.5610000  33.1590000  29.4110000  70.3380000  29.0260000
  28.5780000  68.5070000  28.7600000  27.2360000  67.8730000  24.4260000
  30.0400000  66.7720000  30.5940000  29.3240000  71.1330000  31.2930000
  25.7730000  69.4800000  30.4960000  23.8770000  68.3060000  32.8720000
  24.3060000  61.7110000  23.9370000  24.4820000  66.8070000  34.0980000
  21.6470000  65.5400000  22.0200000  21.3290000  63.6580000  22.7180000
  22.2910000  67.4290000  21.6410000  23.9200000  58.7650000  37.0090000
  23.5520000  57.6800000  35.3340000  23.3920000  56.9210000  33.4520000
  23.8750000  59.7330000  24.2000000  23.8350000  57.7540000  24.6800000
  29.5490000  57.3290000  22.7670000  27.3090000  68.7210000  25.5190000
  23.6480000  69.7620000  31.4900000  29.6660000  70.4630000  28.1200000
  29.6830000  71.3300000  29.9680000  29.5080000  71.8040000  31.9400000
  26.3800000  69.2430000  27.2590000  22.6570000  68.3740000  33.5220000
  20.7400000  65.3460000  20.9990000  22.8700000  56.7310000  36.0570000
  22.6480000  59.6510000  23.5850000  28.3060000  69.6450000  25.7150000
  30.2860000  72.4600000  29.4830000  21.6980000  69.2520000  32.9930000
  20.5000000  66.4340000  20.1460000  22.4330000  55.5910000  35.3450000
  22.1640000  60.8190000  22.9280000  29.3030000  69.7520000  24.6950000
  30.4920000  73.5380000  30.3980000  21.9800000  61.5160000  23.5920000
  20.8690000  69.1810000  33.5120000  21.5200000  69.0180000  32.0590000
  20.1870000  67.1990000  20.6730000  19.8160000  66.1880000  19.4880000
  21.3290000  66.6740000  19.6810000  22.0430000  54.9450000  35.9710000
  23.1950000  55.1820000  34.8860000  21.7570000  55.8560000  34.6860000
  22.8390000  61.1410000  22.2960000  30.3170000  55.1680000  22.4170000
  21.3390000  60.6020000  22.4440000  29.7210000  68.8760000  24.5550000
  29.9840000  70.4000000  24.9710000  28.8860000  70.0520000  23.8610000
  22.0350000  70.1710000  33.0410000  29.6310000  73.8140000  30.7770000
  30.8980000  74.2950000  29.9260000  37.3050000  55.7520000  40.2830000
  36.4640000  56.7530000  40.6900000  37.3940000  55.4960000  38.8830000
  35.6990000  57.5250000  39.8340000  30.4430000  69.1630000  47.9490000
  37.6890000  56.3070000  38.4210000  37.2860000  73.3070000  47.2460000
  38.0380000  54.7760000  38.7230000  34.8590000  58.4990000  40.3620000
  36.9180000  56.4340000  42.6540000  32.1950000  67.2710000  48.9310000
  34.0710000  68.0010000  39.8520000  34.7540000  58.7010000  41.7300000
  35.4670000  58.0360000  43.5250000  32.6040000  61.6940000  41.0840000
  33.8250000  59.6580000  42.2420000  34.1980000  60.6720000  43.1430000
  33.1560000  61.1960000  50.1960000  33.1920000  61.3840000  43.8140000
  35.5380000  61.0200000  43.3760000  35.5280000  57.9140000  42.5850000
  34.1470000  60.2330000  50.4070000  33.5360000  62.4690000  44.5860000
  33.2580000  62.0970000  47.7010000  35.8720000  62.0990000  44.1950000
  36.2300000  60.5110000  42.9700000  36.3830000  56.9560000  42.0680000
  34.3450000  59.0380000  39.7730000  35.3010000  60.5520000  51.0860000
  32.7050000  63.1430000  50.5200000  34.8670000  62.8690000  44.7730000
  32.5750000  63.4160000  45.2920000  36.7840000  62.3080000  44.3580000
  35.5010000  61.8380000  51.5690000  35.9660000  59.8880000  51.2260000
  34.6680000  63.6970000  51.6760000  30.2010000  63.4750000  44.9040000
  31.4350000  63.9010000  44.4010000  31.8060000  62.7160000  46.4150000
  33.5300000  64.4990000  45.7690000  36.6710000  62.0240000  52.2570000
  29.0340000  63.8370000  44.2370000  31.5260000  64.6580000  43.2520000
  32.3230000  62.0950000  47.5350000  30.4320000  62.7360000  46.1470000
  33.1920000  65.7100000  46.3450000  34.8580000  64.1500000  45.5010000
  36.9710000  63.3300000  52.7260000  29.1130000  64.6220000  43.0970000
  28.1890000  63.5480000  44.5620000  30.3520000  65.0360000  42.5910000
  32.2810000  65.9320000  46.5020000  31.4430000  61.4600000  48.4240000
  32.2830000  61.1200000  43.7350000  29.5640000  62.1130000  47.0350000
  32.3750000  64.9190000  42.9140000  34.2080000  66.6010000  46.6940000
  35.8700000  65.0340000  45.8620000  37.0110000  63.9480000  51.9660000
  37.8360000  63.3210000  53.1870000  36.2730000  63.6220000  53.3480000
  29.0090000  63.8350000  40.6230000  30.4480000  65.8830000  41.4520000
  31.9300000  60.8100000  49.5720000  30.0650000  61.4800000  48.1550000
  28.6280000  62.1240000  46.8730000  33.8980000  67.8580000  47.2780000
  35.5430000  66.2390000  46.4620000  36.7790000  64.8120000  45.6980000
  29.5880000  65.7750000  40.3400000  31.4630000  66.8930000  41.4880000
  31.1820000  59.7750000  50.2030000  32.5500000  59.7290000  41.5950000
  31.3020000  60.5310000  52.0940000  32.6020000  68.0560000  47.8500000
  34.6050000  69.0290000  46.8620000  34.6590000  69.8780000  48.7100000
  31.7650000  58.5830000  41.5170000  34.8930000  70.0140000  47.7990000
  28.8850000  64.5940000  40.0660000  29.4240000  66.8420000  39.4610000
  33.3670000  62.4770000  50.6670000  30.9630000  59.8080000  51.5790000
  32.0730000  60.9070000  41.0400000  30.6760000  58.7110000  49.4730000
  31.5220000  67.7790000  42.5610000  32.4210000  66.9840000  40.4890000
  31.7190000  68.9990000  47.3610000  34.9690000  69.2340000  45.5360000
  34.5350000  62.8120000  51.3560000  28.3150000  64.8830000  42.6520000
  30.9420000  67.4190000  49.4970000  30.8590000  67.7420000  43.2390000
  29.9060000  67.6470000  39.6130000  28.5710000  66.7560000  38.3650000
  32.3840000  66.3890000  39.7500000  28.0140000  64.5190000  38.9990000
  29.9470000  57.6970000  50.0920000  29.4670000  61.0500000  48.7540000
  30.2570000  58.7970000  52.1970000  30.8270000  58.6720000  48.5360000
  30.5490000  58.6090000  40.8750000  32.0710000  57.7740000  41.9110000
  30.8310000  60.9540000  40.4200000  34.0220000  59.3500000  50.0780000
  32.5390000  68.7110000  42.6450000  32.7910000  66.6220000  49.2850000
  35.6090000  70.3990000  45.1530000  34.7760000  68.5680000  44.8870000
  33.4330000  67.9340000  40.5530000  36.2370000  66.8330000  46.7210000
  35.5220000  71.1950000  47.4200000  31.9700000  69.5410000  46.6230000
  30.0740000  68.3670000  48.9990000  30.5040000  61.7720000  40.0640000
  30.6800000  66.8680000  50.2250000  27.8450000  65.6020000  38.1470000
  27.5260000  63.7190000  38.8450000  28.4890000  67.4910000  37.7680000
  30.1180000  58.8260000  53.1360000  29.7490000  57.7410000  51.4610000
  29.5900000  56.9820000  49.5790000  30.0730000  59.7940000  40.3270000
  30.0330000  57.8150000  40.8070000  35.7460000  57.3910000  38.8940000
  33.5070000  68.7820000  41.6460000  29.8460000  69.8230000  47.6170000
  35.8630000  70.5240000  44.2470000  35.8810000  71.3910000  46.0950000
  35.7050000  71.8650000  48.0670000  32.5780000  69.3040000  43.3860000
  28.8540000  68.4360000  49.6490000  26.9370000  65.4070000  37.1260000
  29.0680000  56.7920000  52.1840000  28.8460000  59.7120000  39.7120000
  34.5030000  69.7060000  41.8420000  36.4840000  72.5210000  45.6100000
  27.8950000  69.3140000  49.1200000  26.6970000  66.4950000  36.2730000
  28.6310000  55.6520000  51.4720000  28.3610000  60.8800000  39.0550000
  35.5000000  69.8130000  40.8220000  36.6900000  73.5990000  46.5250000
  28.1780000  61.5770000  39.7190000  27.0670000  69.2420000  49.6390000
  27.7180000  69.0790000  48.1860000  26.3840000  67.2600000  36.8000000
  26.0140000  66.2490000  35.6150000  27.5260000  66.7360000  35.8080000
  28.2410000  55.0060000  52.0980000  29.3930000  55.2430000  51.0130000
  27.9550000  55.9170000  50.8130000  29.0370000  61.2020000  38.4230000
  36.5150000  55.2290000  38.5440000  27.5370000  60.6630000  38.5710000
  35.9190000  68.9370000  40.6820000  36.1820000  70.4610000  41.0980000
  35.0830000  70.1130000  39.9880000  28.2320000  70.2330000  49.1680000
  35.8290000  73.8750000  46.9040000  37.0950000  74.3560000  46.0530000
  29.0080000  18.5360000  52.2570000  28.2180000  27.9020000  46.0950000
  29.0270000  30.1110000  46.5250000  26.8730000  19.3240000  51.3560000
  27.6380000  17.0630000  51.0860000  29.4330000  30.8670000  46.0530000
  28.1660000  30.3860000  46.9040000  29.6230000  29.8180000  47.2460000
  24.5320000  23.7820000  48.9310000  28.0430000  28.3770000  48.0670000
  27.2310000  26.5250000  47.7990000  28.2010000  27.0360000  44.2470000
  24.9390000  24.5670000  47.8500000  24.9420000  18.2050000  41.0840000
  28.5750000  23.3440000  46.7210000  24.2670000  17.3220000  49.5720000
  23.7800000  17.9710000  48.4240000  25.4940000  17.7070000  50.1960000
  23.8640000  21.1690000  43.2520000  27.8800000  22.7500000  46.4620000
  27.8650000  14.4250000  42.5850000  26.4840000  16.7440000  50.4070000
  25.8680000  21.0110000  45.7690000  25.5950000  18.6080000  47.7010000
  28.2090000  18.6110000  44.1950000  27.1130000  25.0790000  44.8870000
  28.0360000  14.0360000  39.8340000  28.5670000  17.0230000  42.9700000
  28.7200000  13.4680000  42.0680000  26.3600000  15.8620000  50.0780000
  27.1950000  20.6610000  45.5010000  24.9120000  19.9270000  45.2920000
  29.1170000  21.3240000  45.6980000  28.8010000  13.2640000  40.6900000
  28.0840000  13.9020000  38.8940000  29.2550000  12.9460000  42.6540000
  22.5390000  19.9870000  44.9040000  23.7720000  20.4130000  44.4010000
  25.8740000  18.9810000  44.5860000  24.1430000  19.2280000  46.4150000
  29.6420000  12.2630000  40.2830000  21.3710000  20.3490000  44.2370000
  24.6600000  18.6060000  47.5350000  25.5290000  17.8960000  43.8140000
  27.2040000  19.3800000  44.7730000  25.5290000  22.2210000  46.3450000
  22.7700000  19.2470000  46.1470000  29.7310000  12.0070000  38.8830000
  21.4500000  21.1340000  43.0970000  20.5270000  20.0600000  44.5620000
  22.6890000  21.5480000  42.5910000  24.6200000  17.6310000  43.7350000
  26.5350000  17.1840000  43.1430000  24.7120000  21.4300000  42.9140000
  28.2070000  21.5450000  45.8620000  24.6190000  22.4430000  46.5020000
  26.5460000  23.1120000  46.6940000  21.9010000  18.6250000  47.0350000
  28.8520000  11.7400000  38.5440000  30.0260000  12.8180000  38.4210000
  30.3750000  11.2870000  38.7230000  24.7210000  22.9000000  39.7500000
  22.7850000  22.3950000  41.4520000  26.1620000  16.1690000  42.2420000
  27.8750000  17.5310000  43.3760000  29.1210000  18.8200000  44.3580000
  26.2360000  24.3700000  47.2780000  22.4020000  17.9920000  48.1550000
  20.9650000  18.6350000  46.8730000  21.9250000  22.2860000  40.3400000
  23.8000000  23.4050000  41.4880000  24.8880000  16.2410000  41.5950000
  27.0910000  15.2120000  41.7300000  27.8050000  14.5470000  43.5250000
  26.9420000  25.5410000  46.8620000  23.5190000  16.2860000  50.2030000
  21.8040000  17.5620000  48.7540000  21.7610000  23.3530000  39.4610000
  24.7580000  23.4960000  40.4890000  24.0560000  25.5100000  47.3610000
  23.8600000  24.2900000  42.5610000  24.1020000  15.0940000  41.5170000
  24.4110000  17.4190000  41.0400000  21.2220000  21.1060000  40.0660000
  27.1960000  15.0100000  40.3620000  23.0130000  15.2220000  49.4730000
  27.3060000  25.7460000  45.5360000  23.3000000  16.3190000  51.5790000
  25.7040000  18.9890000  50.6670000  20.3520000  21.0310000  38.9990000
  20.6520000  21.3950000  42.6520000  22.7800000  25.6750000  47.9490000
  25.0430000  19.6550000  50.5200000  23.1960000  24.2530000  43.2390000
  23.2790000  23.9300000  49.4970000  24.3080000  26.0530000  46.6230000
  24.8760000  25.2220000  42.6450000  23.1680000  17.4660000  40.4200000
  22.2430000  24.1580000  39.6130000  22.8870000  15.1210000  40.8750000
  24.4090000  14.2860000  41.9110000  20.9090000  23.2680000  38.3650000
  21.3460000  20.3460000  40.6230000  25.7710000  24.4460000  40.5530000
  26.6820000  15.5500000  39.7730000  27.9460000  26.9110000  45.1530000
  25.1280000  23.1340000  49.2850000  27.8590000  27.7060000  47.4200000
  26.9960000  26.3900000  48.7100000  22.5940000  15.3090000  52.1970000
  23.1650000  15.1840000  48.5360000  22.2850000  14.2080000  50.0920000
  23.6390000  17.0420000  52.0940000  22.0870000  14.2530000  51.4610000
  19.8640000  20.2310000  38.8450000  22.8410000  18.2830000  40.0640000
  25.8440000  25.2940000  41.6460000  24.9150000  25.8160000  43.3860000
  22.1830000  26.3350000  47.6170000  21.9270000  13.4930000  49.5790000
  22.4100000  16.3060000  40.3270000  22.3700000  14.3260000  40.8070000
  20.1820000  22.1130000  38.1470000  20.8260000  24.0020000  37.7680000
  26.4080000  24.5130000  39.8520000  22.4120000  24.8790000  48.9990000
  23.0170000  23.3800000  50.2250000  27.0050000  20.2090000  51.6760000
  27.8380000  18.3500000  51.5690000  22.4550000  15.3380000  53.1360000
  28.3030000  16.3990000  51.2260000  28.8210000  29.0320000  45.6100000
  21.1920000  24.9470000  49.6490000  21.1830000  16.2240000  39.7120000
  19.2750000  21.9190000  37.1260000  26.8410000  26.2180000  41.8420000
  21.4050000  13.3030000  52.1840000  19.0350000  23.0070000  36.2730000
  20.9680000  12.1630000  51.4720000  20.6990000  17.3910000  39.0550000
  27.8380000  26.3240000  40.8220000  20.2330000  25.8250000  49.1200000
  29.3080000  19.8410000  52.7260000  19.8640000  23.2470000  35.8080000
  20.5150000  18.0880000  39.7190000  20.2920000  12.4290000  50.8130000
  20.5780000  11.5180000  52.0980000  18.3510000  22.7610000  35.6150000
  18.7220000  23.7710000  36.8000000  19.8740000  17.1750000  38.5710000
  21.3740000  17.7140000  38.4230000  21.7300000  11.7540000  51.0130000
  27.4210000  26.6250000  39.9880000  28.5190000  26.9720000  41.0980000
  28.2560000  25.4490000  40.6820000  20.5700000  26.7440000  49.1680000
  20.0550000  25.5900000  48.1860000  19.4040000  25.7540000  49.6390000
  30.1730000  19.8320000  53.1870000  28.6110000  20.1330000  53.3480000
  29.3480000  20.4600000  51.9660000  21.5340000  57.9020000  13.3560000
  20.5510000  47.2200000  19.3150000  22.0210000  48.7110000  20.4720000
  19.5860000  48.1940000  19.1020000  20.3510000  45.9340000  18.8320000
  22.0620000  49.3300000  19.7120000  21.3240000  49.0030000  21.0940000
  22.8860000  48.7020000  20.9330000  16.0130000  45.1890000  19.3250000
  15.1680000  44.2080000  20.8820000  18.4170000  47.8590000  18.4130000
  15.7300000  52.2500000  17.9710000  16.2320000  45.1560000  17.9490000
  16.3520000  45.9120000  19.8400000  17.8410000  52.0040000  17.0320000
  16.9800000  46.1920000  17.3180000  16.4930000  46.8410000  16.1700000
  18.2070000  46.5770000  17.9420000  17.3730000  47.4760000  15.2810000
  15.1160000  46.8620000  15.9010000  17.2450000  52.6530000  16.6770000
  16.7690000  54.3800000  15.1070000  16.8560000  48.0980000  14.1610000
  17.3320000  51.3130000  14.2480000  14.6140000  47.4950000  14.7820000
  15.8780000  44.0540000  16.2820000  15.4940000  54.5450000  15.6950000
  14.5170000  46.4320000  16.5000000  15.9920000  52.8000000  17.2430000
  17.7560000  48.5250000  18.2660000  15.4830000  48.1170000  13.8930000
  17.6250000  48.7970000  13.0380000  21.8340000  47.6900000  12.1040000
  15.1250000  53.7490000  16.7450000  13.5390000  52.8720000   5.5140000
  14.8960000  55.2050000  15.3630000  19.9080000  49.5310000  13.2470000
  18.5870000  47.8510000  12.3320000  16.4850000  49.2830000  12.1470000
  18.5810000  49.8810000  13.5150000  13.9050000  53.8170000  17.3950000
  20.9220000  47.4810000  11.9410000  18.2420000  46.7660000  11.5600000
  16.5770000  50.0390000  10.9980000  15.2520000  48.8570000  12.6500000
  18.2420000  51.0910000  14.0910000  19.9170000  48.2500000  12.5190000
  12.9460000  54.6950000  16.8660000  20.5890000  46.4010000  11.1220000
  21.8300000  50.1940000  13.4440000  19.2480000  46.0540000  10.8890000
  17.4250000  50.3000000  10.6600000  15.4020000  50.4180000  10.3370000
  17.3330000  46.5010000  11.4810000  14.0850000  49.2190000  11.9830000
  18.3080000  47.4780000  15.4470000  19.2590000  51.9820000  14.4400000
  20.9200000  50.4150000  13.6080000  12.7680000  54.4600000  15.9320000
  12.1170000  54.6240000  17.3850000  13.2830000  55.6140000  16.9140000
  20.5180000  43.4170000  11.2710000  18.8760000  45.0390000   9.9880000
  15.4990000  51.2650000   9.1980000  14.1630000  50.0040000  10.8430000
  13.6780000  47.5050000  14.6190000  18.9490000  53.2400000  15.0240000
  20.5930000  51.6210000  14.2080000  13.2400000  48.9300000  12.3080000
  19.8040000  44.0820000   9.4760000  17.6010000  45.1110000   9.3420000
  14.6380000  51.1560000   8.0860000  17.6520000  53.4370000  15.5960000
  13.3650000  50.2650000  10.3980000  16.5130000  52.2750000   9.2340000
  19.6550000  54.4110000  14.6080000  17.0210000  54.9230000  14.3690000
  19.9090000  43.8800000   8.1080000  17.4710000  52.3660000   8.2350000
  20.5780000  43.2950000  10.3310000  19.1970000  45.6140000  18.1530000
  14.4750000  52.2230000   7.2070000  13.9350000  49.9760000   7.8120000
  17.1240000  46.2890000   8.7860000  15.7260000  44.0920000  17.2190000
  16.8150000  43.9640000   9.2630000  19.9440000  55.3950000  15.5450000
  16.5730000  53.1600000  10.3070000  20.0190000  54.6160000  13.2820000
  15.6000000  43.9910000   8.6210000  19.0730000  44.7320000  17.8240000
  18.4840000  53.3160000   8.2990000  17.4340000  51.7700000   7.4960000
  19.3950000  44.4200000   7.5190000  20.7490000  42.9060000   7.5800000
  21.2800000  45.8930000  10.7160000  21.4330000  42.3380000   9.8140000
  15.8820000  46.3360000   8.1670000  15.9090000  53.1230000  10.9860000
  13.0650000  49.9010000   6.7450000  14.0590000  49.2160000   8.3690000
  14.9980000  43.0790000  17.8380000  17.1220000  43.1560000   9.6570000
  15.3070000  44.1790000  19.9430000  14.9560000  53.0280000   7.3590000
  17.5890000  54.0920000  10.3910000  21.2880000  52.2150000  14.4670000
  13.6220000  52.1380000   6.1110000  19.7090000  55.2600000  16.4560000
  20.5720000  56.5760000  15.1660000  19.8260000  53.9490000  12.6330000
  20.6590000  55.7810000  12.8990000  17.6550000  47.0750000   8.8300000
  15.1230000  45.1760000   8.0730000  15.0840000  43.1960000   8.5530000
  20.7970000  42.7720000   6.6400000  21.5140000  42.1340000   8.4360000
  21.9680000  41.8160000  10.4000000  21.0160000  45.2690000  18.9720000
  15.5540000  47.1530000   7.8100000  12.8950000  50.9830000   5.8930000
  12.5770000  49.1010000   6.5910000  14.8000000  43.1230000  19.2070000
  20.7560000  57.2470000  15.8130000  14.6400000  42.3630000  17.3250000
  20.9310000  56.7730000  13.8410000  17.6280000  54.6860000  11.1320000
  19.7180000  49.0790000  19.4220000  18.5570000  54.1640000   9.3920000
  20.9140000  55.9060000  11.9930000  19.1210000  53.3830000   7.5980000
  11.9880000  50.7890000   4.8720000  22.3550000  41.1330000   8.0290000
  13.8960000  45.0940000   7.4580000  14.1180000  42.1740000  19.9300000
  21.7210000  47.4060000  20.0030000  19.5540000  55.0880000   9.5880000
  11.7480000  51.8770000   4.0190000  22.4440000  40.8770000   6.6290000
  13.4120000  46.2610000   6.8010000  13.6810000  41.0330000  19.2180000
  21.7400000  58.9810000  14.2710000  20.5510000  55.1940000   8.5680000
  12.5770000  52.1170000   3.5540000  13.2280000  46.9580000   7.4650000
  14.0870000  46.5840000   6.1690000  21.5650000  40.6100000   6.2900000
  22.7390000  41.6880000   6.1670000  23.0880000  40.1570000   6.4690000
  11.4350000  52.6410000   4.5460000  12.5870000  46.0450000   6.3170000
  11.0640000  51.6310000   3.3610000  14.4430000  40.6240000  18.7590000
  13.0050000  41.2990000  18.5590000  13.2910000  40.3880000  19.8440000
  20.8790000  59.2570000  14.6500000  22.1460000  59.7370000  13.7990000
  22.3370000  58.6880000  14.9920000  20.1340000  55.4950000   7.7340000
  20.9690000  54.3190000   8.4280000  21.2320000  55.8420000   8.8440000
  13.8720000  14.4140000  13.3560000  13.2680000  13.2840000  13.8410000
  14.0770000  15.4920000  14.2710000  12.9960000  12.2920000  12.8990000
  12.9100000  13.0880000  15.1660000  14.4830000  16.2490000  13.7990000
  14.6740000  15.2000000  14.9920000  13.2170000  15.7680000  14.6500000
  12.2810000  11.9070000  15.5450000  13.2510000  12.4170000  11.9930000
  12.3560000  11.1270000  13.2820000  13.0930000  13.7580000  15.8130000
  11.9920000  10.9220000  14.6080000  12.0460000  11.7710000  16.4560000
   9.3580000  11.4340000  14.3690000  11.2860000   9.7510000  15.0240000
  11.5960000   8.4940000  14.4400000   9.9890000   9.9490000  15.5960000
  10.5790000   7.6030000  14.0910000  12.9300000   8.1320000  14.2080000
   9.5820000   9.1640000  16.6770000   9.1060000  10.8920000  15.1070000
  10.9180000   6.3920000  13.5150000   9.6690000   7.8250000  14.2480000
  13.2580000   6.9270000  13.6080000  12.1640000  10.4610000  12.6330000
  11.9230000   4.7050000  19.1020000  13.6250000   8.7260000  14.4670000
   8.3290000   9.3120000  17.2430000  10.1790000   8.5150000  17.0320000
  12.2540000   4.7620000  12.5190000   9.9620000   5.3090000  13.0380000
  14.1670000   6.7050000  13.4440000   7.4620000  10.2600000  16.7450000
   7.2330000  11.7160000  15.3630000   8.0670000   8.7610000  17.9710000
  12.2450000   6.0430000  13.2470000  10.9240000   4.3620000  12.3320000
   9.1940000   4.6090000  14.1610000   8.8220000   5.7940000  12.1470000
   6.2420000  10.3290000  17.3950000  13.2590000   3.9920000  11.9410000
  10.5790000   3.2770000  11.5600000   9.7100000   3.9880000  15.2810000
   7.8200000   4.6290000  13.8930000   8.9140000   6.5510000  10.9980000
   7.5890000   5.3680000  12.6500000   5.2830000  11.2070000  16.8660000
  12.9260000   2.9130000  11.1220000  14.1710000   4.2010000  12.1040000
  11.5860000   2.5650000  10.8890000   9.6700000   3.0130000  11.4810000
   8.8300000   3.3530000  16.1700000  10.6460000   3.9900000  15.4470000
   6.9510000   4.0060000  14.7820000   9.7620000   6.8120000  10.6600000
   7.7400000   6.9290000  10.3370000   6.4220000   5.7300000  11.9830000
   5.1060000  10.9720000  15.9320000  13.6610000   5.5150000  21.0940000
   4.4540000  11.1350000  17.3850000  10.0930000   5.0360000  18.2660000
  11.2130000   1.5510000   9.9880000   9.3180000   2.7030000  17.3180000
   7.4530000   3.3730000  15.9010000   6.0150000   4.0170000  14.6190000
   7.8360000   7.7760000   9.1980000   6.5000000   6.5150000  10.8430000
   5.5770000   5.4410000  12.3080000  12.1420000   0.5940000   9.4760000
   9.9380000   1.6220000   9.3420000   8.5700000   1.6680000  17.9490000
  10.5440000   3.0890000  17.9420000   6.8540000   2.9430000  16.5000000
   8.8500000   8.7860000   9.2340000   6.9760000   7.6680000   8.0860000
   5.7020000   6.7760000  10.3980000  12.9160000  -0.1930000  10.3310000
   9.4610000   2.8000000   8.7860000  12.2460000   0.3920000   8.1080000
   9.8080000   8.8770000   8.2350000   8.0630000   0.6040000  17.2190000
   8.3510000   1.7010000  19.3250000  11.5340000   2.1260000  18.1530000
  10.7550000   4.3700000  18.4130000   6.8120000   8.7350000   7.2070000
   8.9100000   9.6720000  10.3070000   9.1520000   0.4760000   9.2630000
   6.2720000   6.4870000   7.8120000  13.7710000  -1.1510000   9.8140000
  13.6180000   2.4040000  10.7160000   7.9370000   0.5020000   8.6210000
   9.4590000  -0.3330000   9.6570000  11.7330000   0.9310000   7.5190000
  13.0860000  -0.5820000   7.5800000   9.9920000   3.5870000   8.8300000
   8.2190000   2.8470000   8.1670000   7.3350000  -0.4100000  17.8380000
   8.2150000   0.5650000  16.2820000   7.6440000   0.6900000  19.9430000
   8.6900000   2.4240000  19.8400000   5.9590000   8.6490000   6.1110000
  12.8550000  -0.0720000  11.2710000  12.6890000   2.4450000  18.8320000
  11.4100000   1.2430000  17.8240000  10.8210000   9.8270000   8.2990000
   9.7710000   8.2820000   7.4960000   9.9270000  10.6040000  10.3910000
   8.2470000   9.6350000  10.9860000   7.8310000  11.0560000  15.6950000
   7.2930000   9.5400000   7.3590000   5.4020000   6.4120000   6.7450000
   6.3960000   5.7280000   8.3690000  13.8520000  -1.3540000   8.4360000
  14.3060000  -1.6730000  10.4000000   7.4210000  -0.2920000   8.5530000
   7.4600000   1.6870000   8.0730000  13.1340000  -0.7160000   6.6400000
   7.8910000   3.6650000   7.8100000   6.9780000  -1.1250000  17.3250000
   7.1370000  -0.3660000  19.2070000   7.5050000   0.7190000  20.8820000
  12.8880000   3.7310000  19.3150000  12.0550000   5.5900000  19.4220000
  13.3530000   1.7810000  18.9720000  10.8950000  10.6750000   9.3920000
   9.9660000  11.1970000  11.1320000  11.4590000   9.8940000   7.5980000
   5.2320000   7.4950000   5.8930000   5.8760000   9.3840000   5.5140000
   4.9140000   5.6120000   6.5910000  14.6930000  -2.3550000   8.0290000
   6.2340000   1.6050000   7.4580000   6.4550000  -1.3150000  19.9300000
  14.0590000   3.9170000  20.0030000  11.8910000  11.5990000   9.5880000
   4.3250000   7.3000000   4.8720000   5.7490000   2.7730000   6.8010000
  14.7810000  -2.6110000   6.6290000   6.0180000  -2.4550000  19.2180000
  14.3590000   5.2230000  20.4720000  12.8880000  11.7060000   8.5680000
   4.0850000   8.3880000   4.0190000   6.4240000   3.0950000   6.1690000
   3.7720000   9.1530000   4.5460000   5.5650000   3.4700000   7.4650000
  13.9020000  -2.8780000   6.2900000  15.0770000  -1.8000000   6.1670000
  15.4260000  -3.3310000   6.4690000   6.7810000  -2.8640000  18.7590000
   5.6280000  -3.1010000  19.8440000   5.3420000  -2.1900000  18.5590000
   4.9140000   8.6290000   3.5540000  14.3990000   5.8410000  19.7120000
  15.2240000   5.2140000  20.9330000  12.4710000  12.0060000   7.7340000
  13.3060000  10.8300000   8.4280000  13.5690000  12.3540000   8.8440000
   4.9240000   2.5560000   6.3170000   3.4020000   8.1420000   3.3610000
   5.6200000  12.1260000  16.9140000  12.4310000   1.6670000  23.5850000
  13.6580000   1.7480000  24.2000000  11.9470000   2.8340000  22.9280000
  14.1350000   0.5630000  24.7480000  19.2840000  -0.5210000  23.7070000
  20.1000000  -2.8170000  22.4170000  11.1220000   2.6180000  22.4440000
  11.7630000   3.5310000  23.5920000  15.6590000   2.8610000  24.9130000
  14.0890000   3.7260000  23.9370000  18.4440000   0.4530000  24.2350000
  13.6190000  -0.2310000  24.6800000  18.3390000   0.6550000  25.6030000
  12.5940000   5.7890000  24.4960000  15.6570000  -0.2720000  25.7840000
  17.4110000   1.6120000  26.1150000  13.9370000   6.9900000  26.4640000
  13.1730000   7.7290000  24.2130000  16.7770000   3.3380000  27.6870000
  12.6980000   6.5760000  26.9700000  12.4700000   6.5480000  23.9390000
  15.3500000   0.5370000  25.3900000  17.1220000   4.4230000  28.4590000
  15.8680000   3.0740000  27.6080000  13.1490000   4.0680000  30.9080000
  17.9300000   0.9920000  23.6460000  11.6000000   6.4740000  22.8720000
  11.9000000   6.8370000  26.5250000  14.4160000   2.9090000  24.2940000
  16.1900000   3.6480000  24.9570000  18.4520000   4.8230000  28.6460000
  16.1600000   5.3700000  29.1650000  20.3690000   4.2630000  28.2310000
  11.4300000   7.5560000  22.0200000  11.1120000   5.6730000  22.7180000
  16.1630000  11.2580000  27.2590000  18.4430000   6.1040000  29.3740000
  17.1160000   6.4530000  29.6420000  15.0200000   5.8560000  28.2740000
  15.3910000   4.6700000  30.2880000  10.5230000   7.3610000  20.9990000
  19.4570000   4.0530000  28.0680000  16.7770000   7.6640000  30.2180000
  15.1120000   6.6120000  27.1250000  13.7870000   5.4290000  28.7770000
  15.9080000   4.0490000  31.4080000  14.0180000   4.6900000  30.0200000
  10.2830000   8.4490000  20.1460000  19.1240000   2.9740000  27.2490000
  20.3650000   6.7660000  29.5710000  17.7830000   2.6260000  27.0160000
  15.8670000   7.8860000  30.3750000  17.7940000   8.5550000  30.5670000
  15.9600000   6.8730000  26.7870000  19.4550000   6.9880000  29.7350000
  16.8430000   4.0510000  31.5740000  15.0280000   3.4140000  32.2970000
  12.6190000   5.7910000  28.1100000   9.9700000   9.2140000  20.6730000
  12.6220000   3.1560000  22.2960000   9.5990000   8.2030000  19.4880000
  19.8150000   2.4650000  26.8430000  17.4840000   9.8120000  31.1510000
  14.0340000   7.8380000  25.3250000  19.1280000   8.1930000  30.3350000
  11.7750000   5.5020000  28.4350000  15.5150000   2.7640000  33.4450000
  13.6510000   3.4340000  32.0280000  12.2130000   4.0780000  30.7460000
  18.1900000  10.9840000  30.7350000  16.1360000   1.6840000  25.4690000
  16.1870000  10.0100000  31.7230000  15.0480000   8.8470000  25.3610000
  15.5560000  11.4950000  30.4960000  14.7670000   1.7290000  34.0760000
  16.7420000   3.1500000  34.0690000  17.6080000   1.3040000  33.9510000
  18.5540000  11.1880000  29.4090000  15.3040000  10.9530000  31.2340000
  18.4790000  11.9680000  31.6720000  19.1130000  -0.1320000  26.4580000
  15.1080000   9.7330000  26.4340000  15.7800000   9.2250000  32.8040000
  16.0060000   8.9380000  24.3620000  13.0100000   8.7960000  23.3340000
  16.9520000   4.4320000  34.5400000  17.7320000   2.1870000  34.2800000
  14.2610000   0.6650000  33.3460000  14.5480000   1.7620000  35.4520000
  14.0290000  11.1170000  31.8220000  19.8230000   8.7870000  30.5940000
  19.1070000  13.1490000  31.2930000  18.2440000  11.8320000  32.5830000
  16.2910000   5.0970000  34.3930000  18.1210000   4.7660000  35.2290000
  19.0530000  -0.0100000  27.3980000  19.9680000  -1.0900000  25.9410000
  19.1940000  12.3540000  29.0260000  18.3610000  10.5220000  28.7600000
  16.1240000  10.6650000  26.5180000  14.4440000   9.6960000  27.1130000
  17.0190000   9.8880000  24.4260000  13.4910000   9.6010000  23.4860000
  12.1570000   8.7110000  22.2380000  15.9690000   8.3430000  23.6230000
  18.8860000   2.5060000  34.9590000  16.3760000   8.5760000  33.1590000
  13.5330000  -0.3490000  33.9650000  14.4130000   0.6260000  32.4090000
  14.5270000   9.3730000  33.3700000  13.0520000   3.0040000  32.6270000
  13.8420000   0.7510000  36.0700000  14.8870000   2.4850000  35.9670000
  19.4660000  13.3450000  29.9680000  13.4310000  11.7770000  31.4900000
  19.2910000  13.8190000  31.9400000  13.3350000  -0.3050000  35.3340000
  18.2530000   5.6510000  35.5490000  20.5030000  -1.6110000  26.5270000
  19.4490000  12.4790000  28.1200000  17.0920000  10.7370000  25.5190000
  12.0740000   9.4450000  21.6410000  20.0490000  -1.2930000  24.5630000
  17.6560000   9.9550000  23.7250000  19.3320000  -0.6550000  22.7670000
  19.0860000   3.7920000  35.4420000  19.5510000   1.8420000  35.0990000
  13.1750000  -1.0640000  33.4520000  13.6600000  10.3210000  32.8720000
  13.7030000   0.7810000  37.0090000  14.2650000   8.8220000  34.0980000
  20.0690000  14.4750000  29.4830000  20.2560000   3.9780000  36.1300000
  18.0890000  11.6600000  25.7150000  20.8900000  -2.2940000  24.1560000
  12.4400000  10.3900000  33.5220000  12.6530000  -1.2540000  36.0570000
  20.2750000  15.5530000  30.3980000  11.4810000  11.2680000  32.9930000
  19.0860000  11.7670000  24.6950000  20.9790000  -2.5500000  22.7560000
  20.5560000   5.2840000  36.5990000  12.2160000  -2.3940000  35.3450000
  19.4140000  15.8290000  30.7770000  20.6810000  16.3100000  29.9260000
  20.8710000  15.2610000  31.1190000  11.8180000  12.1870000  33.0410000
  10.6520000  11.1960000  33.5120000  21.4210000   5.2750000  37.0600000
  19.7670000  12.4150000  24.9710000  18.6690000  12.0670000  23.8610000
  11.1120000   8.6900000  19.6810000  21.6230000  -3.2700000  22.5960000
  21.2740000  -1.7390000  22.2940000  19.5040000  10.8910000  24.5550000
  19.8590000   5.5760000  37.2210000  20.5970000   5.9020000  35.8390000
  11.3030000  11.0330000  32.0590000  11.8260000  -3.0400000  35.9710000
  12.9780000  -2.8030000  34.8860000  11.5400000  -2.1280000  34.6860000
  18.6290000   1.7280000  39.7120000  19.8560000   1.8100000  40.3270000
  18.1440000   2.8950000  39.0550000  20.3320000   0.6240000  40.8750000
  25.4820000  -0.4600000  39.8340000  26.2980000  -2.7560000  38.5440000
  17.3200000   2.6790000  38.5710000  17.9610000   3.5920000  39.7190000
  21.8560000   2.9230000  41.0400000  20.2870000   3.7870000  40.0640000
  24.6420000   0.5140000  40.3620000  19.8160000  -0.1700000  40.8070000
  24.5370000   0.7160000  41.7300000  18.7920000   5.8500000  40.6230000
  21.8540000  -0.2110000  41.9110000  23.6080000   1.6730000  42.2420000
  20.1350000   7.0510000  42.5910000  19.3710000   7.7900000  40.3400000
  22.9750000   3.3990000  43.8140000  18.8960000   6.6380000  43.0970000
  18.6680000   6.6090000  40.0660000  21.5480000   0.5980000  41.5170000
  23.3190000   4.4850000  44.5860000  22.0660000   3.1350000  43.7350000
  19.3470000   4.1290000  47.0350000  24.1280000   1.0540000  39.7730000
  17.7970000   6.5350000  38.9990000  18.0980000   6.8980000  42.6520000
  20.6140000   2.9700000  40.4200000  22.3870000   3.7090000  41.0840000
  24.6500000   4.8840000  44.7730000  22.3580000   5.4310000  45.2920000
  26.5670000   4.3240000  44.3580000  17.6280000   7.6170000  38.1470000
  17.3090000   5.7340000  38.8450000  22.3610000  11.3190000  43.3860000
  24.6410000   6.1650000  45.5010000  23.3130000   6.5150000  45.7690000
  21.2180000   5.9170000  44.4010000  21.5890000   4.7320000  46.4150000
  16.7200000   7.4230000  37.1260000  25.6550000   4.1140000  44.1950000
  22.9750000   7.7250000  46.3450000  21.3090000   6.6730000  43.2520000
  19.9840000   5.4910000  44.9040000  22.1060000   4.1100000  47.5350000
  20.2150000   4.7510000  46.1470000  16.4810000   8.5100000  36.2730000
  25.3210000   3.0350000  43.3760000  26.5620000   6.8270000  45.6980000
  23.9810000   2.6870000  43.1430000  22.0640000   7.9470000  46.5020000
  23.9910000   8.6160000  46.6940000  22.1580000   6.9340000  42.9140000
  25.6530000   7.0490000  45.8620000  23.0410000   4.1120000  47.7010000
  21.2260000   3.4750000  48.4240000  18.8170000   5.8520000  44.2370000
  16.1670000   9.2750000  36.8000000  18.8200000   3.2170000  38.4230000
  15.7970000   8.2640000  35.6150000  26.0130000   2.5260000  42.9700000
  23.6810000   9.8730000  47.2780000  20.2310000   7.8990000  41.4520000
  25.3260000   8.2540000  46.4620000  17.9720000   5.5640000  44.5620000
  21.7130000   2.8250000  49.5720000  19.8480000   3.4960000  48.1550000
  18.4110000   4.1390000  46.8730000  24.3880000  11.0450000  46.8620000
  22.3340000   1.7450000  41.5950000  22.3850000  10.0710000  47.8500000
  21.2460000   8.9090000  41.4880000  21.7530000  11.5570000  46.6230000
  20.9650000   1.7900000  50.2030000  22.9390000   3.2110000  50.1960000
  23.8050000   1.3650000  50.0780000  24.7520000  11.2490000  45.5360000
  21.5020000  11.0140000  47.3610000  24.6760000  12.0290000  47.7990000
  25.3110000  -0.0710000  42.5850000  21.3050000   9.7940000  42.5610000
  21.9780000   9.2860000  48.9310000  22.2040000   9.0000000  40.4890000
  19.2070000   8.8570000  39.4610000  23.1500000   4.4930000  50.6670000
  23.9300000   2.2480000  50.4070000  20.4590000   0.7260000  49.4730000
  20.7460000   1.8230000  51.5790000  20.2260000  11.1790000  47.9490000
  26.0200000   8.8480000  46.7210000  25.3050000  13.2100000  47.4200000
  24.4420000  11.8940000  48.7100000  22.4880000   5.1580000  50.5200000
  24.3180000   4.8280000  51.3560000  25.2500000   0.0510000  43.5250000
  26.1660000  -1.0290000  42.0680000  25.3920000  12.4150000  45.1530000
  24.5590000  10.5830000  44.8870000  22.3220000  10.7260000  42.6450000
  20.6420000   9.7570000  43.2390000  23.2160000   9.9490000  40.5530000
  19.6890000   9.6620000  39.6130000  18.3540000   8.7720000  38.3650000
  22.1670000   8.4040000  39.7500000  25.0840000   2.5670000  51.0860000
  22.5740000   8.6370000  49.2850000  19.7300000  -0.2880000  50.0920000
  20.6100000   0.6880000  48.5360000  20.7250000   9.4340000  49.4970000
  19.2500000   3.0660000  48.7540000  20.0400000   0.8130000  52.1970000
  21.0850000   2.5460000  52.0940000  25.6640000  13.4060000  46.0950000
  19.6290000  11.8380000  47.6170000  25.4880000  13.8810000  48.0670000
  19.5320000  -0.2440000  51.4610000  24.4510000   5.7120000  51.6760000
  26.7010000  -1.5500000  42.6540000  25.6460000  12.5400000  44.2470000
  23.2900000  10.7980000  41.6460000  18.2720000   9.5060000  37.7680000
  26.2470000  -1.2320000  40.6900000  23.8540000  10.0160000  39.8520000
  25.5290000  -0.5940000  38.8940000  25.2840000   3.8530000  51.5690000
  25.7490000   1.9030000  51.2260000  19.3730000  -1.0030000  49.5790000
  19.8570000  10.3820000  48.9990000  19.9010000   0.8420000  53.1360000
  20.4630000   8.8830000  50.2250000  26.2670000  14.5360000  45.6100000
  26.4540000   4.0390000  52.2570000  24.2860000  11.7210000  41.8420000
  27.0880000  -2.2330000  40.2830000  18.6370000  10.4510000  49.6490000
  18.8510000  -1.1930000  52.1840000  26.4730000  15.6140000  46.5250000
  17.6780000  11.3290000  49.1200000  25.2840000  11.8280000  40.8220000
  27.1770000  -2.4890000  38.8830000  26.7540000   5.3450000  52.7260000
  18.4140000  -2.3330000  51.4720000  25.6120000  15.8900000  46.9040000
  26.8780000  16.3710000  46.0530000  27.0690000  15.3220000  47.2460000
  18.0160000  12.2480000  49.1680000  16.8500000  11.2570000  49.6390000
  27.6190000   5.3360000  53.1870000  25.9650000  12.4760000  41.0980000
  24.8660000  12.1280000  39.9880000  17.3090000   8.7510000  35.8080000
  27.8210000  -3.2090000  38.7230000  27.4720000  -1.6780000  38.4210000
  25.7020000  10.9520000  40.6820000  26.0560000   5.6370000  53.3480000
  26.7940000   5.9640000  51.9660000  17.5010000  11.0940000  48.1860000
  18.0240000  -2.9790000  52.0980000  19.1760000  -2.7420000  51.0130000
  17.7380000  -2.0670000  50.8130000   9.0100000  13.1810000  19.9300000
   9.6910000  14.1300000  19.2070000   8.5720000  12.0410000  19.2180000
   9.8890000  14.0860000  17.8380000  10.1990000  15.1860000  19.9430000
   8.1820000  11.3950000  19.8440000   7.8960000  12.3070000  18.5590000
   9.3350000  11.6320000  18.7590000  14.0880000  16.6220000  18.1530000
   9.5320000  13.3710000  17.3250000  10.9050000  16.1970000  19.3250000
  10.0590000  15.2160000  20.8820000  11.1240000  16.1640000  17.9490000
  11.2440000  16.9200000  19.8400000   9.4090000  17.4390000  16.5000000
  11.8720000  17.1990000  17.3180000  11.3850000  17.8490000  16.1700000
  12.4920000  16.1190000   9.3420000  12.2650000  18.4840000  15.2810000
  10.0070000  17.8690000  15.9010000  11.7060000  14.9720000   9.2630000
  10.6170000  15.1000000  17.2190000  11.7480000  19.1050000  14.1610000
  13.2000000  18.4860000  15.4470000   9.5060000  18.5030000  14.7820000
  10.7690000  15.0620000  16.2820000  10.4910000  14.9980000   8.6210000
  13.9640000  15.7390000  17.8240000  14.4770000  19.2010000  19.1020000
  12.0130000  14.1630000   9.6570000  10.3740000  19.1250000  13.8930000
  12.5170000  19.8050000  13.0380000  16.7260000  18.6980000  12.1040000
  10.0140000  16.1830000   8.0730000   9.9750000  14.2040000   8.5530000
   7.4680000  20.1080000   6.5910000  14.7990000  20.5390000  13.2470000
  13.4720000  20.8880000  13.5150000  13.4780000  18.8580000  12.3320000
  11.3770000  20.2910000  12.1470000   8.7880000  16.1020000   7.4580000
  15.8140000  18.4880000  11.9410000  13.1340000  22.0990000  14.0910000
  13.1330000  17.7730000  11.5600000  14.8080000  19.2580000  12.5190000
  11.4680000  21.0470000  10.9980000  10.1430000  19.8650000  12.6500000
   8.3030000  17.2690000   6.8010000  15.4840000  22.6280000  14.2080000
  16.7210000  21.2010000  13.4440000  14.1500000  22.9900000  14.4400000
  12.3170000  21.3080000  10.6600000  14.1400000  17.0610000  10.8890000
  12.2240000  17.5090000  11.4810000  15.8120000  21.4230000  13.6080000
  12.2230000  22.3210000  14.2480000  10.2940000  21.4250000  10.3370000
   8.9760000  20.2260000  11.9830000   8.1200000  17.9660000   7.4650000
   7.4790000  17.0530000   6.3170000   8.9790000  17.5910000   6.1690000
  16.1790000  23.2220000  14.4670000  13.8400000  24.2470000  15.0240000
  13.7670000  16.0470000   9.9880000  15.4800000  17.4090000  11.1220000
   8.1310000  19.9370000  12.3080000  10.3900000  22.2730000   9.1980000
   9.0540000  21.0110000  10.8430000   8.5700000  18.5130000  14.6190000
  11.4050000  23.2830000   9.2340000  14.5460000  25.4190000  14.6080000
   9.5300000  22.1640000   8.0860000  14.6960000  15.0900000   9.4760000
   8.9510000  20.2240000   8.3690000  13.0980000  17.5850000  17.9420000
  12.5430000  24.4450000  15.5960000   8.2570000  21.2720000  10.3980000
  12.3620000  23.3730000   8.2350000  11.4640000  24.1680000  10.3070000
  14.8350000  26.4030000  15.5450000  14.9100000  25.6230000  13.2820000
   9.3660000  23.2310000   7.2070000  14.8010000  14.8880000   8.1080000
  12.0150000  17.2970000   8.7860000  15.4700000  14.3030000  10.3310000
  11.6600000  25.3880000  15.1070000  13.3090000  18.8670000  18.4130000
   8.8260000  20.9830000   7.8120000  12.1360000  23.6600000  16.6770000
  13.3750000  24.3230000   8.2990000   9.8480000  24.0360000   7.3590000
  12.4810000  25.1000000  10.3910000  14.7180000  24.9570000  12.6330000
  12.5460000  18.0830000   8.8300000  15.5510000  26.7890000  12.8990000
  14.6010000  26.2670000  16.4560000  15.4640000  27.5840000  15.1660000
   7.9560000  20.9090000   6.7450000  12.3260000  22.7780000   7.4960000
  10.7730000  17.3440000   8.1670000  14.2870000  15.4280000   7.5190000
  16.3250000  13.3450000   9.8140000  16.1720000  16.9000000  10.7160000
  15.6400000  13.9140000   7.5800000  15.4090000  14.4250000  11.2710000
  15.2430000  16.9410000  18.8320000  12.7330000  23.0110000  17.0320000
  10.8840000  23.8080000  17.2430000  12.6470000  19.5320000  18.2660000
   8.5130000  23.1460000   6.1110000  10.8010000  24.1310000  10.9860000
  10.3850000  25.5520000  15.6950000  11.9120000  25.9300000  14.3690000
  13.4490000  25.1720000   9.3920000  12.5200000  25.6930000  11.1320000
  14.0130000  24.3900000   7.5980000  15.8230000  27.7800000  13.8410000
  15.8050000  26.9140000  11.9930000  15.6470000  28.2540000  15.8130000
  10.4450000  18.1610000   7.8100000   7.7870000  21.9910000   5.8930000
  15.6880000  13.7800000   6.6400000  16.4060000  13.1420000   8.4360000
  15.9080000  16.2770000  18.9720000  16.8600000  12.8240000  10.4000000
  15.4420000  18.2270000  19.3150000  14.6100000  20.0860000  19.4220000
  10.6220000  23.2570000  17.9710000  10.0160000  24.7560000  16.7450000
   8.4310000  23.8800000   5.5140000   9.7870000  26.2120000  15.3630000
  14.4450000  26.0950000   9.5880000  16.6130000  18.4130000  20.0030000
   6.8790000  21.7970000   4.8720000  17.2470000  12.1410000   8.0290000
   8.7960000  24.8250000  17.3950000  16.4260000  28.9100000  13.3560000
  15.4420000  26.2020000   8.5680000  16.6320000  29.9880000  14.2710000
   6.6390000  22.8840000   4.0190000  17.3350000  11.8850000   6.6290000
  16.9130000  19.7190000  20.4720000   7.8370000  25.7030000  16.8660000
  15.0250000  26.5020000   7.7340000  15.8610000  25.3260000   8.4280000
  16.1240000  26.8500000   8.8440000  15.7710000  30.2640000  14.6500000
  17.2280000  29.6960000  14.9920000  17.0370000  30.7450000  13.7990000
   6.3260000  23.6490000   4.5460000  16.4570000  11.6180000   6.2900000
   5.9560000  22.6380000   3.3610000   7.4680000  23.1250000   3.5540000
  17.9800000  11.1650000   6.4690000  17.6310000  12.6960000   6.1670000
  16.9530000  20.3380000  19.7120000  17.7780000  19.7100000  20.9330000
  16.2150000  20.0110000  21.0940000   7.0090000  25.6310000  17.3850000
   8.1740000  26.6220000  16.9140000   7.6600000  25.4680000  15.9320000
  22.8110000  18.4750000  36.1300000  22.0200000  27.8410000  29.9680000
  22.8290000  30.0490000  30.3980000  20.6750000  19.2630000  35.2290000
  21.4410000  17.0020000  34.9590000  23.2350000  30.8060000  29.9260000
  21.9690000  30.3250000  30.7770000  23.4260000  29.7570000  31.1190000
  18.3340000  23.7210000  32.8040000  21.8450000  28.3160000  31.9400000
  21.0330000  26.4640000  31.6720000  22.0030000  26.9750000  28.1200000
  18.7410000  24.5060000  31.7230000  18.7440000  18.1440000  24.9570000
  22.3770000  23.2830000  30.5940000  18.0700000  17.2600000  33.4450000
  17.5820000  17.9100000  32.2970000  19.2960000  17.6460000  34.0690000
  17.6660000  21.1080000  27.1250000  21.6820000  22.6890000  30.3350000
  21.6680000  14.3640000  26.4580000  20.2860000  16.6830000  34.2800000
  19.6700000  20.9500000  29.6420000  19.3980000  18.5470000  31.5740000
  22.0110000  18.5490000  28.0680000  20.9160000  25.0180000  28.7600000
  21.8380000  13.9750000  23.7070000  22.3690000  16.9610000  26.8430000
  22.5230000  13.4060000  25.9410000  20.1620000  15.8000000  33.9510000
  20.9970000  20.6000000  29.3740000  18.7140000  19.8660000  29.1650000
  22.9190000  21.2620000  29.5710000  22.6040000  13.2030000  24.5630000
  21.8860000  13.8410000  22.7670000  23.0580000  12.8850000  26.5270000
  16.3410000  19.9260000  28.7770000  17.5740000  20.3520000  28.2740000
  19.6760000  18.9200000  28.4590000  17.9460000  19.1670000  30.2880000
  23.4440000  12.2020000  24.1560000  15.1740000  20.2870000  28.1100000
  18.4620000  18.5450000  31.4080000  19.3310000  17.8340000  27.6870000
  21.0060000  19.3190000  28.6460000  19.3310000  22.1600000  30.2180000
  16.5720000  19.1860000  30.0200000  23.5330000  11.9460000  22.7560000
  15.2520000  21.0730000  26.9700000  14.3290000  19.9990000  28.4350000
  16.4920000  21.4860000  26.4640000  18.4220000  17.5700000  27.6080000
  20.3380000  17.1220000  27.0160000  18.5140000  21.3690000  26.7870000
  22.0100000  21.4840000  29.7350000  18.4210000  22.3820000  30.3750000
  20.3480000  23.0510000  30.5670000  15.7030000  18.5640000  30.9080000
  22.6540000  11.6790000  22.4170000  23.8290000  12.7570000  22.2940000
  24.1780000  11.2260000  22.5960000  18.5230000  22.8390000  23.6230000
  16.5880000  22.3340000  25.3250000  19.9650000  16.1080000  26.1150000
  21.6780000  17.4700000  27.2490000  22.9230000  18.7590000  28.2310000
  20.0380000  24.3080000  31.1510000  16.2050000  17.9310000  32.0280000
  14.7670000  18.5740000  30.7460000  15.7280000  22.2250000  24.2130000
  17.6020000  23.3440000  25.3610000  18.6900000  16.1800000  25.4690000
  20.8940000  15.1510000  25.6030000  21.6070000  14.4860000  27.3980000
  20.7440000  25.4800000  30.7350000  17.3210000  16.2250000  34.0760000
  15.6060000  17.5010000  32.6270000  15.5640000  23.2920000  23.3340000
  18.5600000  23.4350000  24.3620000  17.8580000  25.4490000  31.2340000
  17.6620000  24.2290000  26.4340000  17.9040000  15.0330000  25.3900000
  18.2130000  17.3580000  24.9130000  15.0240000  21.0440000  23.9390000
  20.9980000  14.9490000  24.2350000  16.8150000  15.1610000  33.3460000
  21.1080000  25.6840000  29.4090000  17.1020000  16.2580000  35.4520000
  19.5070000  18.9280000  34.5400000  14.1540000  20.9700000  22.8720000
  14.4540000  21.3330000  26.5250000  16.5830000  25.6140000  31.8220000
  18.8450000  19.5930000  34.3930000  16.9990000  24.1920000  27.1130000
  17.0810000  23.8690000  33.3700000  18.1100000  25.9920000  30.4960000
  18.6790000  25.1610000  26.5180000  16.9710000  17.4050000  24.2940000
  16.0450000  24.0970000  23.4860000  16.6890000  15.0600000  24.7480000
  18.2110000  14.2240000  25.7840000  14.7110000  23.2070000  22.2380000
  15.1480000  20.2850000  24.4960000  19.5730000  24.3840000  24.4260000
  20.4850000  15.4890000  23.6460000  21.7480000  26.8500000  29.0260000
  18.9310000  23.0720000  33.1590000  21.6620000  27.6450000  31.2930000
  20.7980000  26.3290000  32.5830000  16.3960000  15.2480000  36.0700000
  16.9670000  15.1230000  32.4090000  16.0870000  14.1470000  33.9650000
  17.4410000  16.9810000  35.9670000  15.8890000  14.1910000  35.3340000
  13.6660000  20.1690000  22.7180000  16.6430000  18.2220000  23.9370000
  19.6470000  25.2330000  25.5190000  18.7180000  25.7540000  27.2590000
  15.9850000  26.2730000  31.4900000  15.7300000  13.4320000  33.4520000
  16.2120000  16.2450000  24.2000000  16.1730000  14.2650000  24.6800000
  13.9840000  22.0520000  22.0200000  14.6280000  23.9410000  21.6410000
  20.2110000  24.4510000  23.7250000  16.2140000  24.8170000  32.8720000
  16.8190000  23.3190000  34.0980000  20.8070000  20.1470000  35.5490000
  21.6400000  18.2880000  35.4420000  16.2570000  15.2770000  37.0090000
  22.1050000  16.3380000  35.0990000  22.6240000  28.9710000  29.4830000
  14.9940000  24.8860000  33.5220000  14.9860000  16.1630000  23.5850000
  13.0770000  21.8580000  20.9990000  20.6430000  26.1560000  25.7150000
  15.2070000  13.2420000  36.0570000  12.8370000  22.9450000  20.1460000
  14.7700000  12.1020000  35.3450000  14.5010000  17.3300000  22.9280000
  21.6400000  26.2630000  24.6950000  14.0350000  25.7640000  32.9930000
  23.1110000  19.7800000  36.5990000  13.6660000  23.1860000  19.6810000
  14.3170000  18.0270000  23.5920000  14.0940000  12.3680000  34.6860000
  14.3800000  11.4560000  35.9710000  12.1540000  22.7000000  19.4880000
  12.5240000  23.7100000  20.6730000  13.6760000  17.1140000  22.4440000
  15.1760000  17.6520000  22.2960000  15.5330000  11.6930000  34.8860000
  21.2230000  26.5630000  23.8610000  22.3210000  26.9110000  24.9710000
  22.0580000  25.3870000  24.5550000  14.3720000  26.6830000  33.0410000
  13.8580000  25.5290000  32.0590000  13.2060000  25.6930000  33.5120000
  23.9760000  19.7710000  37.0600000  22.4130000  20.0720000  37.2210000
  23.1510000  20.3990000  35.8390000  18.9800000  43.4060000  13.3560000
  17.9970000  32.7230000  19.3150000  19.4670000  34.2150000  20.4720000
  17.0310000  33.6980000  19.1020000  17.7970000  31.4370000  18.8320000
  19.5070000  34.8340000  19.7120000  18.7690000  34.5070000  21.0940000
  20.3320000  34.2060000  20.9330000  13.4590000  30.6930000  19.3250000
  12.6140000  29.7120000  20.8820000  15.8630000  33.3630000  18.4130000
  13.1760000  37.7540000  17.9710000  13.6780000  30.6600000  17.9490000
  13.7980000  31.4160000  19.8400000  15.2870000  37.5080000  17.0320000
  14.4260000  31.6950000  17.3180000  13.9390000  32.3450000  16.1700000
  15.6520000  32.0810000  17.9420000  14.8190000  32.9800000  15.2810000
  12.5610000  32.3660000  15.9010000  14.6910000  38.1560000  16.6770000
  14.2150000  39.8840000  15.1070000  14.3020000  33.6020000  14.1610000
  14.7770000  36.8170000  14.2480000  12.0600000  32.9990000  14.7820000
  13.3240000  29.5580000  16.2820000  12.9390000  40.0490000  15.6950000
  11.9630000  31.9360000  16.5000000  13.4380000  38.3040000  17.2430000
  15.2010000  34.0280000  18.2660000  12.9290000  33.6210000  13.8930000
  15.0710000  34.3010000  13.0380000  19.2800000  33.1940000  12.1040000
  12.5700000  39.2520000  16.7450000  10.9850000  38.3760000   5.5140000
  12.3420000  40.7080000  15.3630000  17.3540000  35.0350000  13.2470000
  16.0320000  33.3550000  12.3320000  13.9310000  34.7870000  12.1470000
  16.0270000  35.3850000  13.5150000  11.3500000  39.3210000  17.3950000
  18.3680000  32.9850000  11.9410000  15.6880000  32.2690000  11.5600000
  14.0220000  35.5430000  10.9980000  12.6980000  34.3610000  12.6500000
  15.6880000  36.5950000  14.0910000  17.3630000  33.7540000  12.5190000
  10.3910000  40.1990000  16.8660000  18.0340000  31.9050000  11.1220000
  19.2750000  35.6980000  13.4440000  16.6940000  31.5570000  10.8890000
  14.8710000  35.8040000  10.6600000  12.8480000  35.9210000  10.3370000
  14.7790000  32.0050000  11.4810000  11.5300000  34.7220000  11.9830000
  15.7540000  32.9820000  15.4470000  16.7040000  37.4860000  14.4400000
  18.3660000  35.9190000  13.6080000  10.2140000  39.9640000  15.9320000
   9.5630000  40.1280000  17.3850000  10.7290000  41.1180000  16.9140000
  17.9640000  28.9210000  11.2710000  16.3210000  30.5430000   9.9880000
  12.9440000  36.7690000   9.1980000  11.6090000  35.5080000  10.8430000
  11.1240000  33.0090000  14.6190000  16.3940000  38.7440000  15.0240000
  18.0390000  37.1240000  14.2080000  10.6850000  34.4340000  12.3080000
  17.2500000  29.5860000   9.4760000  15.0470000  30.6150000   9.3420000
  12.0840000  36.6600000   8.0860000  15.0980000  38.9410000  15.5960000
  10.8110000  35.7680000  10.3980000  13.9590000  37.7790000   9.2340000
  17.1010000  39.9150000  14.6080000  14.4660000  40.4270000  14.3690000
  17.3550000  29.3840000   8.1080000  14.9170000  37.8700000   8.2350000
  18.0240000  28.7990000  10.3310000  16.6430000  31.1180000  18.1530000
  11.9200000  37.7270000   7.2070000  11.3810000  35.4790000   7.8120000
  14.5700000  31.7930000   8.7860000  13.1720000  29.5960000  17.2190000
  14.2610000  29.4680000   9.2630000  17.3890000  40.8990000  15.5450000
  14.0180000  38.6640000  10.3070000  17.4650000  40.1190000  13.2820000
  13.0450000  29.4950000   8.6210000  16.5180000  30.2350000  17.8240000
  15.9290000  38.8190000   8.2990000  14.8800000  37.2740000   7.4960000
  16.8410000  29.9240000   7.5190000  18.1950000  28.4100000   7.5800000
  18.7260000  31.3960000  10.7160000  18.8790000  27.8410000   9.8140000
  13.3270000  31.8400000   8.1670000  13.3550000  38.6270000  10.9860000
  10.5110000  35.4050000   6.7450000  11.5050000  34.7200000   8.3690000
  12.4430000  28.5820000  17.8380000  14.5670000  28.6590000   9.6570000
  12.7530000  29.6830000  19.9430000  12.4020000  38.5320000   7.3590000
  15.0350000  39.5960000  10.3910000  18.7330000  37.7180000  14.4670000
  11.0680000  37.6420000   6.1110000  17.1550000  40.7640000  16.4560000
  18.0180000  42.0800000  15.1660000  17.2720000  39.4530000  12.6330000
  18.1050000  41.2850000  12.8990000  15.1000000  32.5790000   8.8300000
  12.5690000  30.6800000   8.0730000  12.5290000  28.7000000   8.5530000
  18.2420000  28.2760000   6.6400000  18.9600000  27.6380000   8.4360000
  19.4140000  27.3200000  10.4000000  18.4620000  30.7730000  18.9720000
  13.0000000  32.6570000   7.8100000  10.3410000  36.4870000   5.8930000
  10.0220000  34.6040000   6.5910000  12.2450000  28.6270000  19.2070000
  18.2010000  42.7510000  15.8130000  12.0860000  27.8670000  17.3250000
  18.3770000  42.2760000  13.8410000  15.0740000  40.1900000  11.1320000
  17.1640000  34.5830000  19.4220000  16.0030000  39.6680000   9.3920000
  18.3600000  41.4100000  11.9930000  16.5670000  38.8860000   7.5980000
   9.4330000  36.2930000   4.8720000  19.8010000  26.6370000   8.0290000
  11.3420000  30.5980000   7.4580000  11.5640000  27.6770000  19.9300000
  19.1670000  32.9100000  20.0030000  17.0000000  40.5910000   9.5880000
   9.1940000  37.3800000   4.0190000  19.8900000  26.3810000   6.6290000
  10.8580000  31.7650000   6.8010000  11.1270000  26.5370000  19.2180000
  19.1860000  44.4840000  14.2710000  17.9970000  40.6980000   8.5680000
  10.0220000  37.6210000   3.5540000  10.6740000  32.4620000   7.4650000
  11.5330000  32.0880000   6.1690000  19.0110000  26.1140000   6.2900000
  20.1850000  27.1920000   6.1670000  20.5340000  25.6610000   6.4690000
   8.8800000  38.1450000   4.5460000  10.0330000  31.5490000   6.3170000
   8.5100000  37.1350000   3.3610000  11.8890000  26.1280000  18.7590000
  10.4510000  26.8030000  18.5590000  10.7370000  25.8910000  19.8440000
  18.3250000  44.7600000  14.6500000  19.5910000  45.2410000  13.7990000
  19.7820000  44.1920000  14.9920000  17.5800000  40.9980000   7.7340000
  18.4150000  39.8230000   8.4280000  18.6780000  41.3460000   8.8440000
  24.0890000  72.3990000  13.3560000  23.1050000  61.7160000  19.3150000
  24.5760000  63.2070000  20.4720000  22.1400000  62.6900000  19.1020000
  22.9060000  60.4300000  18.8320000  24.6160000  63.8260000  19.7120000
  23.8780000  63.4990000  21.0940000  25.4410000  63.1990000  20.9330000
  18.5670000  59.6860000  19.3250000  17.7220000  58.7040000  20.8820000
  20.9720000  62.3550000  18.4130000  18.2840000  66.7460000  17.9710000
  18.7860000  59.6520000  17.9490000  18.9060000  60.4080000  19.8400000
  20.3960000  66.5000000  17.0320000  19.5350000  60.6880000  17.3180000
  19.0470000  61.3380000  16.1700000  20.7610000  61.0730000  17.9420000
  19.9270000  61.9720000  15.2810000  17.6700000  61.3580000  15.9010000
  19.7990000  67.1490000  16.6770000  19.3230000  68.8760000  15.1070000
  19.4110000  62.5940000  14.1610000  19.8860000  65.8090000  14.2480000
  17.1680000  61.9910000  14.7820000  18.4320000  58.5500000  16.2820000
  18.0480000  69.0410000  15.6950000  17.0710000  60.9280000  16.5000000
  18.5460000  67.2960000  17.2430000  20.3100000  63.0210000  18.2660000
  18.0370000  62.6130000  13.8930000  20.1790000  63.2930000  13.0380000
  24.3880000  62.1860000  12.1040000  17.6790000  68.2450000  16.7450000
  16.0930000  67.3680000   5.5140000  17.4500000  69.7010000  15.3630000
  22.4620000  64.0270000  13.2470000  21.1410000  62.3470000  12.3320000
  19.0390000  63.7790000  12.1470000  21.1350000  64.3770000  13.5150000
  16.4590000  68.3130000  17.3950000  23.4760000  61.9770000  11.9410000
  20.7960000  61.2620000  11.5600000  19.1310000  64.5360000  10.9980000
  17.8060000  63.3530000  12.6500000  20.7960000  65.5880000  14.0910000
  22.4710000  62.7470000  12.5190000  15.5000000  69.1910000  16.8660000
  23.1430000  60.8970000  11.1220000  24.3840000  64.6900000  13.4440000
  21.8030000  60.5500000  10.8890000  19.9790000  64.7970000  10.6600000
  17.9570000  64.9140000  10.3370000  19.8870000  60.9970000  11.4810000
  16.6390000  63.7150000  11.9830000  20.8630000  61.9750000  15.4470000
  21.8130000  66.4790000  14.4400000  23.4750000  64.9110000  13.6080000
  15.3230000  68.9560000  15.9320000  14.6710000  69.1200000  17.3850000
  15.8370000  70.1100000  16.9140000  23.0720000  57.9130000  11.2710000
  21.4300000  59.5350000   9.9880000  18.0530000  65.7610000   9.1980000
  16.7170000  64.5000000  10.8430000  16.2320000  62.0020000  14.6190000
  21.5030000  67.7360000  15.0240000  23.1470000  66.1170000  14.2080000
  15.7940000  63.4260000  12.3080000  22.3590000  58.5790000   9.4760000
  20.1550000  59.6070000   9.3420000  17.1930000  65.6520000   8.0860000
  20.2060000  67.9330000  15.5960000  15.9190000  64.7610000  10.3980000
  19.0670000  66.7710000   9.2340000  22.2090000  68.9070000  14.6080000
  19.5750000  69.4190000  14.3690000  22.4630000  58.3770000   8.1080000
  20.0250000  66.8620000   8.2350000  23.1330000  57.7910000  10.3310000
  21.7510000  60.1100000  18.1530000  17.0290000  66.7200000   7.2070000
  16.4890000  64.4720000   7.8120000  19.6780000  60.7850000   8.7860000
  18.2800000  58.5880000  17.2190000  19.3690000  58.4600000   9.2630000
  22.4980000  69.8910000  15.5450000  19.1270000  67.6560000  10.3070000
  22.5730000  69.1120000  13.2820000  18.1540000  58.4870000   8.6210000
  21.6270000  59.2280000  17.8240000  21.0380000  67.8120000   8.2990000
  19.9880000  66.2660000   7.4960000  21.9500000  58.9160000   7.5190000
  23.3030000  57.4020000   7.5800000  23.8340000  60.3890000  10.7160000
  23.9880000  56.8340000   9.8140000  18.4360000  60.8320000   8.1670000
  18.4640000  67.6190000  10.9860000  15.6190000  64.3970000   6.7450000
  16.6130000  63.7120000   8.3690000  17.5520000  57.5750000  17.8380000
  19.6760000  57.6520000   9.6570000  17.8610000  58.6750000  19.9430000
  17.5100000  67.5240000   7.3590000  20.1440000  68.5890000  10.3910000
  23.8420000  66.7110000  14.4670000  16.1760000  66.6340000   6.1110000
  22.2630000  69.7560000  16.4560000  23.1270000  71.0720000  15.1660000
  22.3810000  68.4460000  12.6330000  23.2130000  70.2770000  12.8990000
  20.2090000  61.5720000   8.8300000  17.6770000  59.6720000   8.0730000
  17.6380000  57.6920000   8.5530000  23.3510000  57.2680000   6.6400000
  24.0690000  56.6300000   8.4360000  24.5230000  56.3120000  10.4000000
  23.5700000  59.7650000  18.9720000  18.1080000  61.6500000   7.8100000
  15.4490000  65.4790000   5.8930000  15.1310000  63.5970000   6.5910000
  17.3540000  57.6190000  19.2070000  23.3100000  71.7430000  15.8130000
  17.1950000  56.8600000  17.3250000  23.4850000  71.2690000  13.8410000
  20.1830000  69.1820000  11.1320000  22.2720000  63.5750000  19.4220000
  21.1120000  68.6600000   9.3920000  23.4680000  70.4020000  11.9930000
  21.6760000  67.8790000   7.5980000  14.5420000  65.2850000   4.8720000
  24.9090000  55.6290000   8.0290000  16.4510000  59.5900000   7.4580000
  16.6720000  56.6700000  19.9300000  24.2760000  61.9020000  20.0030000
  22.1080000  69.5840000   9.5880000  14.3020000  66.3730000   4.0190000
  24.9980000  55.3730000   6.6290000  15.9660000  60.7580000   6.8010000
  16.2350000  55.5300000  19.2180000  24.2940000  73.4770000  14.2710000
  23.1050000  69.6900000   8.5680000  15.1310000  66.6130000   3.5540000
  15.7820000  61.4540000   7.4650000  16.6410000  61.0800000   6.1690000
  24.1190000  55.1060000   6.2900000  25.2940000  56.1850000   6.1670000
  25.6430000  54.6530000   6.4690000  13.9890000  67.1370000   4.5460000
  15.1410000  60.5410000   6.3170000  13.6190000  66.1270000   3.3610000
  16.9980000  55.1200000  18.7590000  15.5590000  55.7950000  18.5590000
  15.8450000  54.8840000  19.8440000  23.4340000  73.7530000  14.6500000
  24.7000000  74.2340000  13.7990000  24.8910000  73.1840000  14.9920000
  22.6880000  69.9910000   7.7340000  23.5230000  68.8150000   8.4280000
  23.7860000  70.3390000   8.8440000  71.2270000   4.3480000   8.6740000
  70.3200000   4.1540000   7.6540000  71.4670000   3.2600000   9.5270000
  69.5930000   2.9990000   7.4360000  70.1500000   5.2360000   6.8020000
  69.1280000   8.5530000   7.3780000  70.6280000   9.0920000   7.2300000
  72.1500000   3.5060000  10.1860000  69.2800000   5.1610000   5.7340000
  69.6760000   2.2650000   8.0330000  68.7400000   2.9140000   6.3400000
  70.6380000   6.0360000   6.9560000  66.7020000   2.8620000   4.3130000
  69.1560000   5.9210000   5.1770000  69.8500000   4.8720000   3.1490000
  67.7160000   3.8720000   4.3480000  67.8120000   4.7190000   3.2100000
  68.5760000   3.9810000   5.4610000  66.6380000   5.0980000   2.5480000
  69.0520000   5.1330000   2.7040000  63.3060000  11.2560000   5.4380000
  67.4890000  11.0450000  -3.6730000  66.7290000   5.8540000   1.4000000
  65.8820000   8.6360000   2.0650000  69.1300000   5.9180000   1.5630000
  65.7800000   3.3670000   6.0510000  67.6150000  11.1460000   4.9250000
  63.8190000  10.7170000   6.0280000  67.3330000   8.8010000   5.3800000
  68.2590000   2.1090000   6.1880000  67.9630000   6.2800000   0.8970000
  65.5900000   6.3400000   0.5080000  69.9750000   6.2070000   1.2390000
  68.0920000   9.9610000   5.4740000  68.1310000  11.9410000   4.9940000
  68.5740000  12.7730000  -3.7780000  63.3070000   5.6060000   0.2990000
  64.6340000   5.2560000   0.0310000  64.6280000   7.2860000   1.2150000
  66.3580000   7.0390000  -0.6140000  69.3180000  10.0430000   6.0890000
  62.2940000   4.7220000  -0.0610000  64.9730000   4.0460000  -0.5450000
  64.9730000   8.3710000   1.9870000  63.2980000   6.8860000   1.0280000
  65.8420000   7.6610000  -1.7350000  67.7320000   7.0200000  -0.3460000
  60.7710000  14.2600000   6.9170000  62.6220000   3.5160000  -0.6610000
  61.3850000   4.9430000   0.1020000  63.9560000   3.1540000  -0.8940000
  65.8830000   3.8240000  -0.7010000  63.9660000   9.0830000   2.6570000
  64.9060000   7.6580000  -1.9000000  62.2930000   7.6560000   1.6050000
  65.7900000   4.8360000   2.8860000  66.7220000   8.2960000  -2.6230000
  68.6010000   7.6420000  -1.2350000  61.6500000  14.5270000   7.2570000
  60.1260000  14.9800000   7.0770000  70.2100000  13.8380000  -5.0120000
  63.3880000   1.1880000   0.9140000  64.2660000   1.8970000  -1.4780000
  64.3390000  10.0980000   3.5590000  62.6260000   8.7360000   2.4240000
  61.3800000   7.4470000   1.4420000  66.2340000   8.9450000  -3.7720000
  68.0990000   8.2750000  -2.3540000  69.5370000   7.6320000  -1.0720000
  65.0080000   8.5600000  -4.3960000  63.5600000   0.7260000  -1.0620000
  65.6140000  10.0260000   4.2050000  63.4100000  11.0540000   4.0700000
  67.3370000  11.0830000  -2.7360000  65.5630000   1.7000000  -2.0500000
  66.9820000   9.9810000  -4.4030000  68.6980000   8.7050000  -2.9540000
  65.7440000   2.7710000   5.3110000  64.7970000   7.2780000  -4.8660000
  63.1960000   0.5210000   0.2650000  66.6420000   1.9770000   3.2400000
  64.0180000   9.5230000  -4.6060000  66.4000000  11.1730000   4.2830000
  66.0910000   8.8480000   4.7600000  62.6360000  11.8420000   3.2160000
  66.4460000   0.7570000  -1.5600000  63.2710000  -0.2580000  -1.9980000
  67.2010000   9.9470000  -5.7780000  65.9700000   2.4840000  -3.1310000
  67.7210000   0.5920000  -2.1480000  65.5600000   8.0620000   4.7160000
  63.6290000   6.9430000  -5.5560000  63.5060000  -0.1230000  -2.9090000
  61.9270000   2.9220000  -0.9200000  62.6420000  -1.4390000  -1.6190000
  66.1940000   0.2140000  -0.8220000  62.5560000  -0.6440000   0.6470000
  62.8630000   9.2030000  -5.2860000  64.1420000  10.4050000  -4.2780000
  61.7810000  12.7990000   3.7330000  62.6970000  11.7200000   2.2750000
  64.7310000   1.8210000   5.2470000  66.0930000  11.9810000   3.8900000
  62.4660000  12.2310000   5.9670000  61.9340000   9.2440000   2.8310000
  65.6250000   1.0440000   3.1560000  65.3730000   3.1330000  -3.4850000
  67.2230000   2.3370000  -3.6960000  67.3050000   2.0140000   2.5610000
  67.9080000  10.9580000  -6.3960000  66.8620000   9.2250000  -6.2930000
  68.2170000  12.0580000  -4.2910000  65.4590000   6.6120000  -4.7190000
  62.6640000   7.9170000  -5.7690000  65.5860000   0.4510000   2.4150000
  63.4970000   6.0580000  -5.8750000  62.2840000  -1.6360000  -0.2950000
  62.4590000  -2.1100000  -2.2660000  62.3010000  -0.7690000   1.5540000
  62.1990000   9.8680000  -5.4250000  68.4150000  12.0140000  -5.6600000
  61.2460000  13.3210000   3.1470000  61.7000000  13.0030000   5.1100000
  64.0930000   1.7540000   5.9480000  62.4180000  12.3650000   6.9060000
  64.6570000   0.9730000   4.1550000  67.4850000   2.8870000  -4.4240000
  68.3190000  -0.0680000  -1.8160000  68.0900000   1.3880000  -3.1990000
  68.0470000  10.9290000  -7.3360000  67.6610000   7.9830000   5.7370000
  69.3100000   1.3200000  -3.8480000  61.6800000  -2.7650000   0.1910000
  61.4930000   7.7310000  -6.4560000  60.8590000  14.0040000   5.5180000
  63.6610000   0.0490000   3.9580000  69.0970000  12.9630000  -6.3830000
  61.1930000   6.4260000  -6.9250000  61.4750000  -3.8440000  -0.7240000
  70.2690000   0.4420000  -3.3200000  62.6640000  -0.0570000   4.9780000
  69.8030000   8.8750000   6.7460000  69.5340000  14.1030000  -5.6720000
  61.8910000   6.1340000  -7.5470000  60.3280000   6.4340000  -7.3860000
  61.1530000   5.8070000  -6.1660000  61.0690000  -4.6010000  -0.2520000
  61.9830000  -0.7060000   4.7030000  62.3350000  -4.1200000  -1.1030000
  69.9320000  -0.4770000  -3.3670000  70.4460000   0.6770000  -2.3850000
  71.0980000   0.5130000  -3.8380000  63.0810000  -0.3580000   5.8120000
  62.2460000   0.8180000   5.1190000  60.4750000  13.4490000   7.3800000
  60.8780000  -3.5510000  -1.4450000  70.6380000   3.0200000   9.9920000
  71.7800000   2.4960000   9.0010000  68.7710000  14.5130000  -5.2120000
  69.9240000  14.7490000  -6.2970000  69.9860000   8.1790000   6.0810000
  70.2450000  22.2880000   9.6710000  71.0360000  12.9220000  15.8320000
  70.2260000  10.7140000  15.4030000  78.3450000  17.5560000  23.5630000
  72.3810000  21.5000000  10.5710000  69.0800000  20.9920000   8.7410000
  70.7350000  13.8520000  20.8300000  69.8210000   9.9570000  15.8750000
  74.7220000  17.0420000  12.9960000  71.2110000  12.4470000  13.8610000
  72.0230000  14.2990000  14.1290000  72.2490000  20.6150000  10.2520000
  73.7600000  23.1170000  11.7310000  74.3120000  22.6190000  20.8430000
  70.6790000  17.4800000  15.2070000  73.0180000  16.4540000  14.6490000
  75.4740000  22.8530000  13.5040000  74.3150000  16.2570000  14.0770000
  75.3900000  19.6550000  18.6750000  71.3780000  23.2930000  18.5510000
  75.1520000  25.7300000  20.4100000  74.4960000  17.3280000  21.4380000
  73.3860000  19.8130000  16.1580000  74.5420000  19.3940000  19.0130000
  71.0450000  22.2130000  17.7320000  72.8940000  24.9630000  11.8490000
  78.9020000  19.7930000  22.9290000  74.8450000  26.5390000  20.0170000
  73.4830000  16.3790000  21.3740000  77.0110000  16.6660000  22.3150000
  72.0590000  20.1630000  16.4260000  74.3420000  20.8970000  16.6350000
  70.1370000  19.5000000  16.2290000  79.0710000  18.7110000  23.7810000
  78.4280000  16.8220000  24.1600000  72.8450000  16.3120000  22.0750000
  76.4840000  21.5770000  15.7810000  75.1100000  21.5960000  15.5130000
  75.4810000  20.4110000  17.5270000  73.3800000  21.8430000  17.3420000
  70.4320000  11.7920000  16.3180000  77.3530000  22.1990000  14.8920000
  74.5940000  22.2180000  14.3920000  73.7250000  22.9290000  18.1140000
  72.0500000  21.4440000  17.1550000  73.7250000  18.6030000  15.5820000
  76.7150000  20.8370000  17.0240000  71.4160000  14.5000000  21.1050000
  76.8510000  22.8320000  13.7730000  70.1320000  22.0040000  17.5690000
  76.5640000  19.2770000  19.3370000  74.6340000  23.1930000  18.1920000
  72.7180000  23.6410000  18.7840000  73.6580000  22.2160000  14.2270000
  77.8820000  20.4760000  17.6900000  74.6350000  18.3810000  15.4260000
  72.7080000  17.7120000  15.2330000  71.0460000  19.2790000  16.0660000
  71.8330000  14.2000000  21.9390000  69.2270000  28.0060000  23.5070000
  70.9970000  15.3750000  21.2460000  75.6140000  23.7820000   9.8340000
  74.9860000  23.5030000  12.3550000  73.0910000  24.6550000  19.6860000
  77.8040000  19.6900000  18.8310000  78.2890000  22.1890000  15.0550000
  76.4680000  18.4290000  20.4750000  71.3740000  18.0740000  15.4660000
  78.7270000  20.7640000  17.3660000  74.3660000  24.5830000  20.3320000
  75.7340000  24.5380000  11.7240000  77.3280000  18.5380000  21.5880000
  72.1620000  25.6120000  20.1970000  74.5320000  17.9240000  22.1770000
  72.3120000  15.2830000  15.0650000  75.4530000  17.4190000  20.4400000
  78.6020000  19.4300000  19.2760000  72.7700000  24.0800000  11.5210000
  76.2410000  25.6020000  12.4540000  73.5490000  21.8350000  11.2600000
  75.9530000  24.5050000  10.3490000  78.0320000  19.7190000  21.8610000
  72.0570000  25.8140000  21.5650000  74.8430000  23.4050000  20.8870000
  71.3880000  26.3990000  19.3430000  75.1980000  15.3140000  14.5670000
  71.9480000  15.0790000  16.3920000  75.3940000  16.5340000  19.3670000
  77.4920000  17.4710000  22.4670000  76.9690000  26.6160000  11.8360000
  76.0890000  25.6400000  13.3910000  76.4730000  15.1490000  13.9790000
  76.0570000  16.5710000  18.6880000  77.4500000  23.2620000  13.1730000
  76.6600000  25.5150000   9.7310000  74.1250000  17.6910000  12.6420000
  71.6150000  23.7610000  10.8410000  76.0850000  23.3580000  21.5070000
  77.9070000  20.4780000  21.3040000  76.3670000  25.7030000  21.0520000
  72.5710000  25.2740000  22.1550000  70.5330000  27.3570000  19.8600000
  71.4490000  26.2770000  18.4020000  71.2180000  26.7880000  22.0940000
  70.6860000  23.8020000  18.9580000  75.9740000  16.8940000  12.4310000
  74.2110000  21.1700000  11.4080000  71.3940000  13.1180000  14.5080000
  72.2580000  14.4340000  13.2180000  71.3080000  13.9130000  16.7740000
  72.1400000  15.7450000  17.0410000  74.3770000  15.6020000  19.2830000
  74.9460000  14.7710000  15.3050000  77.1670000  26.5710000  10.4670000
  77.3260000  27.3310000  12.3490000  79.3900000  20.5940000  23.0830000
  76.8420000  15.9460000  12.9280000  76.7990000  25.4860000   8.7910000
  70.9510000  24.4250000  10.7020000  76.4130000  22.5410000  21.8640000
  76.8440000  24.5180000  21.6010000  76.8830000  26.4980000  21.1210000
  70.4520000  27.5600000  21.2370000  69.9980000  27.8780000  19.2740000
  71.1700000  26.9220000  23.0330000  71.4160000  22.4750000  10.3580000
  76.2370000  17.4440000  11.7030000  77.0710000  14.4900000  14.3110000
  73.4090000  15.5300000  20.2820000  71.0530000  13.7880000  17.6810000
  74.3380000  15.0080000  18.5420000  79.9790000  18.9050000  24.8010000
  77.8490000  27.5210000   9.7440000  78.0700000  24.6000000  22.2160000
  69.6110000  28.5610000  21.6450000  78.0620000  15.8770000  12.2790000
  72.4130000  14.6070000  20.0850000  78.5550000  23.4330000  22.8730000
  78.2860000  28.6610000  10.4550000  80.2190000  17.8180000  25.6540000
  69.5230000  28.8170000  23.0440000  69.9450000  20.9830000   9.2020000
  79.0210000  14.9990000  12.8070000  80.9020000  18.0630000  26.3130000
  77.8800000  23.1110000  23.5050000  78.7380000  22.7360000  22.2080000
  78.6760000  29.3070000   9.8300000  78.9620000  28.3950000  11.1150000
  79.8500000  15.0700000  12.2890000  79.3800000  23.6490000  23.3570000
  69.6300000  11.0060000  14.6820000  70.4010000  29.0840000  23.3840000
  77.5230000  29.0700000  10.9150000  71.0870000  10.4380000  15.0240000
  68.8780000  29.5370000  23.2040000  69.9050000  20.3640000   9.9610000
  79.1980000  15.2340000  13.7420000  70.6430000  20.6910000   8.5800000
  80.5320000  17.0530000  25.1280000  79.3900000  17.5770000  26.1190000
  78.6840000  14.0800000  12.7600000  76.4430000  22.3500000  25.7980000
  77.2330000  12.9830000  31.9590000  76.4240000  10.7750000  31.5300000
  84.5430000  17.6170000  39.6900000  78.5790000  21.5620000  26.6980000
  75.2780000  21.0530000  24.8680000  76.9320000  13.9130000  36.9570000
  76.0190000  10.0180000  32.0020000  80.9190000  17.1030000  29.1230000
  77.4090000  12.5090000  29.9880000  78.2210000  14.3600000  30.2550000
  78.4460000  20.6770000  26.3790000  79.9580000  23.1780000  27.8580000
  80.5100000  22.6800000  36.9700000  76.8770000  17.5410000  31.3340000
  79.2160000  16.5160000  30.7760000  81.6710000  22.9140000  29.6310000
  80.5130000  16.3180000  30.2040000  81.5880000  19.7160000  34.8020000
  77.5760000  23.3540000  34.6780000  81.3490000  25.7910000  36.5370000
  80.6940000  17.3900000  37.5650000  79.5840000  19.8740000  32.2850000
  80.7390000  19.4550000  35.1400000  77.2420000  22.2750000  33.8590000
  79.0920000  25.0240000  27.9760000  85.1000000  19.8540000  39.0560000
  81.0430000  26.6000000  36.1440000  79.6810000  16.4400000  37.5010000
  83.2080000  16.7270000  38.4420000  78.2560000  20.2240000  32.5530000
  80.5390000  20.9580000  32.7620000  76.3350000  19.5620000  32.3560000
  85.2690000  18.7720000  39.9080000  84.6250000  16.8830000  40.2870000
  79.0430000  16.3730000  38.2020000  82.6820000  21.6380000  31.9080000
  81.3080000  21.6580000  31.6400000  81.6790000  20.4720000  33.6540000
  79.5780000  21.9050000  33.4690000  76.6300000  11.8530000  32.4450000
  83.5500000  22.2600000  31.0190000  80.7910000  22.2790000  30.5190000
  79.9220000  22.9900000  34.2410000  78.2480000  21.5050000  33.2820000
  79.9220000  18.6640000  31.7090000  82.9130000  20.8980000  33.1510000
  77.6140000  14.5610000  37.2320000  83.0490000  22.8940000  29.9000000
  76.3300000  22.0650000  33.6960000  82.7620000  19.3380000  35.4640000
  80.8310000  23.2540000  34.3190000  78.9160000  23.7020000  34.9110000
  79.8560000  22.2770000  30.3540000  84.0800000  20.5370000  33.8170000
  80.8330000  18.4420000  31.5530000  78.9060000  17.7730000  31.3600000
  77.2440000  19.3400000  32.1930000  78.0310000  14.2610000  38.0660000
  75.4250000  28.0670000  39.6340000  77.1950000  15.4370000  37.3730000
  81.8120000  23.8430000  25.9610000  81.1840000  23.5640000  28.4820000
  79.2890000  24.7160000  35.8130000  84.0010000  19.7520000  34.9580000
  84.4860000  22.2500000  31.1820000  82.6660000  18.4900000  36.6020000
  77.5710000  18.1350000  31.5930000  84.9250000  20.8260000  33.4930000
  80.5640000  24.6440000  36.4590000  81.9320000  24.5990000  27.8510000
  83.5260000  18.5990000  37.7150000  78.3600000  25.6730000  36.3240000
  80.7300000  17.9850000  38.3040000  78.5090000  15.3440000  31.1920000
  81.6510000  17.4800000  36.5670000  84.7990000  19.4910000  35.4030000
  78.9670000  24.1410000  27.6480000  82.4390000  25.6630000  28.5810000
  79.7470000  21.8960000  27.3870000  82.1510000  24.5660000  26.4760000
  84.2290000  19.7800000  37.9880000  78.2550000  25.8750000  37.6920000
  81.0410000  23.4660000  37.0140000  77.5860000  26.4600000  35.4700000
  81.3950000  15.3750000  30.6940000  78.1460000  15.1400000  32.5190000
  81.5920000  16.5950000  35.4940000  83.6900000  17.5320000  38.5940000
  83.1670000  26.6770000  27.9630000  82.2870000  25.7010000  29.5180000
  82.6710000  15.2100000  30.1060000  82.2550000  16.6320000  34.8150000
  83.6470000  23.3240000  29.3000000  82.8570000  25.5770000  25.8580000
  80.3230000  17.7520000  28.7690000  77.8130000  23.8220000  26.9680000
  82.2830000  23.4190000  37.6340000  84.1050000  20.5390000  37.4310000
  82.5650000  25.7650000  37.1790000  78.7690000  25.3350000  38.2820000
  76.7310000  27.4180000  35.9870000  77.6470000  26.3380000  34.5290000
  77.4150000  26.8490000  38.2210000  76.8840000  23.8630000  35.0850000
  82.1720000  16.9550000  28.5580000  80.4090000  21.2310000  27.5350000
  77.5920000  13.1790000  30.6350000  78.4550000  14.4960000  29.3450000
  77.5050000  13.9740000  32.9010000  78.3380000  15.8060000  33.1680000
  80.5750000  15.6630000  35.4100000  81.1440000  14.8330000  31.4320000
  83.3650000  26.6330000  26.5940000  83.5240000  27.3920000  28.4760000
  85.5880000  20.6550000  39.2100000  83.0400000  16.0070000  29.0550000
  82.9960000  25.5470000  24.9180000  77.1480000  24.4860000  26.8290000
  82.6100000  22.6020000  37.9900000  83.0410000  24.5800000  37.7280000
  83.0810000  26.5590000  37.2480000  76.6500000  27.6210000  37.3640000
  76.1960000  27.9390000  35.4000000  77.3680000  26.9830000  39.1600000
  77.6130000  22.5360000  26.4850000  82.4340000  17.5060000  27.8300000
  83.2680000  14.5510000  30.4380000  79.6070000  15.5910000  36.4090000
  77.2510000  13.8490000  33.8080000  80.5360000  15.0700000  34.6690000
  86.1770000  18.9660000  40.9280000  84.0460000  27.5820000  25.8710000
  84.2680000  24.6610000  38.3430000  75.8090000  28.6220000  37.7720000
  84.2600000  15.9380000  28.4060000  78.6110000  14.6680000  36.2120000
  84.7530000  23.4940000  39.0000000  84.4830000  28.7220000  26.5820000
  86.4170000  17.8790000  41.7810000  75.7200000  28.8780000  39.1710000
  76.1430000  21.0440000  25.3290000  85.2190000  15.0600000  28.9340000
  87.1000000  18.1250000  42.4400000  84.0770000  23.1720000  39.6320000
  84.9360000  22.7970000  38.3350000  84.8740000  29.3680000  25.9570000
  85.1600000  28.4560000  27.2420000  86.0470000  15.1320000  28.4160000
  85.5770000  23.7100000  39.4840000  75.8280000  11.0670000  30.8090000
  76.5990000  29.1450000  39.5110000  83.7210000  29.1310000  27.0420000
  77.2850000  10.4990000  31.1510000  75.0760000  29.5980000  39.3310000
  76.1030000  20.4250000  26.0880000  85.3960000  15.2950000  29.8690000
  76.8410000  20.7520000  24.7070000  86.7300000  17.1140000  41.2550000
  85.5880000  17.6380000  42.2460000  84.8820000  14.1410000  28.8870000
  76.3350000  33.3400000   8.6740000  75.4280000  33.1460000   7.6540000
  76.5750000  32.2530000   9.5270000  72.7240000  40.1380000   4.9250000
  75.2580000  34.2280000   6.8020000  74.2360000  37.5460000   7.3780000
  75.7360000  38.0840000   7.2300000  77.2590000  32.4980000  10.1860000
  71.1990000  37.8400000   4.7600000  73.2400000  40.9330000   4.9940000
  74.3880000  34.1540000   5.7340000  75.7460000  35.0290000   6.9560000
  73.6850000  32.9730000   5.4610000  73.3670000  31.1010000   6.1880000
  74.2640000  34.9130000   5.1770000  69.4480000  39.0900000   3.5590000
  69.0750000  38.0760000   2.6570000  68.5190000  40.0470000   4.0700000
  70.0810000  37.3640000   1.9870000  74.1600000  34.1250000   2.7040000
  68.4140000  40.2490000   5.4380000  67.7450000  40.8340000   3.2160000
  69.7360000  36.2780000   1.2150000  70.9900000  37.6280000   2.0650000
  67.4030000  33.7140000  -0.0610000  74.9580000  33.8650000   3.1490000
  66.8900000  41.7920000   3.7330000  68.9280000  39.7090000   6.0280000
  67.5740000  41.2230000   5.9670000  67.8050000  40.7120000   2.2750000
  73.0710000  35.2720000   0.8970000  70.6980000  35.3320000   0.5080000
  75.0840000  35.1990000   1.2390000  66.8090000  41.9950000   5.1100000
  66.3550000  42.3130000   3.1470000  67.5270000  41.3570000   6.9060000
  72.8400000  36.0120000  -0.3460000  71.8380000  34.8460000   1.4000000
  69.7420000  34.2480000   0.0310000  71.4670000  36.0310000  -0.6140000
  65.9680000  42.9960000   5.5180000  74.2390000  34.9110000   1.5630000
  70.0810000  33.0380000  -0.5450000  71.7470000  34.0900000   2.5480000
  68.4150000  34.5980000   0.2990000  70.9500000  36.6530000  -1.7350000
  68.4060000  35.8790000   1.0280000  65.8790000  43.2520000   6.9170000
  67.7300000  32.5090000  -0.6610000  74.6450000  36.6240000  -1.0720000
  69.0650000  32.1470000  -0.8940000  70.9910000  32.8160000  -0.7010000
  72.9210000  33.7120000   3.2100000  70.8980000  33.8290000   2.8860000
  67.4010000  36.6490000   1.6050000  70.0150000  36.6510000  -1.9000000
  71.8300000  37.2880000  -2.6230000  73.7090000  36.6340000  -1.2350000
  66.7580000  43.5190000   7.2570000  65.2350000  43.9720000   7.0770000
  65.5840000  42.4410000   7.3800000  71.3030000  29.2060000  -0.8220000
  72.8250000  32.8640000   4.3480000  69.3750000  30.8900000  -1.4780000
  67.7350000  37.7280000   2.4240000  66.4940000  33.9360000   0.1020000
  71.3430000  37.9380000  -3.7720000  73.2080000  37.2670000  -2.3540000
  66.4890000  36.4390000   1.4420000  68.6680000  29.7180000  -1.0620000
  70.1160000  37.5520000  -4.3960000  70.6710000  30.6920000  -2.0500000
  71.8100000  31.8540000   4.3130000  67.0430000  38.2370000   2.8310000
  70.7220000  39.0180000   4.2050000  72.0910000  38.9730000  -4.4030000
  71.9710000  38.2170000  -6.2930000  71.7510000  30.9690000   3.2400000
  68.3040000  29.5140000   0.2650000  71.5540000  29.7490000  -1.5600000
  71.0780000  31.4770000  -3.1310000  68.3790000  28.7340000  -1.9980000
  71.5080000  40.1650000   4.2830000  70.8520000  31.7630000   5.3110000
  73.8490000  31.9060000   6.3400000  69.9060000  36.2700000  -4.8660000
  72.5970000  40.0370000  -3.6730000  69.1260000  38.5150000  -4.6060000
  72.3100000  38.9400000  -5.7780000  67.7510000  27.5530000  -1.6190000
  68.4970000  30.1800000   0.9140000  67.6640000  28.3480000   0.6470000
  70.4820000  32.1260000  -3.4850000  68.6140000  28.8690000  -2.9090000
  72.3310000  31.3290000  -3.6960000  70.5670000  35.6050000  -4.7190000
  72.8300000  29.5840000  -2.1480000  68.7380000  35.9350000  -5.5560000
  67.0360000  31.9150000  -0.9200000  69.8390000  30.8140000   5.2470000
  70.6690000  37.0540000   4.7160000  70.7340000  30.0370000   3.1560000
  72.4140000  31.0060000   2.5610000  74.7010000  31.9910000   7.4360000
  70.8890000  32.3590000   6.0510000  67.9720000  38.1960000  -5.2860000
  69.2500000  39.3980000  -4.2780000  72.4420000  37.7930000   5.3800000
  71.2020000  40.9740000   3.8900000  73.3250000  41.0510000  -4.2910000
  72.4450000  40.0750000  -2.7360000  73.0160000  39.9500000  -6.3960000
  73.8060000  37.6970000  -2.9540000  67.3920000  27.3570000  -0.2950000
  67.5670000  26.8820000  -2.2660000  67.3070000  38.8600000  -5.4250000
  73.1990000  30.3810000  -3.1990000  73.4270000  28.9250000  -1.8160000
  70.6950000  29.4440000   2.4150000  68.6050000  35.0510000  -5.8750000
  73.5240000  41.0070000  -5.6600000  69.2020000  30.7470000   5.9480000
  69.7660000  29.9650000   4.1550000  67.4090000  28.2230000   1.5540000
  74.7840000  31.2570000   8.0330000  73.2000000  38.9530000   5.4740000
  72.5930000  31.8790000  -4.4240000  72.7690000  36.9760000   5.7370000
  67.7720000  36.9100000  -5.7690000  73.6830000  41.7660000  -3.7780000
  73.1550000  39.9210000  -7.3360000  66.7890000  26.2270000   0.1910000
  74.4190000  30.3120000  -3.8480000  66.6020000  36.7240000  -6.4560000
  68.7690000  29.0420000   3.9580000  74.4270000  39.0350000   6.0890000
  74.2050000  41.9560000  -6.3830000  66.5830000  25.1490000  -0.7240000
  75.3780000  29.4340000  -3.3200000  74.6420000  43.0960000  -5.6720000
  67.7720000  28.9350000   4.9780000  74.9110000  37.8680000   6.7460000
  66.3020000  35.4180000  -6.9250000  66.1780000  24.3920000  -0.2520000
  67.4440000  24.8730000  -1.1030000  65.9870000  25.4410000  -1.4450000
  75.0400000  28.5150000  -3.3670000  75.5550000  29.6690000  -2.3850000
  76.2060000  29.5050000  -3.8380000  65.4370000  35.4270000  -7.3860000
  75.0320000  43.7420000  -6.2970000  73.8800000  43.5050000  -5.2120000
  67.0910000  28.2870000   4.7030000  67.3540000  29.8110000   5.1190000
  68.1890000  28.6350000   5.8120000  76.8890000  31.4880000   9.0010000
  75.0950000  37.1710000   6.0810000  75.7470000  32.0120000   9.9920000
  66.2620000  34.7990000  -6.1660000  75.3180000  42.8300000  -5.0120000
  67.0000000  35.1260000  -7.5470000  78.8900000  47.8370000   8.6740000
  77.9820000  47.6420000   7.6540000  79.1300000  46.7490000   9.5270000
  75.2780000  54.6350000   4.9250000  77.8130000  48.7240000   6.8020000
  76.7900000  52.0420000   7.3780000  78.2900000  52.5800000   7.2300000
  79.8130000  46.9950000  10.1860000  73.7540000  52.3370000   4.7600000
  75.7940000  55.4290000   4.9940000  76.9420000  48.6500000   5.7340000
  78.3010000  49.5250000   6.9560000  76.2390000  47.4690000   5.4610000
  75.9210000  45.5970000   6.1880000  76.8180000  49.4090000   5.1770000
  72.0020000  53.5860000   3.5590000  71.6290000  52.5720000   2.6570000
  71.0730000  54.5430000   4.0700000  72.6350000  51.8600000   1.9870000
  76.7140000  48.6220000   2.7040000  70.9680000  54.7450000   5.4380000
  70.2990000  55.3300000   3.2160000  72.2910000  50.7750000   1.2150000
  73.5450000  52.1240000   2.0650000  69.9570000  48.2100000  -0.0610000
  77.5120000  48.3610000   3.1490000  69.4440000  56.2880000   3.7330000
  71.4820000  54.2060000   6.0280000  70.1290000  55.7190000   5.9670000
  70.3600000  55.2080000   2.2750000  75.6260000  49.7690000   0.8970000
  73.2520000  49.8280000   0.5080000  77.6380000  49.6960000   1.2390000
  69.3630000  56.4910000   5.1100000  68.9090000  56.8090000   3.1470000
  70.0810000  55.8530000   6.9060000  75.3950000  50.5080000  -0.3460000
  74.3920000  49.3430000   1.4000000  72.2970000  48.7450000   0.0310000
  74.0210000  50.5280000  -0.6140000  68.5220000  57.4920000   5.5180000
  76.7930000  49.4070000   1.5630000  72.6350000  47.5340000  -0.5450000
  74.3010000  48.5860000   2.5480000  70.9700000  49.0940000   0.2990000
  73.5040000  51.1490000  -1.7350000  70.9610000  50.3750000   1.0280000
  68.4330000  57.7480000   6.9170000  70.2850000  47.0050000  -0.6610000
  77.1990000  51.1200000  -1.0720000  71.6190000  46.6430000  -0.8940000
  73.5460000  47.3120000  -0.7010000  75.4750000  48.2080000   3.2100000
  73.4520000  48.3250000   2.8860000  69.9550000  51.1450000   1.6050000
  72.5690000  51.1470000  -1.9000000  74.3840000  51.7840000  -2.6230000
  76.2630000  51.1300000  -1.2350000  69.3120000  58.0150000   7.2570000
  67.7890000  58.4680000   7.0770000  68.1380000  56.9370000   7.3800000
  73.8570000  43.7030000  -0.8220000  75.3790000  47.3600000   4.3480000
  71.9290000  45.3860000  -1.4780000  70.2890000  52.2240000   2.4240000
  69.0480000  48.4320000   0.1020000  73.8970000  52.4340000  -3.7720000
  75.7620000  51.7640000  -2.3540000  69.0430000  50.9360000   1.4420000
  71.2230000  44.2140000  -1.0620000  72.6710000  52.0480000  -4.3960000
  73.2260000  45.1880000  -2.0500000  74.3640000  46.3510000   4.3130000
  69.5970000  52.7330000   2.8310000  73.2770000  53.5140000   4.2050000
  74.6450000  53.4690000  -4.4030000  74.5250000  52.7130000  -6.2930000
  74.3050000  45.4650000   3.2400000  70.8590000  44.0100000   0.2650000
  74.1080000  44.2450000  -1.5600000  73.6330000  45.9730000  -3.1310000
  70.9340000  43.2300000  -1.9980000  74.0620000  54.6610000   4.2830000
  73.4070000  46.2600000   5.3110000  76.4030000  46.4020000   6.3400000
  72.4600000  50.7660000  -4.8660000  75.1520000  54.5330000  -3.6730000
  71.6810000  53.0110000  -4.6060000  74.8640000  53.4360000  -5.7780000
  70.3050000  42.0490000  -1.6190000  71.0510000  44.6760000   0.9140000
  70.2180000  42.8440000   0.6470000  73.0360000  46.6220000  -3.4850000
  71.1680000  43.3660000  -2.9090000  74.8850000  45.8250000  -3.6960000
  73.1220000  50.1010000  -4.7190000  75.3840000  44.0810000  -2.1480000
  71.2920000  50.4320000  -5.5560000  69.5900000  46.4110000  -0.9200000
  72.3940000  45.3100000   5.2470000  73.2230000  51.5500000   4.7160000
  73.2880000  44.5330000   3.1560000  74.9680000  45.5020000   2.5610000
  77.2560000  46.4870000   7.4360000  73.4430000  46.8550000   6.0510000
  70.5260000  52.6920000  -5.2860000  71.8050000  53.8940000  -4.2780000
  74.9960000  52.2890000   5.3800000  73.7560000  55.4700000   3.8900000
  75.8800000  55.5470000  -4.2910000  75.0000000  54.5720000  -2.7360000
  75.5700000  54.4470000  -6.3960000  76.3600000  52.1940000  -2.9540000
  69.9460000  41.8530000  -0.2950000  70.1220000  41.3790000  -2.2660000
  69.8610000  53.3560000  -5.4250000  75.7530000  44.8770000  -3.1990000
  75.9810000  43.4210000  -1.8160000  73.2490000  43.9400000   2.4150000
  71.1590000  49.5470000  -5.8750000  76.0780000  55.5030000  -5.6600000
  71.7560000  45.2430000   5.9480000  72.3200000  44.4620000   4.1550000
  69.9640000  42.7190000   1.5540000  77.3380000  45.7530000   8.0330000
  75.7550000  53.4500000   5.4740000  75.1470000  46.3760000  -4.4240000
  75.3230000  51.4720000   5.7370000  70.3270000  51.4060000  -5.7690000
  76.2370000  56.2620000  -3.7780000  75.7090000  54.4170000  -7.3360000
  69.3430000  40.7230000   0.1910000  76.9730000  44.8080000  -3.8480000
  69.1560000  51.2200000  -6.4560000  71.3240000  43.5380000   3.9580000
  76.9810000  53.5310000   6.0890000  76.7590000  56.4520000  -6.3830000
  69.1370000  39.6450000  -0.7240000  77.9320000  43.9300000  -3.3200000
  77.1960000  57.5920000  -5.6720000  70.3270000  43.4310000   4.9780000
  77.4660000  52.3640000   6.7460000  68.8560000  49.9140000  -6.9250000
  68.7320000  38.8880000  -0.2520000  69.9980000  39.3690000  -1.1030000
  68.5410000  39.9370000  -1.4450000  77.5950000  43.0110000  -3.3670000
  78.1090000  44.1650000  -2.3850000  78.7600000  44.0020000  -3.8380000
  67.9910000  49.9230000  -7.3860000  77.5870000  58.2380000  -6.2970000
  76.4340000  58.0010000  -5.2120000  69.6450000  42.7830000   4.7030000
  69.9080000  44.3070000   5.1190000  70.7440000  43.1310000   5.8120000
  79.4430000  45.9840000   9.0010000  77.6490000  51.6670000   6.0810000
  78.3010000  46.5080000   9.9920000  68.8160000  49.2960000  -6.1660000
  77.8730000  57.3260000  -5.0120000  69.5540000  49.6220000  -7.5470000
  85.7250000  59.3660000  12.2790000  81.0720000  59.0190000  20.2820000
  77.8890000  54.2020000  15.4030000  79.0570000  56.6070000  14.5080000
  83.6370000  60.3830000  12.4310000  77.2930000  54.4950000  14.6820000
  77.4840000  53.4450000  15.8750000  78.7500000  53.9260000  15.0240000
  79.6860000  57.7880000  14.1290000  78.8740000  55.9360000  13.8610000
  82.8600000  58.8020000  14.5670000  83.8990000  60.9330000  11.7030000
  81.9780000  59.7450000  14.0770000  79.9200000  57.9230000  13.2180000
  82.6090000  58.2600000  15.3050000  80.6810000  59.9430000  14.6490000
  80.3710000  61.2000000  15.2330000  79.9750000  58.7720000  15.0650000
  81.3870000  62.0910000  15.5820000  79.0360000  61.5620000  15.4660000
  79.6110000  58.5670000  16.3920000  83.0570000  60.0230000  19.3670000
  81.0490000  63.3020000  16.1580000  82.2980000  61.8700000  15.4260000
  78.7090000  62.7680000  16.0660000  81.7880000  61.1790000  12.6420000
  78.9700000  57.4020000  16.7740000  79.8030000  59.2330000  17.0410000
  82.0400000  59.0900000  19.2830000  83.7200000  60.0600000  18.6880000
  79.7210000  63.6520000  16.4260000  82.0040000  64.3860000  16.6350000
  77.8000000  62.9890000  16.2290000  78.6980000  56.4100000  15.8320000
  78.7160000  57.2770000  17.6810000  84.7330000  57.9780000  14.3110000
  84.1470000  65.0660000  15.7810000  82.7730000  65.0850000  15.5130000
  81.0430000  65.3320000  17.3420000  83.1440000  63.9000000  17.5270000
  78.0950000  55.2800000  16.3180000  85.0150000  65.6880000  14.8920000
  82.2560000  65.7070000  14.3920000  81.3870000  66.4170000  18.1140000
  79.7130000  64.9320000  17.1550000  83.0530000  63.1430000  18.6750000
  84.3780000  64.3260000  17.0240000  79.0790000  57.9890000  21.1050000
  84.5140000  66.3210000  13.7730000  85.9510000  65.6770000  15.0550000
  83.1360000  66.3410000  13.5040000  81.3210000  65.7040000  14.2270000
  80.3810000  67.1290000  18.7840000  82.2040000  62.8820000  19.0130000
  78.7070000  65.7020000  17.7320000  82.2970000  66.6820000  18.1920000
  84.2270000  62.7650000  19.3370000  85.5450000  63.9640000  17.6900000
  79.4960000  57.6880000  21.9390000  78.3970000  57.3400000  20.8300000
  78.6600000  58.8640000  21.2460000  83.7520000  69.1290000  13.3910000
  80.7540000  68.1440000  19.6860000  82.6490000  66.9910000  12.3550000
  79.0410000  66.7820000  18.5510000  77.7950000  65.4930000  17.5690000
  84.1310000  61.9180000  20.4750000  85.4660000  63.1790000  18.8310000
  86.3900000  64.2530000  17.3660000  79.8250000  69.1000000  20.1970000
  83.3970000  68.0270000  11.7240000  82.0290000  68.0720000  20.3320000
  81.4230000  66.6060000  11.7310000  82.1950000  61.4130000  22.1770000
  84.9910000  62.0270000  21.5880000  83.1160000  60.9080000  20.4400000
  86.2640000  62.9180000  19.2760000  81.2120000  65.3240000  11.2600000
  79.0510000  69.8880000  19.3430000  80.4320000  67.5690000  11.5210000
  83.6160000  67.9930000  10.3490000  79.7200000  69.3020000  21.5650000
  82.5060000  66.8940000  20.8870000  82.3840000  60.5300000  12.9960000
  82.1590000  60.8170000  21.4380000  83.9040000  69.0910000  12.4540000
  82.8140000  69.2190000  20.4100000  85.1550000  60.9590000  22.4670000
  85.6940000  63.2070000  21.8610000  78.1960000  70.8450000  19.8600000
  79.1120000  69.7660000  18.4020000  78.8810000  70.2760000  22.0940000
  80.2340000  68.7630000  22.1550000  83.2770000  67.2700000   9.8340000
  84.6320000  70.1040000  11.8360000  85.1120000  66.7510000  13.1730000
  84.3220000  69.0040000   9.7310000  86.5650000  63.2820000  22.9290000
  78.3490000  67.2900000  18.9580000  86.0080000  61.0450000  23.5630000
  81.9750000  66.1070000  20.8430000  79.2780000  67.2490000  10.8410000
  80.5570000  68.4510000  11.8490000  81.1460000  59.8670000  21.3740000
  78.3420000  60.9680000  15.2070000  84.0300000  69.1920000  21.0520000
  81.8740000  64.6580000  11.4080000  80.0440000  64.9890000  10.5710000
  82.5080000  70.0270000  20.0170000  84.1360000  58.6380000  13.9790000
  85.5700000  63.9660000  21.3040000  83.7480000  66.8470000  21.5070000
  84.6730000  60.1550000  22.3150000  78.1150000  71.0490000  21.2370000
  77.6610000  71.3670000  19.2740000  84.5460000  69.9860000  21.1210000
  84.8300000  70.0600000  10.4670000  84.4610000  68.9750000   8.7910000
  84.9890000  70.8190000  12.3490000  78.8330000  70.4110000  23.0330000
  86.7340000  62.2000000  23.7810000  80.5080000  59.8000000  22.0750000
  79.0780000  65.9630000  10.3580000  78.6130000  67.9140000  10.7020000
  79.9110000  64.1040000  10.2520000  84.5050000  59.4340000  12.9280000
  84.0750000  66.0290000  21.8640000  86.0900000  60.3110000  24.1600000
  84.5060000  68.0070000  21.6010000  82.0010000  58.4970000  18.5420000
  87.0530000  64.0820000  23.0830000  77.2740000  72.0500000  21.6450000
  85.5110000  71.0090000   9.7440000  87.6420000  62.3940000  24.8010000
  80.0760000  58.0950000  20.0850000  77.9080000  65.7770000   9.6710000
  85.7330000  68.0890000  22.2160000  77.1850000  72.3060000  23.0440000
  85.9480000  72.1490000  10.4550000  87.8820000  61.3060000  25.6540000
  77.6080000  64.4720000   9.2020000  86.6840000  58.4880000  12.8070000
  86.2180000  66.9210000  22.8730000  76.5410000  73.0260000  23.2040000
  76.8900000  71.4940000  23.5070000  78.0640000  72.5720000  23.3840000
  86.6250000  71.8840000  11.1150000  85.1860000  72.5590000  10.9150000
  86.3390000  72.7950000   9.8300000  88.1950000  60.5410000  25.1280000
  87.0530000  61.0660000  26.1190000  88.5650000  61.5520000  26.3130000
  77.5680000  63.8530000   9.9610000  78.3060000  64.1800000   8.5800000
  76.7430000  64.4800000   8.7410000  86.8610000  58.7230000  13.7420000
  86.3470000  57.5690000  12.7600000  87.5120000  58.5590000  12.2890000
  86.4010000  66.2250000  22.2080000  87.0420000  67.1380000  23.3570000
  85.5420000  66.5990000  23.5050000  81.4440000  62.3330000   8.6740000
  80.5360000  62.1390000   7.6540000  81.6840000  61.2450000   9.5270000
  77.8320000  69.1310000   4.9250000  80.3670000  63.2210000   6.8020000
  79.3450000  66.5380000   7.3780000  80.8450000  67.0770000   7.2300000
  82.3670000  61.4910000  10.1860000  76.3080000  66.8330000   4.7600000
  78.3480000  69.9250000   4.9940000  79.4970000  63.1460000   5.7340000
  80.8550000  64.0210000   6.9560000  78.7930000  61.9650000   5.4610000
  78.4760000  60.0930000   6.1880000  79.3720000  63.9050000   5.1770000
  74.5560000  68.0820000   3.5590000  74.1830000  67.0680000   2.6570000
  73.6270000  69.0390000   4.0700000  75.1900000  66.3560000   1.9870000
  79.2690000  63.1180000   2.7040000  73.5220000  69.2410000   5.4380000
  72.8530000  69.8260000   3.2160000  74.8450000  65.2710000   1.2150000
  76.0990000  66.6200000   2.0650000  72.5110000  62.7070000  -0.0610000
  80.0670000  62.8570000   3.1490000  71.9980000  70.7840000   3.7330000
  74.0360000  68.7020000   6.0280000  72.6830000  70.2150000   5.9670000
  72.9140000  69.7050000   2.2750000  78.1800000  64.2650000   0.8970000
  75.8070000  64.3250000   0.5080000  80.1920000  64.1920000   1.2390000
  71.9170000  70.9880000   5.1100000  71.4630000  71.3060000   3.1470000
  72.6350000  70.3500000   6.9060000  77.9490000  65.0040000  -0.3460000
  76.9460000  63.8390000   1.4000000  74.8510000  63.2410000   0.0310000
  76.5750000  65.0240000  -0.6140000  71.0760000  71.9890000   5.5180000
  79.3470000  63.9030000   1.5630000  75.1900000  62.0300000  -0.5450000
  76.8550000  63.0820000   2.5480000  73.5240000  63.5900000   0.2990000
  76.0590000  65.6460000  -1.7350000  73.5150000  64.8710000   1.0280000
  70.9880000  72.2450000   6.9170000  72.8390000  61.5010000  -0.6610000
  79.7540000  65.6160000  -1.0720000  74.1730000  61.1390000  -0.8940000
  76.1000000  61.8080000  -0.7010000  78.0290000  62.7040000   3.2100000
  76.0070000  62.8210000   2.8860000  72.5100000  65.6410000   1.6050000
  75.1230000  65.6430000  -1.9000000  76.9390000  66.2800000  -2.6230000
  78.8180000  65.6270000  -1.2350000  71.8660000  72.5110000   7.2570000
  70.3430000  72.9640000   7.0770000  70.6920000  71.4330000   7.3800000
  76.4110000  58.1990000  -0.8220000  77.9330000  61.8570000   4.3480000
  74.4830000  59.8820000  -1.4780000  72.8430000  66.7200000   2.4240000
  71.6020000  62.9280000   0.1020000  76.4510000  66.9300000  -3.7720000
  78.3160000  66.2600000  -2.3540000  71.5970000  65.4320000   1.4420000
  73.7770000  58.7110000  -1.0620000  75.2250000  66.5440000  -4.3960000
  75.7800000  59.6840000  -2.0500000  76.9180000  60.8470000   4.3130000
  72.1510000  67.2290000   2.8310000  75.8310000  68.0110000   4.2050000
  77.1990000  67.9650000  -4.4030000  77.0790000  67.2090000  -6.2930000
  76.8590000  59.9610000   3.2400000  73.4130000  58.5060000   0.2650000
  76.6630000  58.7410000  -1.5600000  76.1870000  60.4690000  -3.1310000
  73.4880000  57.7270000  -1.9980000  76.6170000  69.1580000   4.2830000
  75.9610000  60.7560000   5.3110000  78.9570000  60.8980000   6.3400000
  75.0140000  65.2630000  -4.8660000  77.7060000  69.0290000  -3.6730000
  74.2350000  67.5070000  -4.6060000  77.4180000  67.9320000  -5.7780000
  72.8590000  56.5460000  -1.6190000  73.6050000  59.1720000   0.9140000
  72.7730000  57.3410000   0.6470000  75.5900000  61.1180000  -3.4850000
  73.7230000  57.8620000  -2.9090000  77.4400000  60.3210000  -3.6960000
  75.6760000  64.5970000  -4.7190000  77.9380000  58.5770000  -2.1480000
  73.8460000  64.9280000  -5.5560000  72.1440000  60.9070000  -0.9200000
  74.9480000  59.8060000   5.2470000  75.7770000  66.0460000   4.7160000
  75.8420000  59.0290000   3.1560000  77.5220000  59.9980000   2.5610000
  79.8100000  60.9840000   7.4360000  75.9970000  61.3520000   6.0510000
  73.0800000  67.1880000  -5.2860000  74.3590000  68.3900000  -4.2780000
  77.5500000  66.7860000   5.3800000  76.3100000  69.9660000   3.8900000
  78.4340000  70.0430000  -4.2910000  77.5540000  69.0680000  -2.7360000
  78.1250000  68.9430000  -6.3960000  78.9150000  66.6900000  -2.9540000
  72.5010000  56.3490000  -0.2950000  72.6760000  55.8750000  -2.2660000
  72.4160000  67.8520000  -5.4250000  78.3070000  59.3730000  -3.1990000
  78.5360000  57.9170000  -1.8160000  75.8030000  58.4360000   2.4150000
  73.7140000  64.0430000  -5.8750000  78.6320000  69.9990000  -5.6600000
  74.3100000  59.7390000   5.9480000  74.8740000  58.9580000   4.1550000
  72.5180000  57.2160000   1.5540000  79.8930000  60.2500000   8.0330000
  78.3090000  67.9460000   5.4740000  77.7020000  60.8720000  -4.4240000
  77.8780000  65.9680000   5.7370000  72.8810000  65.9020000  -5.7690000
  78.7910000  70.7580000  -3.7780000  78.2640000  68.9140000  -7.3360000
  71.8970000  55.2190000   0.1910000  79.5270000  59.3050000  -3.8480000
  71.7100000  65.7160000  -6.4560000  73.8780000  58.0340000   3.9580000
  79.5350000  68.0280000   6.0890000  79.3140000  70.9480000  -6.3830000
  71.6910000  54.1410000  -0.7240000  80.4860000  58.4260000  -3.3200000
  79.7510000  72.0880000  -5.6720000  72.8810000  57.9270000   4.9780000
  80.0200000  66.8600000   6.7460000  71.4100000  64.4100000  -6.9250000
  71.2860000  53.3840000  -0.2520000  72.5520000  53.8650000  -1.1030000
  71.0950000  54.4340000  -1.4450000  80.1490000  57.5080000  -3.3670000
  80.6630000  58.6610000  -2.3850000  81.3150000  58.4980000  -3.8380000
  70.5450000  64.4190000  -7.3860000  80.1410000  72.7340000  -6.2970000
  78.9880000  72.4970000  -5.2120000  72.2000000  57.2790000   4.7030000
  72.4620000  58.8030000   5.1190000  73.2980000  57.6270000   5.8120000
  81.9970000  60.4800000   9.0010000  80.2030000  66.1630000   6.0810000
  80.8550000  61.0050000   9.9920000  71.3700000  63.7920000  -6.1660000
  80.4270000  71.8230000  -5.0120000  72.1080000  64.1180000  -7.5470000
  86.8140000  30.4340000  28.4060000  82.1610000  30.0880000  36.4090000
  78.9780000  25.2710000  31.5300000  80.1460000  27.6750000  30.6350000
  84.7260000  31.4510000  28.5580000  78.3820000  25.5630000  30.8090000
  78.5730000  24.5140000  32.0020000  79.8390000  24.9950000  31.1510000
  80.7750000  28.8560000  30.2550000  79.9630000  27.0050000  29.9880000
  83.9500000  29.8710000  30.6940000  84.9890000  32.0020000  27.8300000
  83.0670000  30.8140000  30.2040000  81.0100000  28.9920000  29.3450000
  83.6980000  29.3290000  31.4320000  81.7700000  31.0120000  30.7760000
  81.4600000  32.2690000  31.3600000  81.0640000  29.8410000  31.1920000
  82.4770000  33.1600000  31.7090000  80.1260000  32.6310000  31.5930000
  80.7000000  29.6360000  32.5190000  84.1460000  31.0910000  35.4940000
  82.1380000  34.3710000  32.2850000  83.3870000  32.9380000  31.5530000
  79.7980000  33.8360000  32.1930000  82.8770000  32.2480000  28.7690000
  80.0600000  28.4710000  32.9010000  80.8920000  30.3020000  33.1680000
  83.1290000  30.1590000  35.4100000  84.8090000  31.1280000  34.8150000
  80.8110000  34.7200000  32.5530000  83.0940000  35.4540000  32.7620000
  78.8890000  34.0580000  32.3560000  79.7880000  27.4790000  31.9590000
  79.8050000  28.3460000  33.8080000  85.8230000  29.0470000  30.4380000
  85.2360000  36.1340000  31.9080000  83.8620000  36.1540000  31.6400000
  82.1320000  36.4010000  33.4690000  84.2330000  34.9690000  33.6540000
  79.1840000  26.3490000  32.4450000  86.1050000  36.7570000  31.0190000
  83.3460000  36.7750000  30.5190000  82.4770000  37.4860000  34.2410000
  80.8020000  36.0010000  33.2820000  84.1420000  34.2120000  34.8020000
  85.4670000  35.3950000  33.1510000  80.1680000  29.0570000  37.2320000
  85.6030000  37.3900000  29.9000000  87.0410000  36.7460000  31.1820000
  84.2260000  37.4100000  29.6310000  82.4100000  36.7730000  30.3540000
  81.4700000  38.1980000  34.9110000  83.2930000  33.9510000  35.1400000
  79.7970000  36.7710000  33.8590000  83.3860000  37.7500000  34.3190000
  85.3160000  33.8340000  35.4640000  86.6340000  35.0330000  33.8170000
  80.5850000  28.7570000  38.0660000  79.4870000  28.4090000  36.9570000
  79.7490000  29.9330000  37.3730000  84.8410000  40.1980000  29.5180000
  81.8430000  39.2120000  35.8130000  83.7380000  38.0600000  28.4820000
  80.1300000  37.8500000  34.6780000  78.8840000  36.5620000  33.6960000
  85.2200000  32.9870000  36.6020000  86.5560000  34.2480000  34.9580000
  87.4790000  35.3220000  33.4930000  80.9140000  40.1690000  36.3240000
  84.4860000  39.0950000  27.8510000  83.1180000  39.1410000  36.4590000
  82.5120000  37.6740000  27.8580000  83.2840000  32.4810000  38.3040000
  86.0800000  33.0950000  37.7150000  84.2050000  31.9770000  36.5670000
  87.3540000  33.9870000  35.4030000  82.3010000  36.3930000  27.3870000
  80.1400000  40.9560000  35.4700000  81.5220000  38.6370000  27.6480000
  84.7050000  39.0620000  26.4760000  80.8090000  40.3710000  37.6920000
  83.5950000  37.9630000  37.0140000  83.4740000  31.5990000  29.1230000
  83.2480000  31.8860000  37.5650000  84.9930000  40.1590000  28.5810000
  83.9040000  40.2870000  36.5370000  86.2440000  32.0280000  38.5940000
  86.7840000  34.2760000  37.9880000  79.2850000  41.9140000  35.9870000
  80.2010000  40.8340000  34.5290000  79.9700000  41.3450000  38.2210000
  81.3230000  39.8320000  38.2820000  84.3660000  38.3390000  25.9610000
  85.7210000  41.1730000  27.9630000  86.2020000  37.8200000  29.3000000
  85.4120000  40.0730000  25.8580000  87.6540000  34.3510000  39.0560000
  79.4380000  38.3590000  35.0850000  87.0970000  32.1140000  39.6900000
  83.0640000  37.1760000  36.9700000  80.3670000  38.3180000  26.9680000
  81.6460000  39.5200000  27.9760000  82.2350000  30.9360000  37.5010000
  79.4310000  32.0370000  31.3340000  85.1190000  40.2610000  37.1790000
  82.9630000  35.7270000  27.5350000  81.1330000  36.0580000  26.6980000
  83.5970000  41.0960000  36.1440000  85.2250000  29.7070000  30.1060000
  86.6590000  35.0350000  37.4310000  84.8370000  37.9160000  37.6340000
  85.7630000  31.2230000  38.4420000  79.2040000  42.1170000  37.3640000
  78.7500000  42.4360000  35.4000000  85.6350000  41.0550000  37.2480000
  85.9190000  41.1290000  26.5940000  85.5510000  40.0440000  24.9180000
  86.0780000  41.8880000  28.4760000  79.9220000  41.4790000  39.1600000
  87.8230000  33.2680000  39.9080000  81.5970000  30.8690000  38.2020000
  80.1680000  37.0320000  26.4850000  79.7030000  38.9820000  26.8290000
  81.0010000  35.1730000  26.3790000  85.5940000  30.5030000  29.0550000
  85.1650000  37.0980000  37.9900000  87.1800000  31.3790000  40.2870000
  85.5960000  39.0760000  37.7280000  83.0900000  29.5660000  34.6690000
  88.1420000  35.1510000  39.2100000  78.3630000  43.1180000  37.7720000
  86.6010000  42.0780000  25.8710000  88.7310000  33.4630000  40.9280000
  81.1650000  29.1640000  36.2120000  78.9970000  36.8460000  25.7980000
  86.8220000  39.1580000  38.3430000  78.2750000  43.3740000  39.1710000
  87.0380000  43.2180000  26.5820000  88.9710000  32.3750000  41.7810000
  78.6970000  35.5400000  25.3290000  87.7730000  29.5560000  28.9340000
  87.3070000  37.9900000  39.0000000  77.6300000  44.0940000  39.3310000
  77.9790000  42.5630000  39.6340000  79.1530000  43.6410000  39.5110000
  87.7140000  42.9530000  27.2420000  86.2750000  43.6270000  27.0420000
  87.4280000  43.8640000  25.9570000  89.2840000  31.6100000  41.2550000
  88.1420000  32.1340000  42.2460000  89.6540000  32.6210000  42.4400000
  78.6570000  34.9220000  26.0880000  79.3950000  35.2480000  24.7070000
  77.8320000  35.5490000  24.8680000  87.9500000  29.7910000  29.8690000
  87.4360000  28.6370000  28.8870000  88.6020000  29.6280000  28.4160000
  87.4900000  37.2930000  38.3350000  88.1320000  38.2070000  39.4840000
  86.6320000  37.6680000  39.6320000  80.6160000  30.3730000  12.2790000
  75.9630000  30.0260000  20.2820000  72.7810000  25.2100000  15.4030000
  73.9480000  27.6140000  14.5080000  78.5290000  31.3900000  12.4310000
  72.1840000  25.5020000  14.6820000  72.3750000  24.4530000  15.8750000
  73.6420000  24.9340000  15.0240000  74.5770000  28.7950000  14.1290000
  73.7650000  26.9440000  13.8610000  77.7520000  29.8100000  14.5670000
  78.7910000  31.9410000  11.7030000  76.8690000  30.7530000  14.0770000
  74.8120000  28.9310000  13.2180000  77.5000000  29.2680000  15.3050000
  75.5720000  30.9510000  14.6490000  75.2620000  32.2080000  15.2330000
  74.8660000  29.7790000  15.0650000  76.2790000  33.0990000  15.5820000
  73.9280000  32.5700000  15.4660000  74.5020000  29.5750000  16.3920000
  77.9480000  31.0300000  19.3670000  75.9400000  34.3100000  16.1580000
  77.1890000  32.8770000  15.4260000  73.6010000  33.7750000  16.0660000
  76.6790000  32.1870000  12.6420000  73.8620000  28.4090000  16.7740000
  74.6940000  30.2410000  17.0410000  76.9320000  30.0980000  19.2830000
  78.6120000  31.0670000  18.6880000  74.6130000  34.6590000  16.4260000
  76.8960000  35.3930000  16.6350000  72.6910000  33.9970000  16.2290000
  73.5900000  27.4180000  15.8320000  73.6070000  28.2840000  17.6810000
  79.6250000  28.9860000  14.3110000  79.0380000  36.0730000  15.7810000
  77.6650000  36.0930000  15.5130000  75.9340000  36.3400000  17.3420000
  78.0360000  34.9070000  17.5270000  72.9860000  26.2880000  16.3180000
  79.9070000  36.6950000  14.8920000  77.1480000  36.7140000  14.3920000
  76.2790000  37.4250000  18.1140000  74.6040000  35.9400000  17.1550000
  77.9440000  34.1510000  18.6750000  79.2690000  35.3330000  17.0240000
  73.9700000  28.9960000  21.1050000  79.4050000  37.3290000  13.7730000
  80.8430000  36.6850000  15.0550000  78.0280000  37.3490000  13.5040000
  76.2120000  36.7120000  14.2270000  75.2730000  38.1370000  18.7840000
  77.0960000  33.8900000  19.0130000  73.5990000  36.7100000  17.7320000
  77.1880000  37.6890000  18.1920000  79.1190000  33.7730000  19.3370000
  80.4360000  34.9720000  17.6900000  74.3870000  28.6960000  21.9390000
  73.2890000  28.3480000  20.8300000  73.5520000  29.8720000  21.2460000
  78.6430000  40.1370000  13.3910000  75.6450000  39.1510000  19.6860000
  77.5400000  37.9990000  12.3550000  73.9320000  37.7890000  18.5510000
  72.6870000  36.5000000  17.5690000  79.0220000  32.9250000  20.4750000
  80.3580000  34.1870000  18.8310000  81.2810000  35.2610000  17.3660000
  74.7170000  40.1080000  20.1970000  78.2890000  39.0340000  11.7240000
  76.9200000  39.0790000  20.3320000  76.3140000  37.6130000  11.7310000
  77.0870000  32.4200000  22.1770000  79.8830000  33.0340000  21.5880000
  78.0080000  31.9150000  20.4400000  81.1560000  33.9260000  19.2760000
  76.1040000  36.3310000  11.2600000  73.9430000  40.8950000  19.3430000
  75.3240000  38.5760000  11.5210000  78.5080000  39.0010000  10.3490000
  74.6120000  40.3100000  21.5650000  77.3970000  37.9010000  20.8870000
  77.2760000  31.5380000  12.9960000  77.0500000  31.8250000  21.4380000
  78.7950000  40.0980000  12.4540000  77.7060000  40.2260000  20.4100000
  80.0460000  31.9670000  22.4670000  80.5860000  34.2150000  21.8610000
  73.0870000  41.8530000  19.8600000  74.0030000  40.7730000  18.4020000
  73.7720000  41.2840000  22.0940000  75.1260000  39.7700000  22.1550000
  78.1690000  38.2780000   9.8340000  79.5230000  41.1120000  11.8360000
  80.0040000  37.7590000  13.1730000  79.2140000  40.0120000   9.7310000
  81.4560000  34.2890000  22.9290000  73.2410000  38.2980000  18.9580000
  80.8990000  32.0520000  23.5630000  76.8660000  37.1150000  20.8430000
  74.1690000  38.2570000  10.8410000  75.4480000  39.4590000  11.8490000
  76.0370000  30.8750000  21.3740000  73.2330000  31.9760000  15.2070000
  78.9210000  40.2000000  21.0520000  76.7650000  35.6660000  11.4080000
  74.9350000  35.9970000  10.5710000  77.3990000  41.0350000  20.0170000
  79.0270000  29.6460000  13.9790000  80.4620000  34.9740000  21.3040000
  78.6390000  37.8540000  21.5070000  79.5650000  31.1620000  22.3150000
  73.0060000  42.0560000  21.2370000  72.5520000  42.3740000  19.2740000
  79.4370000  40.9940000  21.1210000  79.7210000  41.0680000  10.4670000
  79.3530000  39.9820000   8.7910000  79.8800000  41.8270000  12.3490000
  73.7240000  41.4180000  23.0330000  81.6260000  33.2070000  23.7810000
  75.3990000  30.8080000  22.0750000  73.9700000  36.9710000  10.3580000
  73.5050000  38.9210000  10.7020000  74.8030000  35.1120000  10.2520000
  79.3960000  30.4420000  12.9280000  78.9670000  37.0370000  21.8640000
  80.9820000  31.3180000  24.1600000  79.3980000  39.0150000  21.6010000
  76.8930000  29.5050000  18.5420000  81.9440000  35.0900000  23.0830000
  72.1660000  43.0570000  21.6450000  80.4030000  42.0170000   9.7440000
  82.5330000  33.4010000  24.8010000  74.9670000  29.1030000  20.0850000
  72.8000000  36.7850000   9.6710000  80.6250000  39.0960000  22.2160000
  72.0770000  43.3130000  23.0440000  80.8400000  43.1570000  10.4550000
  82.7730000  32.3140000  25.6540000  72.5000000  35.4790000   9.2020000
  81.5750000  29.4950000  12.8070000  81.1090000  37.9290000  22.8730000
  71.4330000  44.0330000  23.2040000  71.7820000  42.5020000  23.5070000
  72.9560000  43.5800000  23.3840000  81.5160000  42.8910000  11.1150000
  80.0780000  43.5660000  10.9150000  81.2300000  43.8030000   9.8300000
  83.0860000  31.5490000  25.1280000  81.9440000  32.0730000  26.1190000
  83.4570000  32.5600000  26.3130000  72.4590000  34.8610000   9.9610000
  73.1970000  35.1870000   8.5800000  71.6350000  35.4880000   8.7410000
  81.7530000  29.7300000  13.7420000  81.2380000  28.5760000  12.7600000
  82.4040000  29.5670000  12.2890000  81.2930000  37.2320000  22.2080000
  81.9340000  38.1450000  23.3570000  80.4340000  37.6070000  23.5050000
  83.1700000  44.8690000  12.2790000  78.5180000  44.5230000  20.2820000
  75.3350000  39.7060000  15.4030000  76.5030000  42.1100000  14.5080000
  81.0830000  45.8860000  12.4310000  74.7390000  39.9980000  14.6820000
  74.9290000  38.9490000  15.8750000  76.1960000  39.4300000  15.0240000
  77.1310000  43.2910000  14.1290000  76.3190000  41.4400000  13.8610000
  80.3060000  44.3060000  14.5670000  81.3450000  46.4370000  11.7030000
  79.4230000  45.2490000  14.0770000  77.3660000  43.4270000  13.2180000
  80.0540000  43.7640000  15.3050000  78.1260000  45.4470000  14.6490000
  77.8160000  46.7040000  15.2330000  77.4200000  44.2760000  15.0650000
  78.8330000  47.5950000  15.5820000  76.4820000  47.0660000  15.4660000
  77.0560000  44.0710000  16.3920000  80.5030000  45.5260000  19.3670000
  78.4940000  48.8060000  16.1580000  79.7430000  47.3730000  15.4260000
  76.1550000  48.2710000  16.0660000  79.2340000  46.6830000  12.6420000
  76.4160000  42.9060000  16.7740000  77.2490000  44.7370000  17.0410000
  79.4860000  44.5940000  19.2830000  81.1660000  45.5630000  18.6880000
  77.1670000  49.1550000  16.4260000  79.4500000  49.8900000  16.6350000
  75.2460000  48.4930000  16.2290000  76.1440000  41.9140000  15.8320000
  76.1610000  42.7810000  17.6810000  82.1790000  43.4820000  14.3110000
  81.5920000  50.5690000  15.7810000  80.2190000  50.5890000  15.5130000
  78.4880000  50.8360000  17.3420000  80.5900000  49.4040000  17.5270000
  75.5410000  40.7840000  16.3180000  82.4610000  51.1920000  14.8920000
  79.7020000  51.2100000  14.3920000  78.8330000  51.9210000  18.1140000
  77.1580000  50.4360000  17.1550000  80.4990000  48.6470000  18.6750000
  81.8230000  49.8300000  17.0240000  76.5240000  43.4920000  21.1050000
  81.9600000  51.8250000  13.7730000  83.3970000  51.1810000  15.0550000
  80.5820000  51.8450000  13.5040000  78.7670000  51.2080000  14.2270000
  77.8270000  52.6330000  18.7840000  79.6500000  48.3860000  19.0130000
  76.1530000  51.2060000  17.7320000  79.7420000  52.1850000  18.1920000
  81.6730000  48.2690000  19.3370000  82.9910000  49.4680000  17.6900000
  76.9410000  43.1920000  21.9390000  75.8430000  42.8440000  20.8300000
  76.1060000  44.3680000  21.2460000  81.1970000  54.6330000  13.3910000
  78.2000000  53.6470000  19.6860000  80.0950000  52.4950000  12.3550000
  76.4870000  52.2850000  18.5510000  75.2410000  50.9970000  17.5690000
  81.5770000  47.4220000  20.4750000  82.9120000  48.6830000  18.8310000
  83.8360000  49.7570000  17.3660000  77.2710000  54.6040000  20.1970000
  80.8430000  53.5300000  11.7240000  79.4740000  53.5760000  20.3320000
  78.8680000  52.1090000  11.7310000  79.6410000  46.9160000  22.1770000
  82.4370000  47.5300000  21.5880000  80.5620000  46.4120000  20.4400000
  83.7100000  48.4220000  19.2760000  78.6580000  50.8280000  11.2600000
  76.4970000  55.3910000  19.3430000  77.8780000  53.0720000  11.5210000
  81.0620000  53.4970000  10.3490000  77.1660000  54.8060000  21.5650000
  79.9510000  52.3980000  20.8870000  79.8300000  46.0340000  12.9960000
  79.6040000  46.3210000  21.4380000  81.3490000  54.5940000  12.4540000
  80.2600000  54.7230000  20.4100000  82.6010000  46.4630000  22.4670000
  83.1400000  48.7110000  21.8610000  75.6420000  56.3490000  19.8600000
  76.5570000  55.2700000  18.4020000  76.3260000  55.7800000  22.0940000
  77.6800000  54.2670000  22.1550000  80.7230000  52.7740000   9.8340000
  82.0770000  55.6080000  11.8360000  82.5580000  52.2550000  13.1730000
  81.7680000  54.5080000   9.7310000  84.0100000  48.7860000  22.9290000
  75.7950000  52.7940000  18.9580000  83.4530000  46.5490000  23.5630000
  79.4200000  51.6110000  20.8430000  76.7240000  52.7530000  10.8410000
  78.0020000  53.9550000  11.8490000  78.5910000  45.3710000  21.3740000
  75.7880000  46.4720000  15.2070000  81.4760000  54.6960000  21.0520000
  79.3190000  50.1620000  11.4080000  77.4890000  50.4930000  10.5710000
  79.9540000  55.5310000  20.0170000  81.5820000  44.1420000  13.9790000
  83.0160000  49.4700000  21.3040000  81.1940000  52.3510000  21.5070000
  82.1190000  45.6580000  22.3150000  75.5610000  56.5520000  21.2370000
  75.1070000  56.8710000  19.2740000  81.9920000  55.4900000  21.1210000
  82.2760000  55.5640000  10.4670000  81.9070000  54.4790000   8.7910000
  82.4350000  56.3230000  12.3490000  76.2780000  55.9140000  23.0330000
  84.1800000  47.7030000  23.7810000  77.9540000  45.3040000  22.0750000
  76.5240000  51.4670000  10.3580000  76.0590000  53.4170000  10.7020000
  77.3570000  49.6080000  10.2520000  81.9510000  44.9380000  12.9280000
  81.5210000  51.5330000  21.8640000  83.5360000  45.8140000  24.1600000
  81.9520000  53.5110000  21.6010000  79.4470000  44.0010000  18.5420000
  84.4980000  49.5860000  23.0830000  74.7200000  57.5540000  21.6450000
  82.9570000  56.5130000   9.7440000  85.0870000  47.8980000  24.8010000
  77.5210000  43.5990000  20.0850000  75.3540000  51.2810000   9.6710000
  83.1790000  53.5930000  22.2160000  74.6310000  57.8090000  23.0440000
  83.3940000  57.6530000  10.4550000  85.3270000  46.8100000  25.6540000
  75.0540000  49.9750000   9.2020000  84.1300000  43.9910000  12.8070000
  83.6630000  52.4250000  22.8730000  73.9870000  58.5290000  23.2040000
  74.3360000  56.9980000  23.5070000  75.5100000  58.0760000  23.3840000
  84.0700000  57.3880000  11.1150000  82.6320000  58.0620000  10.9150000
  83.7840000  58.2990000   9.8300000  85.6410000  46.0450000  25.1280000
  84.4990000  46.5690000  26.1190000  86.0110000  47.0560000  26.3130000
  75.0140000  49.3570000   9.9610000  75.7510000  49.6830000   8.5800000
  74.1890000  49.9840000   8.7410000  84.3070000  44.2260000  13.7420000
  83.7920000  43.0720000  12.7600000  84.9580000  44.0630000  12.2890000
  83.8470000  51.7280000  22.2080000  84.4880000  52.6420000  23.3570000
  82.9880000  52.1030000  23.5050000  89.3680000  44.9310000  28.4060000
  84.7150000  44.5840000  36.4090000  81.5330000  39.7670000  31.5300000
  82.7000000  42.1720000  30.6350000  87.2810000  45.9480000  28.5580000
  80.9360000  40.0600000  30.8090000  81.1270000  39.0100000  32.0020000
  82.3940000  39.4910000  31.1510000  83.3290000  43.3530000  30.2550000
  82.5170000  41.5010000  29.9880000  86.5040000  44.3670000  30.6940000
  87.5430000  46.4980000  27.8300000  85.6210000  45.3100000  30.2040000
  83.5640000  43.4880000  29.3450000  86.2520000  43.8250000  31.4320000
  84.3240000  45.5080000  30.7760000  84.0140000  46.7650000  31.3600000
  83.6180000  44.3370000  31.1920000  85.0310000  47.6560000  31.7090000
  82.6800000  47.1270000  31.5930000  83.2540000  44.1320000  32.5190000
  86.7000000  45.5880000  35.4940000  84.6920000  48.8670000  32.2850000
  85.9410000  47.4340000  31.5530000  82.3520000  48.3330000  32.1930000
  85.4310000  46.7440000  28.7690000  82.6140000  42.9670000  32.9010000
  83.4460000  44.7980000  33.1680000  85.6830000  44.6550000  35.4100000
  87.3640000  45.6250000  34.8150000  83.3650000  49.2160000  32.5530000
  85.6480000  49.9510000  32.7620000  81.4430000  48.5540000  32.3560000
  82.3420000  41.9750000  31.9590000  82.3590000  42.8420000  33.8080000
  88.3770000  43.5430000  30.4380000  87.7900000  50.6300000  31.9080000
  86.4160000  50.6500000  31.6400000  84.6860000  50.8970000  33.4690000
  86.7880000  49.4650000  33.6540000  81.7380000  40.8450000  32.4450000
  88.6590000  51.2530000  31.0190000  85.9000000  51.2720000  30.5190000
  85.0310000  51.9820000  34.2410000  83.3560000  50.4970000  33.2820000
  86.6960000  48.7080000  34.8020000  88.0210000  49.8910000  33.1510000
  82.7220000  43.5530000  37.2320000  88.1570000  51.8860000  29.9000000
  89.5950000  51.2420000  31.1820000  86.7800000  51.9060000  29.6310000
  84.9640000  51.2690000  30.3540000  84.0250000  52.6940000  34.9110000
  85.8480000  48.4470000  35.1400000  82.3510000  51.2670000  33.8590000
  85.9400000  52.2470000  34.3190000  87.8710000  48.3300000  35.4640000
  89.1880000  49.5290000  33.8170000  83.1390000  43.2530000  38.0660000
  82.0410000  42.9050000  36.9570000  82.3040000  44.4290000  37.3730000
  87.3950000  54.6940000  29.5180000  84.3970000  53.7080000  35.8130000
  86.2920000  52.5560000  28.4820000  82.6840000  52.3460000  34.6780000
  81.4390000  51.0580000  33.6960000  87.7740000  47.4830000  36.6020000
  89.1100000  48.7440000  34.9580000  90.0330000  49.8180000  33.4930000
  83.4690000  54.6650000  36.3240000  87.0410000  53.5910000  27.8510000
  85.6720000  53.6370000  36.4590000  85.0660000  52.1710000  27.8580000
  85.8390000  46.9780000  38.3040000  88.6340000  47.5910000  37.7150000
  86.7600000  46.4730000  36.5670000  89.9080000  48.4830000  35.4030000
  84.8560000  50.8890000  27.3870000  82.6950000  55.4530000  35.4700000
  84.0760000  53.1330000  27.6480000  87.2600000  53.5580000  26.4760000
  83.3640000  54.8670000  37.6920000  86.1490000  52.4590000  37.0140000
  86.0280000  46.0950000  29.1230000  85.8020000  46.3820000  37.5650000
  87.5470000  54.6550000  28.5810000  86.4580000  54.7840000  36.5370000
  88.7980000  46.5240000  38.5940000  89.3380000  48.7720000  37.9880000
  81.8390000  56.4100000  35.9870000  82.7550000  55.3310000  34.5290000
  82.5240000  55.8410000  38.2210000  83.8780000  54.3280000  38.2820000
  86.9210000  52.8350000  25.9610000  88.2750000  55.6690000  27.9630000
  88.7560000  52.3160000  29.3000000  87.9660000  54.5690000  25.8580000
  90.2080000  48.8470000  39.0560000  81.9930000  52.8550000  35.0850000
  89.6510000  46.6100000  39.6900000  85.6180000  51.6720000  36.9700000
  82.9210000  52.8140000  26.9680000  84.2000000  54.0160000  27.9760000
  84.7890000  45.4320000  37.5010000  81.9850000  46.5330000  31.3340000
  87.6730000  54.7570000  37.1790000  85.5170000  50.2230000  27.5350000
  83.6870000  50.5540000  26.6980000  86.1510000  55.5920000  36.1440000
  87.7790000  44.2030000  30.1060000  89.2140000  49.5310000  37.4310000
  87.3910000  52.4120000  37.6340000  88.3170000  45.7200000  38.4420000
  81.7580000  56.6140000  37.3640000  81.3040000  56.9320000  35.4000000
  88.1890000  55.5510000  37.2480000  88.4730000  55.6250000  26.5940000
  88.1050000  54.5400000  24.9180000  88.6320000  56.3840000  28.4760000
  82.4760000  55.9760000  39.1600000  90.3780000  47.7650000  39.9080000
  84.1510000  45.3650000  38.2020000  82.7220000  51.5280000  26.4850000
  82.2570000  53.4790000  26.8290000  83.5550000  49.6690000  26.3790000
  88.1480000  44.9990000  29.0550000  87.7190000  51.5940000  37.9900000
  89.7340000  45.8760000  40.2870000  88.1500000  53.5720000  37.7280000
  85.6450000  44.0620000  34.6690000  90.6960000  49.6470000  39.2100000
  80.9180000  57.6150000  37.7720000  89.1550000  56.5740000  25.8710000
  91.2850000  47.9590000  40.9280000  83.7190000  43.6600000  36.2120000
  81.5520000  51.3420000  25.7980000  89.3770000  53.6540000  38.3430000
  80.8290000  57.8710000  39.1710000  89.5920000  57.7140000  26.5820000
  91.5250000  46.8710000  41.7810000  81.2520000  50.0370000  25.3290000
  90.3270000  44.0530000  28.9340000  89.8610000  52.4860000  39.0000000
  80.1850000  58.5900000  39.3310000  80.5330000  57.0590000  39.6340000
  81.7080000  58.1370000  39.5110000  90.2680000  57.4490000  27.2420000
  88.8300000  58.1240000  27.0420000  89.9820000  58.3600000  25.9570000
  91.8380000  46.1060000  41.2550000  90.6960000  46.6310000  42.2460000
  92.2090000  47.1170000  42.4400000  81.2110000  49.4180000  26.0880000
  81.9490000  49.7450000  24.7070000  80.3870000  50.0450000  24.8680000
  90.5050000  44.2870000  29.8690000  89.9900000  43.1340000  28.8870000
  91.1560000  44.1240000  28.4160000  90.0450000  51.7890000  38.3350000
  90.6860000  52.7030000  39.4840000  89.1860000  52.1640000  39.6320000
  64.2350000  11.7310000   0.1910000  64.8380000  12.8600000  -0.2950000
  65.2180000  14.4390000   4.9780000  70.2750000  15.0880000  -2.1480000
  67.2850000  16.3170000   5.2470000  64.5370000  13.7910000   4.7030000
  65.6350000  14.1380000   5.8120000  64.8000000  15.3140000   5.1190000
  68.5240000  16.9810000  -3.1310000  65.0130000  12.3860000  -2.2660000
  68.2980000  17.2670000   5.3110000  66.6480000  16.2500000   5.9480000
  68.1170000  16.1960000  -2.0500000  68.1140000  22.5580000   4.7160000
  70.8130000  16.6050000   6.1880000  68.7880000  23.4410000  -3.7720000
  69.2760000  22.7920000  -2.6230000  71.1310000  18.4770000   5.4610000
  69.1920000  19.5940000   2.5480000  65.1800000  23.2320000   2.4240000
  65.8600000  25.7530000   5.4380000  71.2940000  17.4100000   6.3400000
  67.1880000  19.7520000   0.0310000  68.3440000  19.3330000   2.8860000
  64.8470000  22.1520000   1.6050000  68.6470000  26.4770000   3.8900000
  69.8870000  23.2970000   5.3800000  66.3740000  25.2130000   6.0280000
  72.7040000  19.7320000   6.8020000  68.3350000  17.8630000   6.0510000
  65.8520000  21.3830000   1.0280000  68.1440000  20.8360000   0.5080000
  63.9390000  19.4390000   0.1020000  72.8740000  18.6500000   7.6540000
  68.1410000  14.9470000   2.4150000  73.1920000  20.5320000   6.9560000
  65.8610000  20.1020000   0.2990000  68.9130000  21.5350000  -0.6140000
  69.2840000  20.3500000   1.4000000  67.1820000  21.7820000   1.2150000
  73.7810000  18.8440000   8.6740000  64.8490000  19.2180000  -0.0610000
  68.3960000  22.1570000  -1.7350000  67.5270000  22.8670000   1.9870000
  70.2860000  21.5160000  -0.3460000  67.5270000  18.5420000  -0.5450000
  70.5170000  20.7760000   0.8970000  74.0210000  17.7560000   9.5270000
  65.1760000  18.0120000  -0.6610000  63.9350000  21.9430000   1.4420000
  66.5100000  17.6510000  -0.8940000  67.4600000  22.1550000  -1.9000000
  66.5210000  23.5790000   2.6570000  68.4360000  23.1320000   2.0650000
  71.6840000  20.4140000   1.5630000  68.4370000  18.3200000  -0.7010000
  70.3670000  19.2150000   3.2100000  71.1550000  22.1380000  -1.2350000
  71.6820000  23.0490000   7.3780000  63.0300000  27.9450000   7.3800000
  73.1820000  23.5880000   7.2300000  64.4810000  17.4180000  -0.9200000
  66.8200000  16.3930000  -1.4780000  66.8930000  24.5940000   3.5590000
  70.6530000  22.7710000  -2.3540000  72.0910000  22.1280000  -1.0720000
  70.2700000  18.3680000   4.3480000  71.6060000  19.6290000   2.7040000
  72.5290000  20.7030000   1.2390000  69.5370000  24.4770000  -4.4030000
  67.5620000  23.0560000  -4.3960000  68.1680000  24.5220000   4.2050000
  65.9650000  25.5510000   4.0700000  68.0130000  21.1080000  -4.7190000
  66.1140000  15.2220000  -1.0620000  69.2560000  17.3580000   4.3130000
  72.4040000  19.3680000   3.1490000  69.7560000  24.4440000  -5.7780000
  70.0430000  25.5410000  -3.6730000  67.3520000  21.7740000  -4.8660000
  66.5720000  24.0190000  -4.6060000  71.8340000  19.6570000   5.7340000
  68.9540000  25.6690000   4.2830000  68.6450000  23.3440000   4.7600000
  65.1910000  26.3380000   3.2160000  69.0000000  15.2530000  -1.5600000
  65.7500000  15.0170000   0.2650000  69.1960000  16.4730000   3.2400000
  65.8250000  14.2380000  -1.9980000  70.4620000  25.4540000  -6.3960000
  71.2520000  23.2010000  -2.9540000  70.7710000  26.5550000  -4.2910000
  66.6960000  24.9010000  -4.2780000  69.4170000  23.7210000  -6.2930000
  65.4170000  23.6990000  -5.2860000  67.9270000  17.6290000  -3.4850000
  69.7770000  16.8330000  -3.6960000  66.1830000  21.4390000  -5.5560000
  69.8910000  25.5790000  -2.7360000  70.1690000  25.6420000   4.9250000
  71.7100000  20.4170000   5.1770000  64.3360000  27.2950000   3.7330000
  65.2510000  26.2160000   2.2750000  65.0200000  26.7270000   5.9670000
  64.4890000  23.7400000   2.8310000  65.1100000  13.8520000   0.6470000
  66.0600000  14.3730000  -2.9090000  65.1960000  13.0570000  -1.6190000
  65.9420000  15.6840000   0.9140000  72.1470000  17.4950000   7.4360000
  69.8600000  16.5100000   2.5610000  68.1800000  15.5410000   3.1560000
  68.7480000  14.7100000  -0.8220000  70.9690000  26.5100000  -5.6600000
  71.1280000  27.2700000  -3.7780000  66.0510000  20.5540000  -5.8750000
  65.2180000  22.4130000  -5.7690000  70.6010000  25.4250000  -7.3360000
  64.7530000  24.3640000  -5.4250000  70.2150000  22.4800000   5.7370000
  70.6460000  24.4570000   5.4740000  70.6850000  26.4370000   4.9940000
  64.2540000  27.4990000   5.1100000  63.8010000  27.8170000   3.1470000
  64.9720000  26.8610000   6.9060000  70.6440000  15.8840000  -3.1990000
  70.0390000  17.3830000  -4.4240000  64.8550000  13.7270000   1.5540000
  67.2110000  15.4690000   4.1550000  72.2300000  16.7610000   8.0330000
  70.8730000  14.4280000  -1.8160000  71.6510000  27.4600000  -6.3830000
  64.0480000  22.2270000  -6.4560000  71.8730000  24.5390000   6.0890000
  63.4140000  28.5000000   5.5180000  71.8640000  15.8160000  -3.8480000
  66.2150000  14.5450000   3.9580000  72.0880000  28.6000000  -5.6720000
  63.7480000  20.9220000  -6.9250000  72.3570000  23.3720000   6.7460000
  63.3250000  28.7560000   6.9170000  72.8230000  14.9380000  -3.3200000
  64.0290000  10.6520000  -0.7240000  72.7640000  28.3340000  -5.0120000
  71.3260000  29.0090000  -5.2120000  72.4860000  14.0190000  -3.3670000
  62.8830000  20.9310000  -7.3860000  64.4450000  20.6300000  -7.5470000
  63.6230000   9.8960000  -0.2520000  63.4320000  10.9450000  -1.4450000
  72.4780000  29.2450000  -6.2970000  72.5410000  22.6750000   6.0810000
  64.8900000  10.3770000  -1.1030000  62.6810000  29.4760000   7.0770000
  64.2040000  29.0230000   7.2570000  63.7070000  20.3030000  -6.1660000
  73.0010000  15.1730000  -2.3850000  73.6520000  15.0090000  -3.8380000
  74.7050000  18.0020000  10.1860000  74.3340000  16.9920000   9.0010000
  73.1920000  17.5160000   9.9920000  91.9220000  59.4270000  28.4060000
  87.2700000  59.0800000  36.4090000  84.0870000  54.2630000  31.5300000
  85.2550000  56.6680000  30.6350000  89.8350000  60.4440000  28.5580000
  83.4910000  54.5560000  30.8090000  83.6810000  53.5060000  32.0020000
  84.9480000  53.9870000  31.1510000  85.8830000  57.8490000  30.2550000
  85.0710000  55.9970000  29.9880000  89.0580000  58.8640000  30.6940000
  90.0970000  60.9940000  27.8300000  88.1750000  59.8070000  30.2040000
  86.1180000  57.9840000  29.3450000  88.8060000  58.3210000  31.4320000
  86.8780000  60.0040000  30.7760000  86.5680000  61.2610000  31.3600000
  86.1720000  58.8330000  31.1920000  87.5850000  62.1530000  31.7090000
  85.2340000  61.6230000  31.5930000  85.8080000  58.6280000  32.5190000
  89.2540000  60.0840000  35.4940000  87.2460000  63.3630000  32.2850000
  88.4950000  61.9310000  31.5530000  84.9070000  62.8290000  32.1930000
  87.9860000  61.2400000  28.7690000  85.1680000  57.4630000  32.9010000
  86.0010000  59.2950000  33.1680000  88.2380000  59.1510000  35.4100000
  89.9180000  60.1210000  34.8150000  85.9190000  63.7130000  32.5530000
  88.2020000  64.4470000  32.7620000  83.9980000  63.0500000  32.3560000
  84.8960000  56.4710000  31.9590000  84.9130000  57.3380000  33.8080000
  90.9310000  58.0390000  30.4380000  90.3440000  65.1270000  31.9080000
  88.9710000  65.1460000  31.6400000  87.2400000  65.3930000  33.4690000
  89.3420000  63.9610000  33.6540000  84.2930000  55.3420000  32.4450000
  91.2130000  65.7490000  31.0190000  88.4540000  65.7680000  30.5190000
  87.5850000  66.4780000  34.2410000  85.9100000  64.9930000  33.2820000
  89.2510000  63.2050000  34.8020000  90.5750000  64.3870000  33.1510000
  85.2760000  58.0500000  37.2320000  90.7120000  66.3820000  29.9000000
  92.1490000  65.7390000  31.1820000  89.3340000  66.4030000  29.6310000
  87.5190000  65.7650000  30.3540000  86.5790000  67.1900000  34.9110000
  88.4020000  62.9430000  35.1400000  84.9050000  65.7630000  33.8590000
  88.4940000  66.7430000  34.3190000  90.4250000  62.8260000  35.4640000
  91.7430000  64.0250000  33.8170000  85.6930000  57.7490000  38.0660000
  84.5950000  57.4020000  36.9570000  84.8580000  58.9250000  37.3730000
  89.9490000  69.1900000  29.5180000  86.9520000  68.2050000  35.8130000
  88.8470000  67.0520000  28.4820000  85.2390000  66.8430000  34.6780000
  83.9930000  65.5540000  33.6960000  90.3290000  61.9790000  36.6020000
  91.6640000  63.2400000  34.9580000  92.5870000  64.3140000  33.4930000
  86.0230000  69.1610000  36.3240000  89.5950000  68.0880000  27.8510000
  88.2260000  68.1330000  36.4590000  87.6200000  66.6670000  27.8580000
  88.3930000  61.4740000  38.3040000  91.1890000  62.0880000  37.7150000
  89.3140000  60.9690000  36.5670000  92.4620000  62.9790000  35.4030000
  87.4100000  65.3850000  27.3870000  85.2490000  69.9490000  35.4700000
  86.6300000  67.6300000  27.6480000  89.8140000  68.0540000  26.4760000
  85.9180000  69.3640000  37.6920000  88.7030000  66.9550000  37.0140000
  88.5820000  60.5910000  29.1230000  88.3560000  60.8780000  37.5650000
  90.1010000  69.1520000  28.5810000  89.0120000  69.2800000  36.5370000
  91.3530000  61.0210000  38.5940000  91.8920000  63.2680000  37.9880000
  84.3940000  70.9060000  35.9870000  85.3090000  69.8270000  34.5290000
  85.0780000  70.3380000  38.2210000  86.4320000  68.8240000  38.2820000
  89.4750000  67.3320000  25.9610000  90.8290000  70.1650000  27.9630000
  91.3100000  66.8120000  29.3000000  90.5200000  69.0650000  25.8580000
  92.7620000  63.3430000  39.0560000  84.5470000  67.3510000  35.0850000
  92.2050000  61.1060000  39.6900000  88.1720000  66.1690000  36.9700000
  85.4760000  67.3100000  26.9680000  86.7540000  68.5120000  27.9760000
  87.3430000  59.9280000  37.5010000  84.5400000  61.0290000  31.3340000
  90.2270000  69.2530000  37.1790000  88.0710000  64.7190000  27.5350000
  86.2410000  65.0500000  26.6980000  88.7050000  70.0880000  36.1440000
  90.3340000  58.6990000  30.1060000  91.7680000  64.0280000  37.4310000
  89.9460000  66.9080000  37.6340000  90.8710000  60.2160000  38.4420000
  84.3130000  71.1100000  37.3640000  83.8590000  71.4280000  35.4000000
  90.7440000  70.0480000  37.2480000  91.0270000  70.1210000  26.5940000
  90.6590000  69.0360000  24.9180000  91.1870000  70.8810000  28.4760000
  85.0300000  70.4720000  39.1600000  92.9320000  62.2610000  39.9080000
  86.7060000  59.8610000  38.2020000  85.2760000  66.0240000  26.4850000
  84.8110000  67.9750000  26.8290000  86.1090000  64.1650000  26.3790000
  90.7030000  59.4950000  29.0550000  90.2730000  66.0910000  37.9900000
  92.2880000  60.3720000  40.2870000  90.7040000  68.0680000  37.7280000
  88.1990000  58.5580000  34.6690000  93.2500000  64.1430000  39.2100000
  83.4720000  72.1110000  37.7720000  91.7090000  71.0700000  25.8710000
  93.8390000  62.4550000  40.9280000  86.2730000  58.1560000  36.2120000
  84.1060000  65.8380000  25.7980000  91.9310000  68.1500000  38.3430000
  83.3830000  72.3670000  39.1710000  92.1460000  72.2100000  26.5820000
  94.0790000  61.3670000  41.7810000  83.8060000  64.5330000  25.3290000
  92.8810000  58.5490000  28.9340000  92.4150000  66.9830000  39.0000000
  82.7390000  73.0870000  39.3310000  83.0880000  71.5560000  39.6340000
  84.2620000  72.6340000  39.5110000  92.8220000  71.9450000  27.2420000
  91.3840000  72.6200000  27.0420000  92.5360000  72.8560000  25.9570000
  94.3920000  60.6030000  41.2550000  93.2500000  61.1270000  42.2460000
  94.7630000  61.6130000  42.4400000  83.7660000  63.9140000  26.0880000
  84.5030000  64.2410000  24.7070000  82.9410000  64.5410000  24.8680000
  93.0590000  58.7840000  29.8690000  92.5440000  57.6300000  28.8870000
  93.7100000  58.6200000  28.4160000  92.5990000  66.2860000  38.3350000
  93.2400000  67.1990000  39.4840000  91.7400000  66.6600000  39.6320000
  67.8780000  -2.7040000  16.3180000  68.4810000  -1.5750000  15.8320000
  68.8620000   0.0040000  21.1050000  75.7910000   3.0600000  23.5630000
  68.8400000  -1.3780000  14.5080000  69.2790000  -0.2970000  21.9390000
  68.1800000  -0.6440000  20.8300000  68.4430000   0.8790000  21.2460000
  72.5970000  11.2340000  20.4100000  75.8730000   2.3260000  24.1600000
  69.3940000   0.5820000  16.3920000  68.4990000  -0.7080000  17.6810000
  69.7580000   0.7870000  15.0650000  71.7580000   8.1230000  20.8430000
  72.2910000  12.0420000  20.0170000  70.5370000  10.1590000  19.6860000
  70.1540000   3.2160000  15.2330000  69.6080000  11.1160000  20.1970000
  71.1700000   8.4320000  18.1140000  68.8200000   3.5770000  15.4660000
  69.5030000  11.3180000  21.5650000  68.8340000  11.9030000  19.3430000
  70.8320000   5.3170000  16.1580000  72.0800000   8.6970000  18.1920000
  68.4920000   4.7830000  16.0660000  69.5860000   1.2490000  17.0410000
  67.9790000  12.8600000  19.8600000  68.1250000   2.9830000  15.2070000
  68.6640000  12.2920000  22.0940000  68.1320000   9.3050000  18.9580000
  69.5050000   5.6670000  16.4260000  71.7870000   6.4010000  16.6350000
  67.5830000   5.0040000  16.2290000  67.8980000  13.0640000  21.2370000
  76.8360000   6.0970000  23.0830000  67.4440000  13.3820000  19.2740000
  74.1610000   6.3410000  17.0240000  72.9270000   5.9150000  17.5270000
  72.5560000   7.1000000  15.5130000  70.8260000   7.3470000  17.3420000
  67.0570000  14.0650000  21.6450000  74.7980000   7.7030000  14.8920000
  71.1700000   4.1070000  15.5820000  72.0390000   7.7220000  14.3920000
  73.9300000   7.0810000  15.7810000  72.8360000   5.1590000  18.6750000
  69.4960000   6.9480000  17.1550000  66.9680000  14.3210000  23.0440000
  74.2970000   8.3360000  13.7730000  76.1730000   6.2680000  17.3660000
  72.9190000   8.3570000  13.5040000  72.0810000   3.8850000  15.4260000
  70.1640000   9.1440000  18.7840000  71.1040000   7.7200000  14.2270000
  68.4900000   7.7170000  17.7320000  71.9870000   4.8980000  19.0130000
  74.0100000   4.7800000  19.3370000  75.3280000   5.9790000  17.6900000
  66.3240000  15.0410000  23.2040000  67.8470000  14.5880000  23.3840000
  66.6730000  13.5100000  23.5070000  69.7030000  -0.0620000  13.2180000
  70.4640000   1.9580000  14.6490000  72.4320000   9.0060000  12.3550000
  68.8240000   8.7970000  18.5510000  67.5780000   7.5080000  17.5690000
  73.9140000   3.9330000  20.4750000  75.2490000   5.1940000  18.8310000
  75.7340000   7.6930000  15.0550000  71.2060000   8.6210000  11.7310000
  71.7610000   1.7610000  14.0770000  73.1800000  10.0420000  11.7240000
  71.8120000  10.0870000  20.3320000  68.8950000  11.7810000  18.4020000
  72.8990000   2.9230000  20.4400000  74.7740000   4.0420000  21.5880000
  70.0170000  10.7780000  22.1550000  69.4690000  -0.1970000  14.1290000
  72.2890000   8.9090000  20.8870000  72.1680000   2.5460000  12.9960000
  72.6430000   0.8180000  14.5670000  73.6870000  11.1060000  12.4540000
  73.3990000  10.0090000  10.3490000  70.9950000   7.3390000  11.2600000
  70.2160000   9.5840000  11.5210000  72.8400000   2.0380000  19.3670000
  74.9380000   2.9750000  22.4670000  71.9420000   2.8320000  21.4380000
  75.4770000   5.2220000  21.8610000  76.3480000   5.2970000  22.9290000
  71.5710000   3.1940000  12.6420000  73.5310000   8.8620000  21.5070000
  74.4560000   2.1700000  22.3150000  71.6570000   6.6730000  11.4080000
  73.9190000   0.6530000  13.9790000  72.3920000   0.2750000  15.3050000
  73.4200000   2.3980000  12.4310000  74.4150000  12.1190000  11.8360000
  74.8950000   8.7660000  13.1730000  74.1050000  11.0190000   9.7310000
  73.5350000  11.1440000  13.3910000  69.8270000   7.0040000  10.5710000
  73.0600000   9.2860000   9.8340000  69.0610000   9.2640000  10.8410000
  70.3400000  10.4660000  11.8490000  71.8230000   1.1060000  19.2830000
  76.0470000   4.9330000  19.2760000  68.7530000  -0.5830000  16.7740000
  71.9780000   3.4280000  22.1770000  73.8130000  11.2070000  21.0520000
  75.3530000   5.9820000  21.3040000  70.9290000   1.8820000  21.3740000
  73.5030000   2.0750000  18.6880000  76.5170000   4.2150000  23.7810000
  69.6940000   6.1190000  10.2520000  73.8580000   8.0450000  21.8640000
  74.2880000   1.4490000  12.9280000  74.5160000  -0.0070000  14.3110000
  68.6570000  -2.0490000  13.8610000  74.7720000  12.8350000  12.3490000
  74.6130000  12.0750000  10.4670000  74.2440000  10.9900000   8.7910000
  68.8620000   7.9780000  10.3580000  73.6820000   2.9480000  11.7030000
  68.3960000   9.9290000  10.7020000  70.8550000   1.0340000  20.2820000
  71.7840000   0.5120000  18.5420000  70.2910000   1.8150000  22.0750000
  74.2900000  10.0220000  21.6010000  68.6160000  12.4260000  23.0330000
  74.3290000  12.0020000  21.1210000  77.4250000   4.4090000  24.8010000
  75.5080000   1.3810000  12.2790000  75.2940000  13.0250000   9.7440000
  67.6910000   7.7920000   9.6710000  69.8590000   0.1100000  20.0850000
  75.5160000  10.1040000  22.2160000  77.6650000   3.3210000  25.6540000
  76.4670000   0.5030000  12.8070000  75.7310000  14.1650000  10.4550000
  67.3910000   6.4870000   9.2020000  67.6720000  -3.7830000  15.4030000
  76.0010000   8.9370000  22.8730000  76.8360000   3.0810000  26.1190000
  66.5260000   6.4960000   8.7410000  77.9780000   2.5570000  25.1280000
  76.1300000  -0.4160000  12.7600000  76.6440000   0.7380000  13.7420000
  77.2950000   0.5740000  12.2890000  76.4080000  13.8990000  11.1150000
  76.1220000  14.8100000   9.8300000  74.9690000  14.5740000  10.9150000
  67.0760000  -3.4900000  14.6820000  67.3510000   5.8680000   9.9610000
  68.0890000   6.1950000   8.5800000  67.2670000  -4.5390000  15.8750000
  78.3480000   3.5670000  26.3130000  68.5330000  -4.0590000  15.0240000
  76.1840000   8.2400000  22.2080000  76.8250000   9.1530000  23.3570000
  75.3250000   8.6140000  23.5050000  74.0760000  -2.6430000  32.4450000
  74.6790000  -1.5130000  31.9590000  75.0590000   0.0650000  37.2320000
  81.9880000   3.1210000  39.6900000  75.0380000  -1.3170000  30.6350000
  75.4760000  -0.2350000  38.0660000  74.3780000  -0.5830000  36.9570000
  74.6410000   0.9400000  37.3730000  78.7950000  11.2950000  36.5370000
  82.0710000   2.3870000  40.2870000  75.5910000   0.6440000  32.5190000
  74.6960000  -0.6470000  33.8080000  75.9550000   0.8480000  31.1920000
  77.9550000   8.1840000  36.9700000  78.4890000  12.1030000  36.1440000
  76.7350000  10.2200000  35.8130000  76.3510000   3.2770000  31.3600000
  75.8060000  11.1770000  36.3240000  77.3680000   8.4940000  34.2410000
  75.0170000   3.6390000  31.5930000  75.7010000  11.3790000  37.6920000
  75.0320000  11.9640000  35.4700000  77.0290000   5.3780000  32.2850000
  78.2770000   8.7580000  34.3190000  74.6900000   4.8440000  32.1930000
  75.7840000   1.3100000  33.1680000  74.1770000  12.9210000  35.9870000
  74.3230000   3.0450000  31.3340000  74.8610000  12.3530000  38.2210000
  74.3300000   9.3670000  35.0850000  75.7020000   5.7280000  32.5530000
  77.9850000   6.4620000  32.7620000  73.7810000   5.0650000  32.3560000
  74.0960000  13.1250000  37.3640000  83.0330000   6.1580000  39.2100000
  73.6420000  13.4430000  35.4000000  80.3580000   6.4020000  33.1510000
  79.1250000   5.9760000  33.6540000  78.7540000   7.1610000  31.6400000
  77.0230000   7.4080000  33.4690000  73.2550000  14.1260000  37.7720000
  80.9960000   7.7640000  31.0190000  77.3680000   4.1680000  31.7090000
  78.2370000   7.7830000  30.5190000  80.1270000   7.1420000  31.9080000
  79.0340000   5.2200000  34.8020000  75.6930000   7.0090000  33.2820000
  73.1660000  14.3820000  39.1710000  80.4950000   8.3970000  29.9000000
  82.3710000   6.3290000  33.4930000  79.1170000   8.4180000  29.6310000
  78.2780000   3.9460000  31.5530000  76.3620000   9.2060000  34.9110000
  77.3020000   7.7810000  30.3540000  74.6880000   7.7780000  33.8590000
  78.1850000   4.9590000  35.1400000  80.2080000   4.8420000  35.4640000
  81.5260000   6.0400000  33.8170000  72.5220000  15.1020000  39.3310000
  74.0450000  14.6490000  39.5110000  72.8710000  13.5710000  39.6340000
  75.9010000  -0.0010000  29.3450000  76.6610000   2.0190000  30.7760000
  78.6300000   9.0670000  28.4820000  75.0220000   8.8580000  34.6780000
  73.7760000   7.5690000  33.6960000  80.1120000   3.9940000  36.6020000
  81.4470000   5.2550000  34.9580000  81.9320000   7.7540000  31.1820000
  77.4030000   8.6820000  27.8580000  77.9580000   1.8220000  30.2040000
  79.3780000  10.1030000  27.8510000  78.0090000  10.1480000  36.4590000
  75.0920000  11.8420000  34.5290000  79.0970000   2.9840000  36.5670000
  80.9720000   4.1030000  37.7150000  76.2150000  10.8390000  38.2820000
  75.6660000  -0.1360000  30.2550000  78.4860000   8.9700000  37.0140000
  78.3650000   2.6070000  29.1230000  78.8410000   0.8790000  30.6940000
  79.8840000  11.1670000  28.5810000  79.5970000  10.0700000  26.4760000
  77.1930000   7.4000000  27.3870000  76.4130000   9.6450000  27.6480000
  79.0370000   2.0990000  35.4940000  81.1360000   3.0360000  38.5940000
  78.1390000   2.8930000  37.5650000  81.6750000   5.2830000  37.9880000
  82.5450000   5.3580000  39.0560000  77.7690000   3.2550000  28.7690000
  79.7290000   8.9230000  37.6340000  80.6540000   2.2310000  38.4420000
  77.8540000   6.7350000  27.5350000  80.1170000   0.7140000  30.1060000
  78.5890000   0.3360000  31.4320000  79.6180000   2.4590000  28.5580000
  80.6120000  12.1810000  27.9630000  81.0930000   8.8270000  29.3000000
  80.3030000  11.0800000  25.8580000  79.7320000  11.2050000  29.5180000
  76.0240000   7.0650000  26.6980000  79.2580000   9.3470000  25.9610000
  75.2590000   9.3260000  26.9680000  76.5370000  10.5280000  27.9760000
  78.0210000   1.1670000  35.4100000  82.2450000   4.9940000  35.4030000
  74.9510000  -0.5220000  32.9010000  78.1760000   3.4890000  38.3040000
  80.0100000  11.2680000  37.1790000  81.5510000   6.0430000  37.4310000
  77.1260000   1.9430000  37.5010000  79.7010000   2.1360000  34.8150000
  82.7150000   4.2760000  39.9080000  75.8920000   6.1800000  26.3790000
  80.0560000   8.1060000  37.9900000  80.4860000   1.5100000  29.0550000
  80.7140000   0.0550000  30.4380000  74.8540000  -1.9880000  29.9880000
  80.9700000  12.8960000  28.4760000  80.8100000  12.1360000  26.5940000
  80.4420000  11.0510000  24.9180000  75.0590000   8.0400000  26.4850000
  79.8800000   3.0090000  27.8300000  74.5940000   9.9900000  26.8290000
  77.0530000   1.0950000  36.4090000  77.9820000   0.5730000  34.6690000
  76.4890000   1.8770000  38.2020000  80.4870000  10.0830000  37.7280000
  74.8130000  12.4870000  39.1600000  80.5270000  12.0630000  37.2480000
  83.6220000   4.4700000  40.9280000  81.7050000   1.4420000  28.4060000
  81.4920000  13.0860000  25.8710000  73.8890000   7.8530000  25.7980000
  76.0560000   0.1710000  36.2120000  81.7140000  10.1650000  38.3430000
  83.8620000   3.3820000  41.7810000  82.6650000   0.5640000  28.9340000
  81.9290000  14.2260000  26.5820000  73.5890000   6.5480000  25.3290000
  73.8700000  -3.7220000  31.5300000  82.1980000   8.9980000  39.0000000
  83.0330000   3.1420000  42.2460000  72.7240000   6.5570000  24.8680000
  84.1750000   2.6180000  41.2550000  82.3270000  -0.3550000  28.8870000
  82.8420000   0.7990000  29.8690000  83.4930000   0.6350000  28.4160000
  82.6050000  13.9600000  27.2420000  82.3190000  14.8710000  25.9570000
  81.1670000  14.6350000  27.0420000  73.2740000  -3.4290000  30.8090000
  73.5490000   5.9290000  26.0880000  74.2860000   6.2560000  24.7070000
  73.4640000  -4.4780000  32.0020000  84.5460000   3.6280000  42.4400000
  74.7310000  -3.9970000  31.1510000  82.3820000   8.3010000  38.3350000
  83.0230000   9.2140000  39.4840000  81.5230000   8.6750000  39.6320000
