%VERSION  VERSION_STAMP = V0001.000  DATE = 01/05/26  18:20:21                  
%FLAG TITLE                                                                     
%FORMAT(20a4)                                                                   
default_name                                                                    
%FLAG POINTERS                                                                  
%FORMAT(10I8)                                                                   
   24150       6   10200   15900   20400   23100   33600   39000       0       0
  125400     150   15900   23100   39000       9      15       8       8       0
       0       0       0       0       0       0       0       0     161       0
       0
%FLAG ATOM_NAME                                                                 
%FORMAT(20a4)                                                                   
O1  C2  C3  C4  C5  H6  H7  H8  C9  H10 C11 H12 C13 H14 H15 N16 C17 C18 C19 C20 
C21 C22 C23 H24 C25 H26 C27 H28 C29 H30 C31 C32 H33 C34 H35 H36 C37 C38 C39 C40 
O41 C42 C43 C44 C45 C46 C47 C48 C49 H50 C51 H52 C53 H54 C55 H56 C57 C58 H59 H60 
H61 H62 N63 N64 C65 H66 N67 C68 H69 C70 C71 C72 C73 H74 C75 C76 H77 C78 C79 C80 
C81 C82 C83 C84 C85 C86 C87 C88 C89 C90 H91 C92 H93 H94 C95 H96 C97 C98 H99 C100
H101C102H103C104H105C106H107C108H109C110H111C112H113C114H115H116C117H118H119H120
C121H122C123H124H125C126H127H128C129H130H131O132O133O134O135O136O137C138C139C140
C141C142C143H144H145H146H147H148H149H150H151H152H153H154H155H156H157H158H159H160
H161O1  C2  C3  C4  C5  H6  H7  H8  C9  H10 C11 H12 C13 H14 H15 N16 C17 C18 C19 
C20 C21 C22 C23 H24 C25 H26 C27 H28 C29 H30 C31 C32 H33 C34 H35 H36 C37 C38 C39 
C40 O41 C42 C43 C44 C45 C46 C47 C48 C49 H50 C51 H52 C53 H54 C55 H56 C57 C58 H59 
H60 H61 H62 N63 N64 C65 H66 N67 C68 H69 C70 C71 C72 C73 H74 C75 C76 H77 C78 C79 
C80 C81 C82 C83 C84 C85 C86 C87 C88 C89 C90 H91 C92 H93 H94 C95 H96 C97 C98 H99 
C100H101C102H103C104H105C106H107C108H109C110H111C112H113C114H115H116C117H118H119
H120C121H122C123H124H125C126H127H128C129H130H131O132O133O134O135O136O137C138C139
C140C141C142C143H144H145H146H147H148H149H150H151H152H153H154H155H156H157H158H159
H160H161O1  C2  C3  C4  C5  H6  H7  H8  C9  H10 C11 H12 C13 H14 H15 N16 C17 C18 
C19 C20 C21 C22 C23 H24 C25 H26 C27 H28 C29 H30 C31 C32 H33 C34 H35 H36 C37 C38 
C39 C40 O41 C42 C43 C44 C45 C46 C47 C48 C49 H50 C51 H52 C53 H54 C55 H56 C57 C58 
H59 H60 H61 H62 N63 N64 C65 H66 N67 C68 H69 C70 C71 C72 C73 H74 C75 C76 H77 C78 
C79 C80 C81 C82 C83 C84 C85 C86 C87 C88 C89 C90 H91 C92 H93 H94 C95 H96 C97 C98 
H99 C100H101C102H103C104H105C106H107C108H109C110H111C112H113C114H115H116C117H118
H119H120C121H122C123H124H125C126H127H128C129H130H131O132O133O134O135O136O137C138
C139C140C141C142C143H144H145H146H147H148H149H150H151H152H153H154H155H156H157H158
H159H160H161O1  C2  C3  C4  C5  H6  H7  H8  C9  H10 C11 H12 C13 H14 H15 N16 C17 
C18 C19 C20 C21 C22 C23 H24 C25 H26 C27 H28 C29 H30 C31 C32 H33 C34 H35 H36 C37 
C38 C39 C40 O41 C42 C43 C44 C45 C46 C47 C48 C49 H50 C51 H52 C53 H54 C55 H56 C57 
C58 H59 H60 H61 H62 N63 N64 C65 H66 N67 C68 H69 C70 C71 C72 C73 H74 C75 C76 H77 
C78 C79 C80 C81 C82 C83 C84 C85 C86 C87 C88 C89 C90 H91 C92 H93 H94 C95 H96 C97 
C98 H99 C100H101C102H103C104H105C106H107C108H109C110H111C112H113C114H115H116C117
H118H119H120C121H122C123H124H125C126H127H128C129H130H131O132O133O134O135O136O137
C138C139C140C141C142C143H144H145H146H147H148H149H150H151H152H153H154H155H156H157
H158H159H160H161O1  C2  C3  C4  C5  H6  H7  H8  C9  H10 C11 H12 C13 H14 H15 N16 
C17 C18 C19 C20 C21 C22 C23 H24 C25 H26 C27 H28 C29 H30 C31 C32 H33 C34 H35 H36 
C37 C38 C39 C40 O41 C42 C43 C44 C45 C46 C47 C48 C49 H50 C51 H52 C53 H54 C55 H56 
C57 C58 H59 H60 H61 H62 N63 N64 C65 H66 N67 C68 H69 C70 C71 C72 C73 H74 C75 C76 
H77 C78 C79 C80 C81 C82 C83 C84 C85 C86 C87 C88 C89 C90 H91 C92 H93 H94 C95 H96 
C97 C98 H99 C100H101C102H103C104H105C106H107C108H109C110H111C112H113C114H115H116
C117H118H119H120C121H122C123H124H125C126H127H128C129H130H131O132O133O134O135O136
O137C138C139C140C141C142C143H144H145H146H147H148H149H150H151H152H153H154H155H156
H157H158H159H160H161O1  C2  C3  C4  C5  H6  H7  H8  C9  H10 C11 H12 C13 H14 H15 
N16 C17 C18 C19 C20 C21 C22 C23 H24 C25 H26 C27 H28 C29 H30 C31 C32 H33 C34 H35 
H36 C37 C38 C39 C40 O41 C42 C43 C44 C45 C46 C47 C48 C49 H50 C51 H52 C53 H54 C55 
H56 C57 C58 H59 H60 H61 H62 N63 N64 C65 H66 N67 C68 H69 C70 C71 C72 C73 H74 C75 
C76 H77 C78 C79 C80 C81 C82 C83 C84 C85 C86 C87 C88 C89 C90 H91 C92 H93 H94 C95 
H96 C97 C98 H99 C100H101C102H103C104H105C106H107C108H109C110H111C112H113C114H115
H116C117H118H119H120C121H122C123H124H125C126H127H128C129H130H131O132O133O134O135
O136O137C138C139C140C141C142C143H144H145H146H147H148H149H150H151H152H153H154H155
H156H157H158H159H160H161O1  C2  C3  C4  C5  H6  H7  H8  C9  H10 C11 H12 C13 H14 
H15 N16 C17 C18 C19 C20 C21 C22 C23 H24 C25 H26 C27 H28 C29 H30 C31 C32 H33 C34 
H35 H36 C37 C38 C39 C40 O41 C42 C43 C44 C45 C46 C47 C48 C49 H50 C51 H52 C53 H54 
C55 H56 C57 C58 H59 H60 H61 H62 N63 N64 C65 H66 N67 C68 H69 C70 C71 C72 C73 H74 
C75 C76 H77 C78 C79 C80 C81 C82 C83 C84 C85 C86 C87 C88 C89 C90 H91 C92 H93 H94 
C95 H96 C97 C98 H99 C100H101C102H103C104H105C106H107C108H109C110H111C112H113C114
H115H116C117H118H119H120C121H122C123H124H125C126H127H128C129H130H131O132O133O134
O135O136O137C138C139C140C141C142C143H144H145H146H147H148H149H150H151H152H153H154
H155H156H157H158H159H160H161O1  C2  C3  C4  C5  H6  H7  H8  C9  H10 C11 H12 C13 
H14 H15 N16 C17 C18 C19 C20 C21 C22 C23 H24 C25 H26 C27 H28 C29 H30 C31 C32 H33 
C34 H35 H36 C37 C38 C39 C40 O41 C42 C43 C44 C45 C46 C47 C48 C49 H50 C51 H52 C53 
H54 C55 H56 C57 C58 H59 H60 H61 H62 N63 N64 C65 H66 N67 C68 H69 C70 C71 C72 C73 
H74 C75 C76 H77 C78 C79 C80 C81 C82 C83 C84 C85 C86 C87 C88 C89 C90 H91 C92 H93 
H94 C95 H96 C97 C98 H99 C100H101C102H103C104H105C106H107C108H109C110H111C112H113
C114H115H116C117H118H119H120C121H122C123H124H125C126H127H128C129H130H131O132O133
O134O135O136O137C138C139C140C141C142C143H144H145H146H147H148H149H150H151H152H153
H154H155H156H157H158H159H160H161O1  C2  C3  C4  C5  H6  H7  H8  C9  H10 C11 H12 
C13 H14 H15 N16 C17 C18 C19 C20 C21 C22 C23 H24 C25 H26 C27 H28 C29 H30 C31 C32 
H33 C34 H35 H36 C37 C38 C39 C40 O41 C42 C43 C44 C45 C46 C47 C48 C49 H50 C51 H52 
C53 H54 C55 H56 C57 C58 H59 H60 H61 H62 N63 N64 C65 H66 N67 C68 H69 C70 C71 C72 
C73 H74 C75 C76 H77 C78 C79 C80 C81 C82 C83 C84 C85 C86 C87 C88 C89 C90 H91 C92 
H93 H94 C95 H96 C97 C98 H99 C100H101C102H103C104H105C106H107C108H109C110H111C112
H113C114H115H116C117H118H119H120C121H122C123H124H125C126H127H128C129H130H131O132
O133O134O135O136O137C138C139C140C141C142C143H144H145H146H147H148H149H150H151H152
H153H154H155H156H157H158H159H160H161O1  C2  C3  C4  C5  H6  H7  H8  C9  H10 C11 
H12 C13 H14 H15 N16 C17 C18 C19 C20 C21 C22 C23 H24 C25 H26 C27 H28 C29 H30 C31 
C32 H33 C34 H35 H36 C37 C38 C39 C40 O41 C42 C43 C44 C45 C46 C47 C48 C49 H50 C51 
H52 C53 H54 C55 H56 C57 C58 H59 H60 H61 H62 N63 N64 C65 H66 N67 C68 H69 C70 C71 
C72 C73 H74 C75 C76 H77 C78 C79 C80 C81 C82 C83 C84 C85 C86 C87 C88 C89 C90 H91 
C92 H93 H94 C95 H96 C97 C98 H99 C100H101C102H103C104H105C106H107C108H109C110H111
C112H113C114H115H116C117H118H119H120C121H122C123H124H125C126H127H128C129H130H131
O132O133O134O135O136O137C138C139C140C141C142C143H144H145H146H147H148H149H150H151
H152H153H154H155H156H157H158H159H160H161O1  C2  C3  C4  C5  H6  H7  H8  C9  H10 
C11 H12 C13 H14 H15 N16 C17 C18 C19 C20 C21 C22 C23 H24 C25 H26 C27 H28 C29 H30 
C31 C32 H33 C34 H35 H36 C37 C38 C39 C40 O41 C42 C43 C44 C45 C46 C47 C48 C49 H50 
C51 H52 C53 H54 C55 H56 C57 C58 H59 H60 H61 H62 N63 N64 C65 H66 N67 C68 H69 C70 
C71 C72 C73 H74 C75 C76 H77 C78 C79 C80 C81 C82 C83 C84 C85 C86 C87 C88 C89 C90 
H91 C92 H93 H94 C95 H96 C97 C98 H99 C100H101C102H103C104H105C106H107C108H109C110
H111C112H113C114H115H116C117H118H119H120C121H122C123H124H125C126H127H128C129H130
H131O132O133O134O135O136O137C138C139C140C141C142C143H144H145H146H147H148H149H150
H151H152H153H154H155H156H157H158H159H160H161O1  C2  C3  C4  C5  H6  H7  H8  C9  
H10 C11 H12 C13 H14 H15 N16 C17 C18 C19 C20 C21 C22 C23 H24 C25 H26 C27 H28 C29 
H30 C31 C32 H33 C34 H35 H36 C37 C38 C39 C40 O41 C42 C43 C44 C45 C46 C47 C48 C49 
H50 C51 H52 C53 H54 C55 H56 C57 C58 H59 H60 H61 H62 N63 N64 C65 H66 N67 C68 H69 
C70 C71 C72 C73 H74 C75 C76 H77 C78 C79 C80 C81 C82 C83 C84 C85 C86 C87 C88 C89 
C90 H91 C92 H93 H94 C95 H96 C97 C98 H99 C100H101C102H103C104H105C106H107C108H109
C110H111C112H113C114H115H116C117H118H119H120C121H122C123H124H125C126H127H128C129
H130H131O132O133O134O135O136O137C138C139C140C141C142C143H144H145H146H147H148H149
H150H151H152H153H154H155H156H157H158H159H160H161O1  C2  C3  C4  C5  H6  H7  H8  
C9  H10 C11 H12 C13 H14 H15 N16 C17 C18 C19 C20 C21 C22 C23 H24 C25 H26 C27 H28 
C29 H30 C31 C32 H33 C34 H35 H36 C37 C38 C39 C40 O41 C42 C43 C44 C45 C46 C47 C48 
C49 H50 C51 H52 C53 H54 C55 H56 C57 C58 H59 H60 H61 H62 N63 N64 C65 H66 N67 C68 
H69 C70 C71 C72 C73 H74 C75 C76 H77 C78 C79 C80 C81 C82 C83 C84 C85 C86 C87 C88 
C89 C90 H91 C92 H93 H94 C95 H96 C97 C98 H99 C100H101C102H103C104H105C106H107C108
H109C110H111C112H113C114H115H116C117H118H119H120C121H122C123H124H125C126H127H128
C129H130H131O132O133O134O135O136O137C138C139C140C141C142C143H144H145H146H147H148
H149H150H151H152H153H154H155H156H157H158H159H160H161O1  C2  C3  C4  C5  H6  H7  
H8  C9  H10 C11 H12 C13 H14 H15 N16 C17 C18 C19 C20 C21 C22 C23 H24 C25 H26 C27 
H28 C29 H30 C31 C32 H33 C34 H35 H36 C37 C38 C39 C40 O41 C42 C43 C44 C45 C46 C47 
C48 C49 H50 C51 H52 C53 H54 C55 H56 C57 C58 H59 H60 H61 H62 N63 N64 C65 H66 N67 
C68 H69 C70 C71 C72 C73 H74 C75 C76 H77 C78 C79 C80 C81 C82 C83 C84 C85 C86 C87 
C88 C89 C90 H91 C92 H93 H94 C95 H96 C97 C98 H99 C100H101C102H103C104H105C106H107
C108H109C110H111C112H113C114H115H116C117H118H119H120C121H122C123H124H125C126H127
H128C129H130H131O132O133O134O135O136O137C138C139C140C141C142C143H144H145H146H147
H148H149H150H151H152H153H154H155H156H157H158H159H160H161O1  C2  C3  C4  C5  H6  
H7  H8  C9  H10 C11 H12 C13 H14 H15 N16 C17 C18 C19 C20 C21 C22 C23 H24 C25 H26 
C27 H28 C29 H30 C31 C32 H33 C34 H35 H36 C37 C38 C39 C40 O41 C42 C43 C44 C45 C46 
C47 C48 C49 H50 C51 H52 C53 H54 C55 H56 C57 C58 H59 H60 H61 H62 N63 N64 C65 H66 
N67 C68 H69 C70 C71 C72 C73 H74 C75 C76 H77 C78 C79 C80 C81 C82 C83 C84 C85 C86 
C87 C88 C89 C90 H91 C92 H93 H94 C95 H96 C97 C98 H99 C100H101C102H103C104H105C106
H107C108H109C110H111C112H113C114H115H116C117H118H119H120C121H122C123H124H125C126
H127H128C129H130H131O132O133O134O135O136O137C138C139C140C141C142C143H144H145H146
H147H148H149H150H151H152H153H154H155H156H157H158H159H160H161O1  C2  C3  C4  C5  
H6  H7  H8  C9  H10 C11 H12 C13 H14 H15 N16 C17 C18 C19 C20 C21 C22 C23 H24 C25 
H26 C27 H28 C29 H30 C31 C32 H33 C34 H35 H36 C37 C38 C39 C40 O41 C42 C43 C44 C45 
C46 C47 C48 C49 H50 C51 H52 C53 H54 C55 H56 C57 C58 H59 H60 H61 H62 N63 N64 C65 
H66 N67 C68 H69 C70 C71 C72 C73 H74 C75 C76 H77 C78 C79 C80 C81 C82 C83 C84 C85 
C86 C87 C88 C89 C90 H91 C92 H93 H94 C95 H96 C97 C98 H99 C100H101C102H103C104H105
C106H107C108H109C110H111C112H113C114H115H116C117H118H119H120C121H122C123H124H125
C126H127H128C129H130H131O132O133O134O135O136O137C138C139C140C141C142C143H144H145
H146H147H148H149H150H151H152H153H154H155H156H157H158H159H160H161O1  C2  C3  C4  
C5  H6  H7  H8  C9  H10 C11 H12 C13 H14 H15 N16 C17 C18 C19 C20 C21 C22 C23 H24 
C25 H26 C27 H28 C29 H30 C31 C32 H33 C34 H35 H36 C37 C38 C39 C40 O41 C42 C43 C44 
C45 C46 C47 C48 C49 H50 C51 H52 C53 H54 C55 H56 C57 C58 H59 H60 H61 H62 N63 N64 
C65 H66 N67 C68 H69 C70 C71 C72 C73 H74 C75 C76 H77 C78 C79 C80 C81 C82 C83 C84 
C85 C86 C87 C88 C89 C90 H91 C92 H93 H94 C95 H96 C97 C98 H99 C100H101C102H103C104
H105C106H107C108H109C110H111C112H113C114H115H116C117H118H119H120C121H122C123H124
H125C126H127H128C129H130H131O132O133O134O135O136O137C138C139C140C141C142C143H144
H145H146H147H148H149H150H151H152H153H154H155H156H157H158H159H160H161O1  C2  C3  
C4  C5  H6  H7  H8  C9  H10 C11 H12 C13 H14 H15 N16 C17 C18 C19 C20 C21 C22 C23 
H24 C25 H26 C27 H28 C29 H30 C31 C32 H33 C34 H35 H36 C37 C38 C39 C40 O41 C42 C43 
C44 C45 C46 C47 C48 C49 H50 C51 H52 C53 H54 C55 H56 C57 C58 H59 H60 H61 H62 N63 
N64 C65 H66 N67 C68 H69 C70 C71 C72 C73 H74 C75 C76 H77 C78 C79 C80 C81 C82 C83 
C84 C85 C86 C87 C88 C89 C90 H91 C92 H93 H94 C95 H96 C97 C98 H99 C100H101C102H103
C104H105C106H107C108H109C110H111C112H113C114H115H116C117H118H119H120C121H122C123
H124H125C126H127H128C129H130H131O132O133O134O135O136O137C138C139C140C141C142C143
H144H145H146H147H148H149H150H151H152H153H154H155H156H157H158H159H160H161O1  C2  
C3  C4  C5  H6  H7  H8  C9  H10 C11 H12 C13 H14 H15 N16 C17 C18 C19 C20 C21 C22 
C23 H24 C25 H26 C27 H28 C29 H30 C31 C32 H33 C34 H35 H36 C37 C38 C39 C40 O41 C42 
C43 C44 C45 C46 C47 C48 C49 H50 C51 H52 C53 H54 C55 H56 C57 C58 H59 H60 H61 H62 
N63 N64 C65 H66 N67 C68 H69 C70 C71 C72 C73 H74 C75 C76 H77 C78 C79 C80 C81 C82 
C83 C84 C85 C86 C87 C88 C89 C90 H91 C92 H93 H94 C95 H96 C97 C98 H99 C100H101C102
H103C104H105C106H107C108H109C110H111C112H113C114H115H116C117H118H119H120C121H122
C123H124H125C126H127H128C129H130H131O132O133O134O135O136O137C138C139C140C141C142
C143H144H145H146H147H148H149H150H151H152H153H154H155H156H157H158H159H160H161O1  
C2  C3  C4  C5  H6  H7  H8  C9  H10 C11 H12 C13 H14 H15 N16 C17 C18 C19 C20 C21 
C22 C23 H24 C25 H26 C27 H28 C29 H30 C31 C32 H33 C34 H35 H36 C37 C38 C39 C40 O41 
C42 C43 C44 C45 C46 C47 C48 C49 H50 C51 H52 C53 H54 C55 H56 C57 C58 H59 H60 H61 
H62 N63 N64 C65 H66 N67 C68 H69 C70 C71 C72 C73 H74 C75 C76 H77 C78 C79 C80 C81 
C82 C83 C84 C85 C86 C87 C88 C89 C90 H91 C92 H93 H94 C95 H96 C97 C98 H99 C100H101
C102H103C104H105C106H107C108H109C110H111C112H113C114H115H116C117H118H119H120C121
H122C123H124H125C126H127H128C129H130H131O132O133O134O135O136O137C138C139C140C141
C142C143H144H145H146H147H148H149H150H151H152H153H154H155H156H157H158H159H160H161
O1  C2  C3  C4  C5  H6  H7  H8  C9  H10 C11 H12 C13 H14 H15 N16 C17 C18 C19 C20 
C21 C22 C23 H24 C25 H26 C27 H28 C29 H30 C31 C32 H33 C34 H35 H36 C37 C38 C39 C40 
O41 C42 C43 C44 C45 C46 C47 C48 C49 H50 C51 H52 C53 H54 C55 H56 C57 C58 H59 H60 
H61 H62 N63 N64 C65 H66 N67 C68 H69 C70 C71 C72 C73 H74 C75 C76 H77 C78 C79 C80 
C81 C82 C83 C84 C85 C86 C87 C88 C89 C90 H91 C92 H93 H94 C95 H96 C97 C98 H99 C100
H101C102H103C104H105C106H107C108H109C110H111C112H113C114H115H116C117H118H119H120
C121H122C123H124H125C126H127H128C129H130H131O132O133O134O135O136O137C138C139C140
C141C142C143H144H145H146H147H148H149H150H151H152H153H154H155H156H157H158H159H160
H161O1  C2  C3  C4  C5  H6  H7  H8  C9  H10 C11 H12 C13 H14 H15 N16 C17 C18 C19 
C20 C21 C22 C23 H24 C25 H26 C27 H28 C29 H30 C31 C32 H33 C34 H35 H36 C37 C38 C39 
C40 O41 C42 C43 C44 C45 C46 C47 C48 C49 H50 C51 H52 C53 H54 C55 H56 C57 C58 H59 
H60 H61 H62 N63 N64 C65 H66 N67 C68 H69 C70 C71 C72 C73 H74 C75 C76 H77 C78 C79 
C80 C81 C82 C83 C84 C85 C86 C87 C88 C89 C90 H91 C92 H93 H94 C95 H96 C97 C98 H99 
C100H101C102H103C104H105C106H107C108H109C110H111C112H113C114H115H116C117H118H119
H120C121H122C123H124H125C126H127H128C129H130H131O132O133O134O135O136O137C138C139
C140C141C142C143H144H145H146H147H148H149H150H151H152H153H154H155H156H157H158H159
H160H161O1  C2  C3  C4  C5  H6  H7  H8  C9  H10 C11 H12 C13 H14 H15 N16 C17 C18 
C19 C20 C21 C22 C23 H24 C25 H26 C27 H28 C29 H30 C31 C32 H33 C34 H35 H36 C37 C38 
C39 C40 O41 C42 C43 C44 C45 C46 C47 C48 C49 H50 C51 H52 C53 H54 C55 H56 C57 C58 
H59 H60 H61 H62 N63 N64 C65 H66 N67 C68 H69 C70 C71 C72 C73 H74 C75 C76 H77 C78 
C79 C80 C81 C82 C83 C84 C85 C86 C87 C88 C89 C90 H91 C92 H93 H94 C95 H96 C97 C98 
H99 C100H101C102H103C104H105C106H107C108H109C110H111C112H113C114H115H116C117H118
H119H120C121H122C123H124H125C126H127H128C129H130H131O132O133O134O135O136O137C138
C139C140C141C142C143H144H145H146H147H148H149H150H151H152H153H154H155H156H157H158
H159H160H161O1  C2  C3  C4  C5  H6  H7  H8  C9  H10 C11 H12 C13 H14 H15 N16 C17 
C18 C19 C20 C21 C22 C23 H24 C25 H26 C27 H28 C29 H30 C31 C32 H33 C34 H35 H36 C37 
C38 C39 C40 O41 C42 C43 C44 C45 C46 C47 C48 C49 H50 C51 H52 C53 H54 C55 H56 C57 
C58 H59 H60 H61 H62 N63 N64 C65 H66 N67 C68 H69 C70 C71 C72 C73 H74 C75 C76 H77 
C78 C79 C80 C81 C82 C83 C84 C85 C86 C87 C88 C89 C90 H91 C92 H93 H94 C95 H96 C97 
C98 H99 C100H101C102H103C104H105C106H107C108H109C110H111C112H113C114H115H116C117
H118H119H120C121H122C123H124H125C126H127H128C129H130H131O132O133O134O135O136O137
C138C139C140C141C142C143H144H145H146H147H148H149H150H151H152H153H154H155H156H157
H158H159H160H161O1  C2  C3  C4  C5  H6  H7  H8  C9  H10 C11 H12 C13 H14 H15 N16 
C17 C18 C19 C20 C21 C22 C23 H24 C25 H26 C27 H28 C29 H30 C31 C32 H33 C34 H35 H36 
C37 C38 C39 C40 O41 C42 C43 C44 C45 C46 C47 C48 C49 H50 C51 H52 C53 H54 C55 H56 
C57 C58 H59 H60 H61 H62 N63 N64 C65 H66 N67 C68 H69 C70 C71 C72 C73 H74 C75 C76 
H77 C78 C79 C80 C81 C82 C83 C84 C85 C86 C87 C88 C89 C90 H91 C92 H93 H94 C95 H96 
C97 C98 H99 C100H101C102H103C104H105C106H107C108H109C110H111C112H113C114H115H116
C117H118H119H120C121H122C123H124H125C126H127H128C129H130H131O132O133O134O135O136
O137C138C139C140C141C142C143H144H145H146H147H148H149H150H151H152H153H154H155H156
H157H158H159H160H161O1  C2  C3  C4  C5  H6  H7  H8  C9  H10 C11 H12 C13 H14 H15 
N16 C17 C18 C19 C20 C21 C22 C23 H24 C25 H26 C27 H28 C29 H30 C31 C32 H33 C34 H35 
H36 C37 C38 C39 C40 O41 C42 C43 C44 C45 C46 C47 C48 C49 H50 C51 H52 C53 H54 C55 
H56 C57 C58 H59 H60 H61 H62 N63 N64 C65 H66 N67 C68 H69 C70 C71 C72 C73 H74 C75 
C76 H77 C78 C79 C80 C81 C82 C83 C84 C85 C86 C87 C88 C89 C90 H91 C92 H93 H94 C95 
H96 C97 C98 H99 C100H101C102H103C104H105C106H107C108H109C110H111C112H113C114H115
H116C117H118H119H120C121H122C123H124H125C126H127H128C129H130H131O132O133O134O135
O136O137C138C139C140C141C142C143H144H145H146H147H148H149H150H151H152H153H154H155
H156H157H158H159H160H161O1  C2  C3  C4  C5  H6  H7  H8  C9  H10 C11 H12 C13 H14 
H15 N16 C17 C18 C19 C20 C21 C22 C23 H24 C25 H26 C27 H28 C29 H30 C31 C32 H33 C34 
H35 H36 C37 C38 C39 C40 O41 C42 C43 C44 C45 C46 C47 C48 C49 H50 C51 H52 C53 H54 
C55 H56 C57 C58 H59 H60 H61 H62 N63 N64 C65 H66 N67 C68 H69 C70 C71 C72 C73 H74 
C75 C76 H77 C78 C79 C80 C81 C82 C83 C84 C85 C86 C87 C88 C89 C90 H91 C92 H93 H94 
C95 H96 C97 C98 H99 C100H101C102H103C104H105C106H107C108H109C110H111C112H113C114
H115H116C117H118H119H120C121H122C123H124H125C126H127H128C129H130H131O132O133O134
O135O136O137C138C139C140C141C142C143H144H145H146H147H148H149H150H151H152H153H154
H155H156H157H158H159H160H161O1  C2  C3  C4  C5  H6  H7  H8  C9  H10 C11 H12 C13 
H14 H15 N16 C17 C18 C19 C20 C21 C22 C23 H24 C25 H26 C27 H28 C29 H30 C31 C32 H33 
C34 H35 H36 C37 C38 C39 C40 O41 C42 C43 C44 C45 C46 C47 C48 C49 H50 C51 H52 C53 
H54 C55 H56 C57 C58 H59 H60 H61 H62 N63 N64 C65 H66 N67 C68 H69 C70 C71 C72 C73 
H74 C75 C76 H77 C78 C79 C80 C81 C82 C83 C84 C85 C86 C87 C88 C89 C90 H91 C92 H93 
H94 C95 H96 C97 C98 H99 C100H101C102H103C104H105C106H107C108H109C110H111C112H113
C114H115H116C117H118H119H120C121H122C123H124H125C126H127H128C129H130H131O132O133
O134O135O136O137C138C139C140C141C142C143H144H145H146H147H148H149H150H151H152H153
H154H155H156H157H158H159H160H161O1  C2  C3  C4  C5  H6  H7  H8  C9  H10 C11 H12 
C13 H14 H15 N16 C17 C18 C19 C20 C21 C22 C23 H24 C25 H26 C27 H28 C29 H30 C31 C32 
H33 C34 H35 H36 C37 C38 C39 C40 O41 C42 C43 C44 C45 C46 C47 C48 C49 H50 C51 H52 
C53 H54 C55 H56 C57 C58 H59 H60 H61 H62 N63 N64 C65 H66 N67 C68 H69 C70 C71 C72 
C73 H74 C75 C76 H77 C78 C79 C80 C81 C82 C83 C84 C85 C86 C87 C88 C89 C90 H91 C92 
H93 H94 C95 H96 C97 C98 H99 C100H101C102H103C104H105C106H107C108H109C110H111C112
H113C114H115H116C117H118H119H120C121H122C123H124H125C126H127H128C129H130H131O132
O133O134O135O136O137C138C139C140C141C142C143H144H145H146H147H148H149H150H151H152
H153H154H155H156H157H158H159H160H161O1  C2  C3  C4  C5  H6  H7  H8  C9  H10 C11 
H12 C13 H14 H15 N16 C17 C18 C19 C20 C21 C22 C23 H24 C25 H26 C27 H28 C29 H30 C31 
C32 H33 C34 H35 H36 C37 C38 C39 C40 O41 C42 C43 C44 C45 C46 C47 C48 C49 H50 C51 
H52 C53 H54 C55 H56 C57 C58 H59 H60 H61 H62 N63 N64 C65 H66 N67 C68 H69 C70 C71 
C72 C73 H74 C75 C76 H77 C78 C79 C80 C81 C82 C83 C84 C85 C86 C87 C88 C89 C90 H91 
C92 H93 H94 C95 H96 C97 C98 H99 C100H101C102H103C104H105C106H107C108H109C110H111
C112H113C114H115H116C117H118H119H120C121H122C123H124H125C126H127H128C129H130H131
O132O133O134O135O136O137C138C139C140C141C142C143H144H145H146H147H148H149H150H151
H152H153H154H155H156H157H158H159H160H161O1  C2  C3  C4  C5  H6  H7  H8  C9  H10 
C11 H12 C13 H14 H15 N16 C17 C18 C19 C20 C21 C22 C23 H24 C25 H26 C27 H28 C29 H30 
C31 C32 H33 C34 H35 H36 C37 C38 C39 C40 O41 C42 C43 C44 C45 C46 C47 C48 C49 H50 
C51 H52 C53 H54 C55 H56 C57 C58 H59 H60 H61 H62 N63 N64 C65 H66 N67 C68 H69 C70 
C71 C72 C73 H74 C75 C76 H77 C78 C79 C80 C81 C82 C83 C84 C85 C86 C87 C88 C89 C90 
H91 C92 H93 H94 C95 H96 C97 C98 H99 C100H101C102H103C104H105C106H107C108H109C110
H111C112H113C114H115H116C117H118H119H120C121H122C123H124H125C126H127H128C129H130
H131O132O133O134O135O136O137C138C139C140C141C142C143H144H145H146H147H148H149H150
H151H152H153H154H155H156H157H158H159H160H161O1  C2  C3  C4  C5  H6  H7  H8  C9  
H10 C11 H12 C13 H14 H15 N16 C17 C18 C19 C20 C21 C22 C23 H24 C25 H26 C27 H28 C29 
H30 C31 C32 H33 C34 H35 H36 C37 C38 C39 C40 O41 C42 C43 C44 C45 C46 C47 C48 C49 
H50 C51 H52 C53 H54 C55 H56 C57 C58 H59 H60 H61 H62 N63 N64 C65 H66 N67 C68 H69 
C70 C71 C72 C73 H74 C75 C76 H77 C78 C79 C80 C81 C82 C83 C84 C85 C86 C87 C88 C89 
C90 H91 C92 H93 H94 C95 H96 C97 C98 H99 C100H101C102H103C104H105C106H107C108H109
C110H111C112H113C114H115H116C117H118H119H120C121H122C123H124H125C126H127H128C129
H130H131O132O133O134O135O136O137C138C139C140C141C142C143H144H145H146H147H148H149
H150H151H152H153H154H155H156H157H158H159H160H161O1  C2  C3  C4  C5  H6  H7  H8  
C9  H10 C11 H12 C13 H14 H15 N16 C17 C18 C19 C20 C21 C22 C23 H24 C25 H26 C27 H28 
C29 H30 C31 C32 H33 C34 H35 H36 C37 C38 C39 C40 O41 C42 C43 C44 C45 C46 C47 C48 
C49 H50 C51 H52 C53 H54 C55 H56 C57 C58 H59 H60 H61 H62 N63 N64 C65 H66 N67 C68 
H69 C70 C71 C72 C73 H74 C75 C76 H77 C78 C79 C80 C81 C82 C83 C84 C85 C86 C87 C88 
C89 C90 H91 C92 H93 H94 C95 H96 C97 C98 H99 C100H101C102H103C104H105C106H107C108
H109C110H111C112H113C114H115H116C117H118H119H120C121H122C123H124H125C126H127H128
C129H130H131O132O133O134O135O136O137C138C139C140C141C142C143H144H145H146H147H148
H149H150H151H152H153H154H155H156H157H158H159H160H161O1  C2  C3  C4  C5  H6  H7  
H8  C9  H10 C11 H12 C13 H14 H15 N16 C17 C18 C19 C20 C21 C22 C23 H24 C25 H26 C27 
H28 C29 H30 C31 C32 H33 C34 H35 H36 C37 C38 C39 C40 O41 C42 C43 C44 C45 C46 C47 
C48 C49 H50 C51 H52 C53 H54 C55 H56 C57 C58 H59 H60 H61 H62 N63 N64 C65 H66 N67 
C68 H69 C70 C71 C72 C73 H74 C75 C76 H77 C78 C79 C80 C81 C82 C83 C84 C85 C86 C87 
C88 C89 C90 H91 C92 H93 H94 C95 H96 C97 C98 H99 C100H101C102H103C104H105C106H107
C108H109C110H111C112H113C114H115H116C117H118H119H120C121H122C123H124H125C126H127
H128C129H130H131O132O133O134O135O136O137C138C139C140C141C142C143H144H145H146H147
H148H149H150H151H152H153H154H155H156H157H158H159H160H161O1  C2  C3  C4  C5  H6  
H7  H8  C9  H10 C11 H12 C13 H14 H15 N16 C17 C18 C19 C20 C21 C22 C23 H24 C25 H26 
C27 H28 C29 H30 C31 C32 H33 C34 H35 H36 C37 C38 C39 C40 O41 C42 C43 C44 C45 C46 
C47 C48 C49 H50 C51 H52 C53 H54 C55 H56 C57 C58 H59 H60 H61 H62 N63 N64 C65 H66 
N67 C68 H69 C70 C71 C72 C73 H74 C75 C76 H77 C78 C79 C80 C81 C82 C83 C84 C85 C86 
C87 C88 C89 C90 H91 C92 H93 H94 C95 H96 C97 C98 H99 C100H101C102H103C104H105C106
H107C108H109C110H111C112H113C114H115H116C117H118H119H120C121H122C123H124H125C126
H127H128C129H130H131O132O133O134O135O136O137C138C139C140C141C142C143H144H145H146
H147H148H149H150H151H152H153H154H155H156H157H158H159H160H161O1  C2  C3  C4  C5  
H6  H7  H8  C9  H10 C11 H12 C13 H14 H15 N16 C17 C18 C19 C20 C21 C22 C23 H24 C25 
H26 C27 H28 C29 H30 C31 C32 H33 C34 H35 H36 C37 C38 C39 C40 O41 C42 C43 C44 C45 
C46 C47 C48 C49 H50 C51 H52 C53 H54 C55 H56 C57 C58 H59 H60 H61 H62 N63 N64 C65 
H66 N67 C68 H69 C70 C71 C72 C73 H74 C75 C76 H77 C78 C79 C80 C81 C82 C83 C84 C85 
C86 C87 C88 C89 C90 H91 C92 H93 H94 C95 H96 C97 C98 H99 C100H101C102H103C104H105
C106H107C108H109C110H111C112H113C114H115H116C117H118H119H120C121H122C123H124H125
C126H127H128C129H130H131O132O133O134O135O136O137C138C139C140C141C142C143H144H145
H146H147H148H149H150H151H152H153H154H155H156H157H158H159H160H161O1  C2  C3  C4  
C5  H6  H7  H8  C9  H10 C11 H12 C13 H14 H15 N16 C17 C18 C19 C20 C21 C22 C23 H24 
C25 H26 C27 H28 C29 H30 C31 C32 H33 C34 H35 H36 C37 C38 C39 C40 O41 C42 C43 C44 
C45 C46 C47 C48 C49 H50 C51 H52 C53 H54 C55 H56 C57 C58 H59 H60 H61 H62 N63 N64 
C65 H66 N67 C68 H69 C70 C71 C72 C73 H74 C75 C76 H77 C78 C79 C80 C81 C82 C83 C84 
C85 C86 C87 C88 C89 C90 H91 C92 H93 H94 C95 H96 C97 C98 H99 C100H101C102H103C104
H105C106H107C108H109C110H111C112H113C114H115H116C117H118H119H120C121H122C123H124
H125C126H127H128C129H130H131O132O133O134O135O136O137C138C139C140C141C142C143H144
H145H146H147H148H149H150H151H152H153H154H155H156H157H158H159H160H161O1  C2  C3  
C4  C5  H6  H7  H8  C9  H10 C11 H12 C13 H14 H15 N16 C17 C18 C19 C20 C21 C22 C23 
H24 C25 H26 C27 H28 C29 H30 C31 C32 H33 C34 H35 H36 C37 C38 C39 C40 O41 C42 C43 
C44 C45 C46 C47 C48 C49 H50 C51 H52 C53 H54 C55 H56 C57 C58 H59 H60 H61 H62 N63 
N64 C65 H66 N67 C68 H69 C70 C71 C72 C73 H74 C75 C76 H77 C78 C79 C80 C81 C82 C83 
C84 C85 C86 C87 C88 C89 C90 H91 C92 H93 H94 C95 H96 C97 C98 H99 C100H101C102H103
C104H105C106H107C108H109C110H111C112H113C114H115H116C117H118H119H120C121H122C123
H124H125C126H127H128C129H130H131O132O133O134O135O136O137C138C139C140C141C142C143
H144H145H146H147H148H149H150H151H152H153H154H155H156H157H158H159H160H161O1  C2  
C3  C4  C5  H6  H7  H8  C9  H10 C11 H12 C13 H14 H15 N16 C17 C18 C19 C20 C21 C22 
C23 H24 C25 H26 C27 H28 C29 H30 C31 C32 H33 C34 H35 H36 C37 C38 C39 C40 O41 C42 
C43 C44 C45 C46 C47 C48 C49 H50 C51 H52 C53 H54 C55 H56 C57 C58 H59 H60 H61 H62 
N63 N64 C65 H66 N67 C68 H69 C70 C71 C72 C73 H74 C75 C76 H77 C78 C79 C80 C81 C82 
C83 C84 C85 C86 C87 C88 C89 C90 H91 C92 H93 H94 C95 H96 C97 C98 H99 C100H101C102
H103C104H105C106H107C108H109C110H111C112H113C114H115H116C117H118H119H120C121H122
C123H124H125C126H127H128C129H130H131O132O133O134O135O136O137C138C139C140C141C142
C143H144H145H146H147H148H149H150H151H152H153H154H155H156H157H158H159H160H161O1  
C2  C3  C4  C5  H6  H7  H8  C9  H10 C11 H12 C13 H14 H15 N16 C17 C18 C19 C20 C21 
C22 C23 H24 C25 H26 C27 H28 C29 H30 C31 C32 H33 C34 H35 H36 C37 C38 C39 C40 O41 
C42 C43 C44 C45 C46 C47 C48 C49 H50 C51 H52 C53 H54 C55 H56 C57 C58 H59 H60 H61 
H62 N63 N64 C65 H66 N67 C68 H69 C70 C71 C72 C73 H74 C75 C76 H77 C78 C79 C80 C81 
C82 C83 C84 C85 C86 C87 C88 C89 C90 H91 C92 H93 H94 C95 H96 C97 C98 H99 C100H101
C102H103C104H105C106H107C108H109C110H111C112H113C114H115H116C117H118H119H120C121
H122C123H124H125C126H127H128C129H130H131O132O133O134O135O136O137C138C139C140C141
C142C143H144H145H146H147H148H149H150H151H152H153H154H155H156H157H158H159H160H161
O1  C2  C3  C4  C5  H6  H7  H8  C9  H10 C11 H12 C13 H14 H15 N16 C17 C18 C19 C20 
C21 C22 C23 H24 C25 H26 C27 H28 C29 H30 C31 C32 H33 C34 H35 H36 C37 C38 C39 C40 
O41 C42 C43 C44 C45 C46 C47 C48 C49 H50 C51 H52 C53 H54 C55 H56 C57 C58 H59 H60 
H61 H62 N63 N64 C65 H66 N67 C68 H69 C70 C71 C72 C73 H74 C75 C76 H77 C78 C79 C80 
C81 C82 C83 C84 C85 C86 C87 C88 C89 C90 H91 C92 H93 H94 C95 H96 C97 C98 H99 C100
H101C102H103C104H105C106H107C108H109C110H111C112H113C114H115H116C117H118H119H120
C121H122C123H124H125C126H127H128C129H130H131O132O133O134O135O136O137C138C139C140
C141C142C143H144H145H146H147H148H149H150H151H152H153H154H155H156H157H158H159H160
H161O1  C2  C3  C4  C5  H6  H7  H8  C9  H10 C11 H12 C13 H14 H15 N16 C17 C18 C19 
C20 C21 C22 C23 H24 C25 H26 C27 H28 C29 H30 C31 C32 H33 C34 H35 H36 C37 C38 C39 
C40 O41 C42 C43 C44 C45 C46 C47 C48 C49 H50 C51 H52 C53 H54 C55 H56 C57 C58 H59 
H60 H61 H62 N63 N64 C65 H66 N67 C68 H69 C70 C71 C72 C73 H74 C75 C76 H77 C78 C79 
C80 C81 C82 C83 C84 C85 C86 C87 C88 C89 C90 H91 C92 H93 H94 C95 H96 C97 C98 H99 
C100H101C102H103C104H105C106H107C108H109C110H111C112H113C114H115H116C117H118H119
H120C121H122C123H124H125C126H127H128C129H130H131O132O133O134O135O136O137C138C139
C140C141C142C143H144H145H146H147H148H149H150H151H152H153H154H155H156H157H158H159
H160H161O1  C2  C3  C4  C5  H6  H7  H8  C9  H10 C11 H12 C13 H14 H15 N16 C17 C18 
C19 C20 C21 C22 C23 H24 C25 H26 C27 H28 C29 H30 C31 C32 H33 C34 H35 H36 C37 C38 
C39 C40 O41 C42 C43 C44 C45 C46 C47 C48 C49 H50 C51 H52 C53 H54 C55 H56 C57 C58 
H59 H60 H61 H62 N63 N64 C65 H66 N67 C68 H69 C70 C71 C72 C73 H74 C75 C76 H77 C78 
C79 C80 C81 C82 C83 C84 C85 C86 C87 C88 C89 C90 H91 C92 H93 H94 C95 H96 C97 C98 
H99 C100H101C102H103C104H105C106H107C108H109C110H111C112H113C114H115H116C117H118
H119H120C121H122C123H124H125C126H127H128C129H130H131O132O133O134O135O136O137C138
C139C140C141C142C143H144H145H146H147H148H149H150H151H152H153H154H155H156H157H158
H159H160H161O1  C2  C3  C4  C5  H6  H7  H8  C9  H10 C11 H12 C13 H14 H15 N16 C17 
C18 C19 C20 C21 C22 C23 H24 C25 H26 C27 H28 C29 H30 C31 C32 H33 C34 H35 H36 C37 
C38 C39 C40 O41 C42 C43 C44 C45 C46 C47 C48 C49 H50 C51 H52 C53 H54 C55 H56 C57 
C58 H59 H60 H61 H62 N63 N64 C65 H66 N67 C68 H69 C70 C71 C72 C73 H74 C75 C76 H77 
C78 C79 C80 C81 C82 C83 C84 C85 C86 C87 C88 C89 C90 H91 C92 H93 H94 C95 H96 C97 
C98 H99 C100H101C102H103C104H105C106H107C108H109C110H111C112H113C114H115H116C117
H118H119H120C121H122C123H124H125C126H127H128C129H130H131O132O133O134O135O136O137
C138C139C140C141C142C143H144H145H146H147H148H149H150H151H152H153H154H155H156H157
H158H159H160H161O1  C2  C3  C4  C5  H6  H7  H8  C9  H10 C11 H12 C13 H14 H15 N16 
C17 C18 C19 C20 C21 C22 C23 H24 C25 H26 C27 H28 C29 H30 C31 C32 H33 C34 H35 H36 
C37 C38 C39 C40 O41 C42 C43 C44 C45 C46 C47 C48 C49 H50 C51 H52 C53 H54 C55 H56 
C57 C58 H59 H60 H61 H62 N63 N64 C65 H66 N67 C68 H69 C70 C71 C72 C73 H74 C75 C76 
H77 C78 C79 C80 C81 C82 C83 C84 C85 C86 C87 C88 C89 C90 H91 C92 H93 H94 C95 H96 
C97 C98 H99 C100H101C102H103C104H105C106H107C108H109C110H111C112H113C114H115H116
C117H118H119H120C121H122C123H124H125C126H127H128C129H130H131O132O133O134O135O136
O137C138C139C140C141C142C143H144H145H146H147H148H149H150H151H152H153H154H155H156
H157H158H159H160H161O1  C2  C3  C4  C5  H6  H7  H8  C9  H10 C11 H12 C13 H14 H15 
N16 C17 C18 C19 C20 C21 C22 C23 H24 C25 H26 C27 H28 C29 H30 C31 C32 H33 C34 H35 
H36 C37 C38 C39 C40 O41 C42 C43 C44 C45 C46 C47 C48 C49 H50 C51 H52 C53 H54 C55 
H56 C57 C58 H59 H60 H61 H62 N63 N64 C65 H66 N67 C68 H69 C70 C71 C72 C73 H74 C75 
C76 H77 C78 C79 C80 C81 C82 C83 C84 C85 C86 C87 C88 C89 C90 H91 C92 H93 H94 C95 
H96 C97 C98 H99 C100H101C102H103C104H105C106H107C108H109C110H111C112H113C114H115
H116C117H118H119H120C121H122C123H124H125C126H127H128C129H130H131O132O133O134O135
O136O137C138C139C140C141C142C143H144H145H146H147H148H149H150H151H152H153H154H155
H156H157H158H159H160H161O1  C2  C3  C4  C5  H6  H7  H8  C9  H10 C11 H12 C13 H14 
H15 N16 C17 C18 C19 C20 C21 C22 C23 H24 C25 H26 C27 H28 C29 H30 C31 C32 H33 C34 
H35 H36 C37 C38 C39 C40 O41 C42 C43 C44 C45 C46 C47 C48 C49 H50 C51 H52 C53 H54 
C55 H56 C57 C58 H59 H60 H61 H62 N63 N64 C65 H66 N67 C68 H69 C70 C71 C72 C73 H74 
C75 C76 H77 C78 C79 C80 C81 C82 C83 C84 C85 C86 C87 C88 C89 C90 H91 C92 H93 H94 
C95 H96 C97 C98 H99 C100H101C102H103C104H105C106H107C108H109C110H111C112H113C114
H115H116C117H118H119H120C121H122C123H124H125C126H127H128C129H130H131O132O133O134
O135O136O137C138C139C140C141C142C143H144H145H146H147H148H149H150H151H152H153H154
H155H156H157H158H159H160H161O1  C2  C3  C4  C5  H6  H7  H8  C9  H10 C11 H12 C13 
H14 H15 N16 C17 C18 C19 C20 C21 C22 C23 H24 C25 H26 C27 H28 C29 H30 C31 C32 H33 
C34 H35 H36 C37 C38 C39 C40 O41 C42 C43 C44 C45 C46 C47 C48 C49 H50 C51 H52 C53 
H54 C55 H56 C57 C58 H59 H60 H61 H62 N63 N64 C65 H66 N67 C68 H69 C70 C71 C72 C73 
H74 C75 C76 H77 C78 C79 C80 C81 C82 C83 C84 C85 C86 C87 C88 C89 C90 H91 C92 H93 
H94 C95 H96 C97 C98 H99 C100H101C102H103C104H105C106H107C108H109C110H111C112H113
C114H115H116C117H118H119H120C121H122C123H124H125C126H127H128C129H130H131O132O133
O134O135O136O137C138C139C140C141C142C143H144H145H146H147H148H149H150H151H152H153
H154H155H156H157H158H159H160H161O1  C2  C3  C4  C5  H6  H7  H8  C9  H10 C11 H12 
C13 H14 H15 N16 C17 C18 C19 C20 C21 C22 C23 H24 C25 H26 C27 H28 C29 H30 C31 C32 
H33 C34 H35 H36 C37 C38 C39 C40 O41 C42 C43 C44 C45 C46 C47 C48 C49 H50 C51 H52 
C53 H54 C55 H56 C57 C58 H59 H60 H61 H62 N63 N64 C65 H66 N67 C68 H69 C70 C71 C72 
C73 H74 C75 C76 H77 C78 C79 C80 C81 C82 C83 C84 C85 C86 C87 C88 C89 C90 H91 C92 
H93 H94 C95 H96 C97 C98 H99 C100H101C102H103C104H105C106H107C108H109C110H111C112
H113C114H115H116C117H118H119H120C121H122C123H124H125C126H127H128C129H130H131O132
O133O134O135O136O137C138C139C140C141C142C143H144H145H146H147H148H149H150H151H152
H153H154H155H156H157H158H159H160H161O1  C2  C3  C4  C5  H6  H7  H8  C9  H10 C11 
H12 C13 H14 H15 N16 C17 C18 C19 C20 C21 C22 C23 H24 C25 H26 C27 H28 C29 H30 C31 
C32 H33 C34 H35 H36 C37 C38 C39 C40 O41 C42 C43 C44 C45 C46 C47 C48 C49 H50 C51 
H52 C53 H54 C55 H56 C57 C58 H59 H60 H61 H62 N63 N64 C65 H66 N67 C68 H69 C70 C71 
C72 C73 H74 C75 C76 H77 C78 C79 C80 C81 C82 C83 C84 C85 C86 C87 C88 C89 C90 H91 
C92 H93 H94 C95 H96 C97 C98 H99 C100H101C102H103C104H105C106H107C108H109C110H111
C112H113C114H115H116C117H118H119H120C121H122C123H124H125C126H127H128C129H130H131
O132O133O134O135O136O137C138C139C140C141C142C143H144H145H146H147H148H149H150H151
H152H153H154H155H156H157H158H159H160H161O1  C2  C3  C4  C5  H6  H7  H8  C9  H10 
C11 H12 C13 H14 H15 N16 C17 C18 C19 C20 C21 C22 C23 H24 C25 H26 C27 H28 C29 H30 
C31 C32 H33 C34 H35 H36 C37 C38 C39 C40 O41 C42 C43 C44 C45 C46 C47 C48 C49 H50 
C51 H52 C53 H54 C55 H56 C57 C58 H59 H60 H61 H62 N63 N64 C65 H66 N67 C68 H69 C70 
C71 C72 C73 H74 C75 C76 H77 C78 C79 C80 C81 C82 C83 C84 C85 C86 C87 C88 C89 C90 
H91 C92 H93 H94 C95 H96 C97 C98 H99 C100H101C102H103C104H105C106H107C108H109C110
H111C112H113C114H115H116C117H118H119H120C121H122C123H124H125C126H127H128C129H130
H131O132O133O134O135O136O137C138C139C140C141C142C143H144H145H146H147H148H149H150
H151H152H153H154H155H156H157H158H159H160H161O1  C2  C3  C4  C5  H6  H7  H8  C9  
H10 C11 H12 C13 H14 H15 N16 C17 C18 C19 C20 C21 C22 C23 H24 C25 H26 C27 H28 C29 
H30 C31 C32 H33 C34 H35 H36 C37 C38 C39 C40 O41 C42 C43 C44 C45 C46 C47 C48 C49 
H50 C51 H52 C53 H54 C55 H56 C57 C58 H59 H60 H61 H62 N63 N64 C65 H66 N67 C68 H69 
C70 C71 C72 C73 H74 C75 C76 H77 C78 C79 C80 C81 C82 C83 C84 C85 C86 C87 C88 C89 
C90 H91 C92 H93 H94 C95 H96 C97 C98 H99 C100H101C102H103C104H105C106H107C108H109
C110H111C112H113C114H115H116C117H118H119H120C121H122C123H124H125C126H127H128C129
H130H131O132O133O134O135O136O137C138C139C140C141C142C143H144H145H146H147H148H149
H150H151H152H153H154H155H156H157H158H159H160H161O1  C2  C3  C4  C5  H6  H7  H8  
C9  H10 C11 H12 C13 H14 H15 N16 C17 C18 C19 C20 C21 C22 C23 H24 C25 H26 C27 H28 
C29 H30 C31 C32 H33 C34 H35 H36 C37 C38 C39 C40 O41 C42 C43 C44 C45 C46 C47 C48 
C49 H50 C51 H52 C53 H54 C55 H56 C57 C58 H59 H60 H61 H62 N63 N64 C65 H66 N67 C68 
H69 C70 C71 C72 C73 H74 C75 C76 H77 C78 C79 C80 C81 C82 C83 C84 C85 C86 C87 C88 
C89 C90 H91 C92 H93 H94 C95 H96 C97 C98 H99 C100H101C102H103C104H105C106H107C108
H109C110H111C112H113C114H115H116C117H118H119H120C121H122C123H124H125C126H127H128
C129H130H131O132O133O134O135O136O137C138C139C140C141C142C143H144H145H146H147H148
H149H150H151H152H153H154H155H156H157H158H159H160H161O1  C2  C3  C4  C5  H6  H7  
H8  C9  H10 C11 H12 C13 H14 H15 N16 C17 C18 C19 C20 C21 C22 C23 H24 C25 H26 C27 
H28 C29 H30 C31 C32 H33 C34 H35 H36 C37 C38 C39 C40 O41 C42 C43 C44 C45 C46 C47 
C48 C49 H50 C51 H52 C53 H54 C55 H56 C57 C58 H59 H60 H61 H62 N63 N64 C65 H66 N67 
C68 H69 C70 C71 C72 C73 H74 C75 C76 H77 C78 C79 C80 C81 C82 C83 C84 C85 C86 C87 
C88 C89 C90 H91 C92 H93 H94 C95 H96 C97 C98 H99 C100H101C102H103C104H105C106H107
C108H109C110H111C112H113C114H115H116C117H118H119H120C121H122C123H124H125C126H127
H128C129H130H131O132O133O134O135O136O137C138C139C140C141C142C143H144H145H146H147
H148H149H150H151H152H153H154H155H156H157H158H159H160H161O1  C2  C3  C4  C5  H6  
H7  H8  C9  H10 C11 H12 C13 H14 H15 N16 C17 C18 C19 C20 C21 C22 C23 H24 C25 H26 
C27 H28 C29 H30 C31 C32 H33 C34 H35 H36 C37 C38 C39 C40 O41 C42 C43 C44 C45 C46 
C47 C48 C49 H50 C51 H52 C53 H54 C55 H56 C57 C58 H59 H60 H61 H62 N63 N64 C65 H66 
N67 C68 H69 C70 C71 C72 C73 H74 C75 C76 H77 C78 C79 C80 C81 C82 C83 C84 C85 C86 
C87 C88 C89 C90 H91 C92 H93 H94 C95 H96 C97 C98 H99 C100H101C102H103C104H105C106
H107C108H109C110H111C112H113C114H115H116C117H118H119H120C121H122C123H124H125C126
H127H128C129H130H131O132O133O134O135O136O137C138C139C140C141C142C143H144H145H146
H147H148H149H150H151H152H153H154H155H156H157H158H159H160H161O1  C2  C3  C4  C5  
H6  H7  H8  C9  H10 C11 H12 C13 H14 H15 N16 C17 C18 C19 C20 C21 C22 C23 H24 C25 
H26 C27 H28 C29 H30 C31 C32 H33 C34 H35 H36 C37 C38 C39 C40 O41 C42 C43 C44 C45 
C46 C47 C48 C49 H50 C51 H52 C53 H54 C55 H56 C57 C58 H59 H60 H61 H62 N63 N64 C65 
H66 N67 C68 H69 C70 C71 C72 C73 H74 C75 C76 H77 C78 C79 C80 C81 C82 C83 C84 C85 
C86 C87 C88 C89 C90 H91 C92 H93 H94 C95 H96 C97 C98 H99 C100H101C102H103C104H105
C106H107C108H109C110H111C112H113C114H115H116C117H118H119H120C121H122C123H124H125
C126H127H128C129H130H131O132O133O134O135O136O137C138C139C140C141C142C143H144H145
H146H147H148H149H150H151H152H153H154H155H156H157H158H159H160H161O1  C2  C3  C4  
C5  H6  H7  H8  C9  H10 C11 H12 C13 H14 H15 N16 C17 C18 C19 C20 C21 C22 C23 H24 
C25 H26 C27 H28 C29 H30 C31 C32 H33 C34 H35 H36 C37 C38 C39 C40 O41 C42 C43 C44 
C45 C46 C47 C48 C49 H50 C51 H52 C53 H54 C55 H56 C57 C58 H59 H60 H61 H62 N63 N64 
C65 H66 N67 C68 H69 C70 C71 C72 C73 H74 C75 C76 H77 C78 C79 C80 C81 C82 C83 C84 
C85 C86 C87 C88 C89 C90 H91 C92 H93 H94 C95 H96 C97 C98 H99 C100H101C102H103C104
H105C106H107C108H109C110H111C112H113C114H115H116C117H118H119H120C121H122C123H124
H125C126H127H128C129H130H131O132O133O134O135O136O137C138C139C140C141C142C143H144
H145H146H147H148H149H150H151H152H153H154H155H156H157H158H159H160H161O1  C2  C3  
C4  C5  H6  H7  H8  C9  H10 C11 H12 C13 H14 H15 N16 C17 C18 C19 C20 C21 C22 C23 
H24 C25 H26 C27 H28 C29 H30 C31 C32 H33 C34 H35 H36 C37 C38 C39 C40 O41 C42 C43 
C44 C45 C46 C47 C48 C49 H50 C51 H52 C53 H54 C55 H56 C57 C58 H59 H60 H61 H62 N63 
N64 C65 H66 N67 C68 H69 C70 C71 C72 C73 H74 C75 C76 H77 C78 C79 C80 C81 C82 C83 
C84 C85 C86 C87 C88 C89 C90 H91 C92 H93 H94 C95 H96 C97 C98 H99 C100H101C102H103
C104H105C106H107C108H109C110H111C112H113C114H115H116C117H118H119H120C121H122C123
H124H125C126H127H128C129H130H131O132O133O134O135O136O137C138C139C140C141C142C143
H144H145H146H147H148H149H150H151H152H153H154H155H156H157H158H159H160H161O1  C2  
C3  C4  C5  H6  H7  H8  C9  H10 C11 H12 C13 H14 H15 N16 C17 C18 C19 C20 C21 C22 
C23 H24 C25 H26 C27 H28 C29 H30 C31 C32 H33 C34 H35 H36 C37 C38 C39 C40 O41 C42 
C43 C44 C45 C46 C47 C48 C49 H50 C51 H52 C53 H54 C55 H56 C57 C58 H59 H60 H61 H62 
N63 N64 C65 H66 N67 C68 H69 C70 C71 C72 C73 H74 C75 C76 H77 C78 C79 C80 C81 C82 
C83 C84 C85 C86 C87 C88 C89 C90 H91 C92 H93 H94 C95 H96 C97 C98 H99 C100H101C102
H103C104H105C106H107C108H109C110H111C112H113C114H115H116C117H118H119H120C121H122
C123H124H125C126H127H128C129H130H131O132O133O134O135O136O137C138C139C140C141C142
C143H144H145H146H147H148H149H150H151H152H153H154H155H156H157H158H159H160H161O1  
C2  C3  C4  C5  H6  H7  H8  C9  H10 C11 H12 C13 H14 H15 N16 C17 C18 C19 C20 C21 
C22 C23 H24 C25 H26 C27 H28 C29 H30 C31 C32 H33 C34 H35 H36 C37 C38 C39 C40 O41 
C42 C43 C44 C45 C46 C47 C48 C49 H50 C51 H52 C53 H54 C55 H56 C57 C58 H59 H60 H61 
H62 N63 N64 C65 H66 N67 C68 H69 C70 C71 C72 C73 H74 C75 C76 H77 C78 C79 C80 C81 
C82 C83 C84 C85 C86 C87 C88 C89 C90 H91 C92 H93 H94 C95 H96 C97 C98 H99 C100H101
C102H103C104H105C106H107C108H109C110H111C112H113C114H115H116C117H118H119H120C121
H122C123H124H125C126H127H128C129H130H131O132O133O134O135O136O137C138C139C140C141
C142C143H144H145H146H147H148H149H150H151H152H153H154H155H156H157H158H159H160H161
O1  C2  C3  C4  C5  H6  H7  H8  C9  H10 C11 H12 C13 H14 H15 N16 C17 C18 C19 C20 
C21 C22 C23 H24 C25 H26 C27 H28 C29 H30 C31 C32 H33 C34 H35 H36 C37 C38 C39 C40 
O41 C42 C43 C44 C45 C46 C47 C48 C49 H50 C51 H52 C53 H54 C55 H56 C57 C58 H59 H60 
H61 H62 N63 N64 C65 H66 N67 C68 H69 C70 C71 C72 C73 H74 C75 C76 H77 C78 C79 C80 
C81 C82 C83 C84 C85 C86 C87 C88 C89 C90 H91 C92 H93 H94 C95 H96 C97 C98 H99 C100
H101C102H103C104H105C106H107C108H109C110H111C112H113C114H115H116C117H118H119H120
C121H122C123H124H125C126H127H128C129H130H131O132O133O134O135O136O137C138C139C140
C141C142C143H144H145H146H147H148H149H150H151H152H153H154H155H156H157H158H159H160
H161O1  C2  C3  C4  C5  H6  H7  H8  C9  H10 C11 H12 C13 H14 H15 N16 C17 C18 C19 
C20 C21 C22 C23 H24 C25 H26 C27 H28 C29 H30 C31 C32 H33 C34 H35 H36 C37 C38 C39 
C40 O41 C42 C43 C44 C45 C46 C47 C48 C49 H50 C51 H52 C53 H54 C55 H56 C57 C58 H59 
H60 H61 H62 N63 N64 C65 H66 N67 C68 H69 C70 C71 C72 C73 H74 C75 C76 H77 C78 C79 
C80 C81 C82 C83 C84 C85 C86 C87 C88 C89 C90 H91 C92 H93 H94 C95 H96 C97 C98 H99 
C100H101C102H103C104H105C106H107C108H109C110H111C112H113C114H115H116C117H118H119
H120C121H122C123H124H125C126H127H128C129H130H131O132O133O134O135O136O137C138C139
C140C141C142C143H144H145H146H147H148H149H150H151H152H153H154H155H156H157H158H159
H160H161O1  C2  C3  C4  C5  H6  H7  H8  C9  H10 C11 H12 C13 H14 H15 N16 C17 C18 
C19 C20 C21 C22 C23 H24 C25 H26 C27 H28 C29 H30 C31 C32 H33 C34 H35 H36 C37 C38 
C39 C40 O41 C42 C43 C44 C45 C46 C47 C48 C49 H50 C51 H52 C53 H54 C55 H56 C57 C58 
H59 H60 H61 H62 N63 N64 C65 H66 N67 C68 H69 C70 C71 C72 C73 H74 C75 C76 H77 C78 
C79 C80 C81 C82 C83 C84 C85 C86 C87 C88 C89 C90 H91 C92 H93 H94 C95 H96 C97 C98 
H99 C100H101C102H103C104H105C106H107C108H109C110H111C112H113C114H115H116C117H118
H119H120C121H122C123H124H125C126H127H128C129H130H131O132O133O134O135O136O137C138
C139C140C141C142C143H144H145H146H147H148H149H150H151H152H153H154H155H156H157H158
H159H160H161O1  C2  C3  C4  C5  H6  H7  H8  C9  H10 C11 H12 C13 H14 H15 N16 C17 
C18 C19 C20 C21 C22 C23 H24 C25 H26 C27 H28 C29 H30 C31 C32 H33 C34 H35 H36 C37 
C38 C39 C40 O41 C42 C43 C44 C45 C46 C47 C48 C49 H50 C51 H52 C53 H54 C55 H56 C57 
C58 H59 H60 H61 H62 N63 N64 C65 H66 N67 C68 H69 C70 C71 C72 C73 H74 C75 C76 H77 
C78 C79 C80 C81 C82 C83 C84 C85 C86 C87 C88 C89 C90 H91 C92 H93 H94 C95 H96 C97 
C98 H99 C100H101C102H103C104H105C106H107C108H109C110H111C112H113C114H115H116C117
H118H119H120C121H122C123H124H125C126H127H128C129H130H131O132O133O134O135O136O137
C138C139C140C141C142C143H144H145H146H147H148H149H150H151H152H153H154H155H156H157
H158H159H160H161O1  C2  C3  C4  C5  H6  H7  H8  C9  H10 C11 H12 C13 H14 H15 N16 
C17 C18 C19 C20 C21 C22 C23 H24 C25 H26 C27 H28 C29 H30 C31 C32 H33 C34 H35 H36 
C37 C38 C39 C40 O41 C42 C43 C44 C45 C46 C47 C48 C49 H50 C51 H52 C53 H54 C55 H56 
C57 C58 H59 H60 H61 H62 N63 N64 C65 H66 N67 C68 H69 C70 C71 C72 C73 H74 C75 C76 
H77 C78 C79 C80 C81 C82 C83 C84 C85 C86 C87 C88 C89 C90 H91 C92 H93 H94 C95 H96 
C97 C98 H99 C100H101C102H103C104H105C106H107C108H109C110H111C112H113C114H115H116
C117H118H119H120C121H122C123H124H125C126H127H128C129H130H131O132O133O134O135O136
O137C138C139C140C141C142C143H144H145H146H147H148H149H150H151H152H153H154H155H156
H157H158H159H160H161O1  C2  C3  C4  C5  H6  H7  H8  C9  H10 C11 H12 C13 H14 H15 
N16 C17 C18 C19 C20 C21 C22 C23 H24 C25 H26 C27 H28 C29 H30 C31 C32 H33 C34 H35 
H36 C37 C38 C39 C40 O41 C42 C43 C44 C45 C46 C47 C48 C49 H50 C51 H52 C53 H54 C55 
H56 C57 C58 H59 H60 H61 H62 N63 N64 C65 H66 N67 C68 H69 C70 C71 C72 C73 H74 C75 
C76 H77 C78 C79 C80 C81 C82 C83 C84 C85 C86 C87 C88 C89 C90 H91 C92 H93 H94 C95 
H96 C97 C98 H99 C100H101C102H103C104H105C106H107C108H109C110H111C112H113C114H115
H116C117H118H119H120C121H122C123H124H125C126H127H128C129H130H131O132O133O134O135
O136O137C138C139C140C141C142C143H144H145H146H147H148H149H150H151H152H153H154H155
H156H157H158H159H160H161O1  C2  C3  C4  C5  H6  H7  H8  C9  H10 C11 H12 C13 H14 
H15 N16 C17 C18 C19 C20 C21 C22 C23 H24 C25 H26 C27 H28 C29 H30 C31 C32 H33 C34 
H35 H36 C37 C38 C39 C40 O41 C42 C43 C44 C45 C46 C47 C48 C49 H50 C51 H52 C53 H54 
C55 H56 C57 C58 H59 H60 H61 H62 N63 N64 C65 H66 N67 C68 H69 C70 C71 C72 C73 H74 
C75 C76 H77 C78 C79 C80 C81 C82 C83 C84 C85 C86 C87 C88 C89 C90 H91 C92 H93 H94 
C95 H96 C97 C98 H99 C100H101C102H103C104H105C106H107C108H109C110H111C112H113C114
H115H116C117H118H119H120C121H122C123H124H125C126H127H128C129H130H131O132O133O134
O135O136O137C138C139C140C141C142C143H144H145H146H147H148H149H150H151H152H153H154
H155H156H157H158H159H160H161O1  C2  C3  C4  C5  H6  H7  H8  C9  H10 C11 H12 C13 
H14 H15 N16 C17 C18 C19 C20 C21 C22 C23 H24 C25 H26 C27 H28 C29 H30 C31 C32 H33 
C34 H35 H36 C37 C38 C39 C40 O41 C42 C43 C44 C45 C46 C47 C48 C49 H50 C51 H52 C53 
H54 C55 H56 C57 C58 H59 H60 H61 H62 N63 N64 C65 H66 N67 C68 H69 C70 C71 C72 C73 
H74 C75 C76 H77 C78 C79 C80 C81 C82 C83 C84 C85 C86 C87 C88 C89 C90 H91 C92 H93 
H94 C95 H96 C97 C98 H99 C100H101C102H103C104H105C106H107C108H109C110H111C112H113
C114H115H116C117H118H119H120C121H122C123H124H125C126H127H128C129H130H131O132O133
O134O135O136O137C138C139C140C141C142C143H144H145H146H147H148H149H150H151H152H153
H154H155H156H157H158H159H160H161O1  C2  C3  C4  C5  H6  H7  H8  C9  H10 C11 H12 
C13 H14 H15 N16 C17 C18 C19 C20 C21 C22 C23 H24 C25 H26 C27 H28 C29 H30 C31 C32 
H33 C34 H35 H36 C37 C38 C39 C40 O41 C42 C43 C44 C45 C46 C47 C48 C49 H50 C51 H52 
C53 H54 C55 H56 C57 C58 H59 H60 H61 H62 N63 N64 C65 H66 N67 C68 H69 C70 C71 C72 
C73 H74 C75 C76 H77 C78 C79 C80 C81 C82 C83 C84 C85 C86 C87 C88 C89 C90 H91 C92 
H93 H94 C95 H96 C97 C98 H99 C100H101C102H103C104H105C106H107C108H109C110H111C112
H113C114H115H116C117H118H119H120C121H122C123H124H125C126H127H128C129H130H131O132
O133O134O135O136O137C138C139C140C141C142C143H144H145H146H147H148H149H150H151H152
H153H154H155H156H157H158H159H160H161O1  C2  C3  C4  C5  H6  H7  H8  C9  H10 C11 
H12 C13 H14 H15 N16 C17 C18 C19 C20 C21 C22 C23 H24 C25 H26 C27 H28 C29 H30 C31 
C32 H33 C34 H35 H36 C37 C38 C39 C40 O41 C42 C43 C44 C45 C46 C47 C48 C49 H50 C51 
H52 C53 H54 C55 H56 C57 C58 H59 H60 H61 H62 N63 N64 C65 H66 N67 C68 H69 C70 C71 
C72 C73 H74 C75 C76 H77 C78 C79 C80 C81 C82 C83 C84 C85 C86 C87 C88 C89 C90 H91 
C92 H93 H94 C95 H96 C97 C98 H99 C100H101C102H103C104H105C106H107C108H109C110H111
C112H113C114H115H116C117H118H119H120C121H122C123H124H125C126H127H128C129H130H131
O132O133O134O135O136O137C138C139C140C141C142C143H144H145H146H147H148H149H150H151
H152H153H154H155H156H157H158H159H160H161O1  C2  C3  C4  C5  H6  H7  H8  C9  H10 
C11 H12 C13 H14 H15 N16 C17 C18 C19 C20 C21 C22 C23 H24 C25 H26 C27 H28 C29 H30 
C31 C32 H33 C34 H35 H36 C37 C38 C39 C40 O41 C42 C43 C44 C45 C46 C47 C48 C49 H50 
C51 H52 C53 H54 C55 H56 C57 C58 H59 H60 H61 H62 N63 N64 C65 H66 N67 C68 H69 C70 
C71 C72 C73 H74 C75 C76 H77 C78 C79 C80 C81 C82 C83 C84 C85 C86 C87 C88 C89 C90 
H91 C92 H93 H94 C95 H96 C97 C98 H99 C100H101C102H103C104H105C106H107C108H109C110
H111C112H113C114H115H116C117H118H119H120C121H122C123H124H125C126H127H128C129H130
H131O132O133O134O135O136O137C138C139C140C141C142C143H144H145H146H147H148H149H150
H151H152H153H154H155H156H157H158H159H160H161O1  C2  C3  C4  C5  H6  H7  H8  C9  
H10 C11 H12 C13 H14 H15 N16 C17 C18 C19 C20 C21 C22 C23 H24 C25 H26 C27 H28 C29 
H30 C31 C32 H33 C34 H35 H36 C37 C38 C39 C40 O41 C42 C43 C44 C45 C46 C47 C48 C49 
H50 C51 H52 C53 H54 C55 H56 C57 C58 H59 H60 H61 H62 N63 N64 C65 H66 N67 C68 H69 
C70 C71 C72 C73 H74 C75 C76 H77 C78 C79 C80 C81 C82 C83 C84 C85 C86 C87 C88 C89 
C90 H91 C92 H93 H94 C95 H96 C97 C98 H99 C100H101C102H103C104H105C106H107C108H109
C110H111C112H113C114H115H116C117H118H119H120C121H122C123H124H125C126H127H128C129
H130H131O132O133O134O135O136O137C138C139C140C141C142C143H144H145H146H147H148H149
H150H151H152H153H154H155H156H157H158H159H160H161O1  C2  C3  C4  C5  H6  H7  H8  
C9  H10 C11 H12 C13 H14 H15 N16 C17 C18 C19 C20 C21 C22 C23 H24 C25 H26 C27 H28 
C29 H30 C31 C32 H33 C34 H35 H36 C37 C38 C39 C40 O41 C42 C43 C44 C45 C46 C47 C48 
C49 H50 C51 H52 C53 H54 C55 H56 C57 C58 H59 H60 H61 H62 N63 N64 C65 H66 N67 C68 
H69 C70 C71 C72 C73 H74 C75 C76 H77 C78 C79 C80 C81 C82 C83 C84 C85 C86 C87 C88 
C89 C90 H91 C92 H93 H94 C95 H96 C97 C98 H99 C100H101C102H103C104H105C106H107C108
H109C110H111C112H113C114H115H116C117H118H119H120C121H122C123H124H125C126H127H128
C129H130H131O132O133O134O135O136O137C138C139C140C141C142C143H144H145H146H147H148
H149H150H151H152H153H154H155H156H157H158H159H160H161O1  C2  C3  C4  C5  H6  H7  
H8  C9  H10 C11 H12 C13 H14 H15 N16 C17 C18 C19 C20 C21 C22 C23 H24 C25 H26 C27 
H28 C29 H30 C31 C32 H33 C34 H35 H36 C37 C38 C39 C40 O41 C42 C43 C44 C45 C46 C47 
C48 C49 H50 C51 H52 C53 H54 C55 H56 C57 C58 H59 H60 H61 H62 N63 N64 C65 H66 N67 
C68 H69 C70 C71 C72 C73 H74 C75 C76 H77 C78 C79 C80 C81 C82 C83 C84 C85 C86 C87 
C88 C89 C90 H91 C92 H93 H94 C95 H96 C97 C98 H99 C100H101C102H103C104H105C106H107
C108H109C110H111C112H113C114H115H116C117H118H119H120C121H122C123H124H125C126H127
H128C129H130H131O132O133O134O135O136O137C138C139C140C141C142C143H144H145H146H147
H148H149H150H151H152H153H154H155H156H157H158H159H160H161O1  C2  C3  C4  C5  H6  
H7  H8  C9  H10 C11 H12 C13 H14 H15 N16 C17 C18 C19 C20 C21 C22 C23 H24 C25 H26 
C27 H28 C29 H30 C31 C32 H33 C34 H35 H36 C37 C38 C39 C40 O41 C42 C43 C44 C45 C46 
C47 C48 C49 H50 C51 H52 C53 H54 C55 H56 C57 C58 H59 H60 H61 H62 N63 N64 C65 H66 
N67 C68 H69 C70 C71 C72 C73 H74 C75 C76 H77 C78 C79 C80 C81 C82 C83 C84 C85 C86 
C87 C88 C89 C90 H91 C92 H93 H94 C95 H96 C97 C98 H99 C100H101C102H103C104H105C106
H107C108H109C110H111C112H113C114H115H116C117H118H119H120C121H122C123H124H125C126
H127H128C129H130H131O132O133O134O135O136O137C138C139C140C141C142C143H144H145H146
H147H148H149H150H151H152H153H154H155H156H157H158H159H160H161O1  C2  C3  C4  C5  
H6  H7  H8  C9  H10 C11 H12 C13 H14 H15 N16 C17 C18 C19 C20 C21 C22 C23 H24 C25 
H26 C27 H28 C29 H30 C31 C32 H33 C34 H35 H36 C37 C38 C39 C40 O41 C42 C43 C44 C45 
C46 C47 C48 C49 H50 C51 H52 C53 H54 C55 H56 C57 C58 H59 H60 H61 H62 N63 N64 C65 
H66 N67 C68 H69 C70 C71 C72 C73 H74 C75 C76 H77 C78 C79 C80 C81 C82 C83 C84 C85 
C86 C87 C88 C89 C90 H91 C92 H93 H94 C95 H96 C97 C98 H99 C100H101C102H103C104H105
C106H107C108H109C110H111C112H113C114H115H116C117H118H119H120C121H122C123H124H125
C126H127H128C129H130H131O132O133O134O135O136O137C138C139C140C141C142C143H144H145
H146H147H148H149H150H151H152H153H154H155H156H157H158H159H160H161O1  C2  C3  C4  
C5  H6  H7  H8  C9  H10 C11 H12 C13 H14 H15 N16 C17 C18 C19 C20 C21 C22 C23 H24 
C25 H26 C27 H28 C29 H30 C31 C32 H33 C34 H35 H36 C37 C38 C39 C40 O41 C42 C43 C44 
C45 C46 C47 C48 C49 H50 C51 H52 C53 H54 C55 H56 C57 C58 H59 H60 H61 H62 N63 N64 
C65 H66 N67 C68 H69 C70 C71 C72 C73 H74 C75 C76 H77 C78 C79 C80 C81 C82 C83 C84 
C85 C86 C87 C88 C89 C90 H91 C92 H93 H94 C95 H96 C97 C98 H99 C100H101C102H103C104
H105C106H107C108H109C110H111C112H113C114H115H116C117H118H119H120C121H122C123H124
H125C126H127H128C129H130H131O132O133O134O135O136O137C138C139C140C141C142C143H144
H145H146H147H148H149H150H151H152H153H154H155H156H157H158H159H160H161O1  C2  C3  
C4  C5  H6  H7  H8  C9  H10 C11 H12 C13 H14 H15 N16 C17 C18 C19 C20 C21 C22 C23 
H24 C25 H26 C27 H28 C29 H30 C31 C32 H33 C34 H35 H36 C37 C38 C39 C40 O41 C42 C43 
C44 C45 C46 C47 C48 C49 H50 C51 H52 C53 H54 C55 H56 C57 C58 H59 H60 H61 H62 N63 
N64 C65 H66 N67 C68 H69 C70 C71 C72 C73 H74 C75 C76 H77 C78 C79 C80 C81 C82 C83 
C84 C85 C86 C87 C88 C89 C90 H91 C92 H93 H94 C95 H96 C97 C98 H99 C100H101C102H103
C104H105C106H107C108H109C110H111C112H113C114H115H116C117H118H119H120C121H122C123
H124H125C126H127H128C129H130H131O132O133O134O135O136O137C138C139C140C141C142C143
H144H145H146H147H148H149H150H151H152H153H154H155H156H157H158H159H160H161O1  C2  
C3  C4  C5  H6  H7  H8  C9  H10 C11 H12 C13 H14 H15 N16 C17 C18 C19 C20 C21 C22 
C23 H24 C25 H26 C27 H28 C29 H30 C31 C32 H33 C34 H35 H36 C37 C38 C39 C40 O41 C42 
C43 C44 C45 C46 C47 C48 C49 H50 C51 H52 C53 H54 C55 H56 C57 C58 H59 H60 H61 H62 
N63 N64 C65 H66 N67 C68 H69 C70 C71 C72 C73 H74 C75 C76 H77 C78 C79 C80 C81 C82 
C83 C84 C85 C86 C87 C88 C89 C90 H91 C92 H93 H94 C95 H96 C97 C98 H99 C100H101C102
H103C104H105C106H107C108H109C110H111C112H113C114H115H116C117H118H119H120C121H122
C123H124H125C126H127H128C129H130H131O132O133O134O135O136O137C138C139C140C141C142
C143H144H145H146H147H148H149H150H151H152H153H154H155H156H157H158H159H160H161O1  
C2  C3  C4  C5  H6  H7  H8  C9  H10 C11 H12 C13 H14 H15 N16 C17 C18 C19 C20 C21 
C22 C23 H24 C25 H26 C27 H28 C29 H30 C31 C32 H33 C34 H35 H36 C37 C38 C39 C40 O41 
C42 C43 C44 C45 C46 C47 C48 C49 H50 C51 H52 C53 H54 C55 H56 C57 C58 H59 H60 H61 
H62 N63 N64 C65 H66 N67 C68 H69 C70 C71 C72 C73 H74 C75 C76 H77 C78 C79 C80 C81 
C82 C83 C84 C85 C86 C87 C88 C89 C90 H91 C92 H93 H94 C95 H96 C97 C98 H99 C100H101
C102H103C104H105C106H107C108H109C110H111C112H113C114H115H116C117H118H119H120C121
H122C123H124H125C126H127H128C129H130H131O132O133O134O135O136O137C138C139C140C141
C142C143H144H145H146H147H148H149H150H151H152H153H154H155H156H157H158H159H160H161
O1  C2  C3  C4  C5  H6  H7  H8  C9  H10 C11 H12 C13 H14 H15 N16 C17 C18 C19 C20 
C21 C22 C23 H24 C25 H26 C27 H28 C29 H30 C31 C32 H33 C34 H35 H36 C37 C38 C39 C40 
O41 C42 C43 C44 C45 C46 C47 C48 C49 H50 C51 H52 C53 H54 C55 H56 C57 C58 H59 H60 
H61 H62 N63 N64 C65 H66 N67 C68 H69 C70 C71 C72 C73 H74 C75 C76 H77 C78 C79 C80 
C81 C82 C83 C84 C85 C86 C87 C88 C89 C90 H91 C92 H93 H94 C95 H96 C97 C98 H99 C100
H101C102H103C104H105C106H107C108H109C110H111C112H113C114H115H116C117H118H119H120
C121H122C123H124H125C126H127H128C129H130H131O132O133O134O135O136O137C138C139C140
C141C142C143H144H145H146H147H148H149H150H151H152H153H154H155H156H157H158H159H160
H161O1  C2  C3  C4  C5  H6  H7  H8  C9  H10 C11 H12 C13 H14 H15 N16 C17 C18 C19 
C20 C21 C22 C23 H24 C25 H26 C27 H28 C29 H30 C31 C32 H33 C34 H35 H36 C37 C38 C39 
C40 O41 C42 C43 C44 C45 C46 C47 C48 C49 H50 C51 H52 C53 H54 C55 H56 C57 C58 H59 
H60 H61 H62 N63 N64 C65 H66 N67 C68 H69 C70 C71 C72 C73 H74 C75 C76 H77 C78 C79 
C80 C81 C82 C83 C84 C85 C86 C87 C88 C89 C90 H91 C92 H93 H94 C95 H96 C97 C98 H99 
C100H101C102H103C104H105C106H107C108H109C110H111C112H113C114H115H116C117H118H119
H120C121H122C123H124H125C126H127H128C129H130H131O132O133O134O135O136O137C138C139
C140C141C142C143H144H145H146H147H148H149H150H151H152H153H154H155H156H157H158H159
H160H161O1  C2  C3  C4  C5  H6  H7  H8  C9  H10 C11 H12 C13 H14 H15 N16 C17 C18 
C19 C20 C21 C22 C23 H24 C25 H26 C27 H28 C29 H30 C31 C32 H33 C34 H35 H36 C37 C38 
C39 C40 O41 C42 C43 C44 C45 C46 C47 C48 C49 H50 C51 H52 C53 H54 C55 H56 C57 C58 
H59 H60 H61 H62 N63 N64 C65 H66 N67 C68 H69 C70 C71 C72 C73 H74 C75 C76 H77 C78 
C79 C80 C81 C82 C83 C84 C85 C86 C87 C88 C89 C90 H91 C92 H93 H94 C95 H96 C97 C98 
H99 C100H101C102H103C104H105C106H107C108H109C110H111C112H113C114H115H116C117H118
H119H120C121H122C123H124H125C126H127H128C129H130H131O132O133O134O135O136O137C138
C139C140C141C142C143H144H145H146H147H148H149H150H151H152H153H154H155H156H157H158
H159H160H161O1  C2  C3  C4  C5  H6  H7  H8  C9  H10 C11 H12 C13 H14 H15 N16 C17 
C18 C19 C20 C21 C22 C23 H24 C25 H26 C27 H28 C29 H30 C31 C32 H33 C34 H35 H36 C37 
C38 C39 C40 O41 C42 C43 C44 C45 C46 C47 C48 C49 H50 C51 H52 C53 H54 C55 H56 C57 
C58 H59 H60 H61 H62 N63 N64 C65 H66 N67 C68 H69 C70 C71 C72 C73 H74 C75 C76 H77 
C78 C79 C80 C81 C82 C83 C84 C85 C86 C87 C88 C89 C90 H91 C92 H93 H94 C95 H96 C97 
C98 H99 C100H101C102H103C104H105C106H107C108H109C110H111C112H113C114H115H116C117
H118H119H120C121H122C123H124H125C126H127H128C129H130H131O132O133O134O135O136O137
C138C139C140C141C142C143H144H145H146H147H148H149H150H151H152H153H154H155H156H157
H158H159H160H161O1  C2  C3  C4  C5  H6  H7  H8  C9  H10 C11 H12 C13 H14 H15 N16 
C17 C18 C19 C20 C21 C22 C23 H24 C25 H26 C27 H28 C29 H30 C31 C32 H33 C34 H35 H36 
C37 C38 C39 C40 O41 C42 C43 C44 C45 C46 C47 C48 C49 H50 C51 H52 C53 H54 C55 H56 
C57 C58 H59 H60 H61 H62 N63 N64 C65 H66 N67 C68 H69 C70 C71 C72 C73 H74 C75 C76 
H77 C78 C79 C80 C81 C82 C83 C84 C85 C86 C87 C88 C89 C90 H91 C92 H93 H94 C95 H96 
C97 C98 H99 C100H101C102H103C104H105C106H107C108H109C110H111C112H113C114H115H116
C117H118H119H120C121H122C123H124H125C126H127H128C129H130H131O132O133O134O135O136
O137C138C139C140C141C142C143H144H145H146H147H148H149H150H151H152H153H154H155H156
H157H158H159H160H161O1  C2  C3  C4  C5  H6  H7  H8  C9  H10 C11 H12 C13 H14 H15 
N16 C17 C18 C19 C20 C21 C22 C23 H24 C25 H26 C27 H28 C29 H30 C31 C32 H33 C34 H35 
H36 C37 C38 C39 C40 O41 C42 C43 C44 C45 C46 C47 C48 C49 H50 C51 H52 C53 H54 C55 
H56 C57 C58 H59 H60 H61 H62 N63 N64 C65 H66 N67 C68 H69 C70 C71 C72 C73 H74 C75 
C76 H77 C78 C79 C80 C81 C82 C83 C84 C85 C86 C87 C88 C89 C90 H91 C92 H93 H94 C95 
H96 C97 C98 H99 C100H101C102H103C104H105C106H107C108H109C110H111C112H113C114H115
H116C117H118H119H120C121H122C123H124H125C126H127H128C129H130H131O132O133O134O135
O136O137C138C139C140C141C142C143H144H145H146H147H148H149H150H151H152H153H154H155
H156H157H158H159H160H161O1  C2  C3  C4  C5  H6  H7  H8  C9  H10 C11 H12 C13 H14 
H15 N16 C17 C18 C19 C20 C21 C22 C23 H24 C25 H26 C27 H28 C29 H30 C31 C32 H33 C34 
H35 H36 C37 C38 C39 C40 O41 C42 C43 C44 C45 C46 C47 C48 C49 H50 C51 H52 C53 H54 
C55 H56 C57 C58 H59 H60 H61 H62 N63 N64 C65 H66 N67 C68 H69 C70 C71 C72 C73 H74 
C75 C76 H77 C78 C79 C80 C81 C82 C83 C84 C85 C86 C87 C88 C89 C90 H91 C92 H93 H94 
C95 H96 C97 C98 H99 C100H101C102H103C104H105C106H107C108H109C110H111C112H113C114
H115H116C117H118H119H120C121H122C123H124H125C126H127H128C129H130H131O132O133O134
O135O136O137C138C139C140C141C142C143H144H145H146H147H148H149H150H151H152H153H154
H155H156H157H158H159H160H161O1  C2  C3  C4  C5  H6  H7  H8  C9  H10 C11 H12 C13 
H14 H15 N16 C17 C18 C19 C20 C21 C22 C23 H24 C25 H26 C27 H28 C29 H30 C31 C32 H33 
C34 H35 H36 C37 C38 C39 C40 O41 C42 C43 C44 C45 C46 C47 C48 C49 H50 C51 H52 C53 
H54 C55 H56 C57 C58 H59 H60 H61 H62 N63 N64 C65 H66 N67 C68 H69 C70 C71 C72 C73 
H74 C75 C76 H77 C78 C79 C80 C81 C82 C83 C84 C85 C86 C87 C88 C89 C90 H91 C92 H93 
H94 C95 H96 C97 C98 H99 C100H101C102H103C104H105C106H107C108H109C110H111C112H113
C114H115H116C117H118H119H120C121H122C123H124H125C126H127H128C129H130H131O132O133
O134O135O136O137C138C139C140C141C142C143H144H145H146H147H148H149H150H151H152H153
H154H155H156H157H158H159H160H161O1  C2  C3  C4  C5  H6  H7  H8  C9  H10 C11 H12 
C13 H14 H15 N16 C17 C18 C19 C20 C21 C22 C23 H24 C25 H26 C27 H28 C29 H30 C31 C32 
H33 C34 H35 H36 C37 C38 C39 C40 O41 C42 C43 C44 C45 C46 C47 C48 C49 H50 C51 H52 
C53 H54 C55 H56 C57 C58 H59 H60 H61 H62 N63 N64 C65 H66 N67 C68 H69 C70 C71 C72 
C73 H74 C75 C76 H77 C78 C79 C80 C81 C82 C83 C84 C85 C86 C87 C88 C89 C90 H91 C92 
H93 H94 C95 H96 C97 C98 H99 C100H101C102H103C104H105C106H107C108H109C110H111C112
H113C114H115H116C117H118H119H120C121H122C123H124H125C126H127H128C129H130H131O132
O133O134O135O136O137C138C139C140C141C142C143H144H145H146H147H148H149H150H151H152
H153H154H155H156H157H158H159H160H161O1  C2  C3  C4  C5  H6  H7  H8  C9  H10 C11 
H12 C13 H14 H15 N16 C17 C18 C19 C20 C21 C22 C23 H24 C25 H26 C27 H28 C29 H30 C31 
C32 H33 C34 H35 H36 C37 C38 C39 C40 O41 C42 C43 C44 C45 C46 C47 C48 C49 H50 C51 
H52 C53 H54 C55 H56 C57 C58 H59 H60 H61 H62 N63 N64 C65 H66 N67 C68 H69 C70 C71 
C72 C73 H74 C75 C76 H77 C78 C79 C80 C81 C82 C83 C84 C85 C86 C87 C88 C89 C90 H91 
C92 H93 H94 C95 H96 C97 C98 H99 C100H101C102H103C104H105C106H107C108H109C110H111
C112H113C114H115H116C117H118H119H120C121H122C123H124H125C126H127H128C129H130H131
O132O133O134O135O136O137C138C139C140C141C142C143H144H145H146H147H148H149H150H151
H152H153H154H155H156H157H158H159H160H161O1  C2  C3  C4  C5  H6  H7  H8  C9  H10 
C11 H12 C13 H14 H15 N16 C17 C18 C19 C20 C21 C22 C23 H24 C25 H26 C27 H28 C29 H30 
C31 C32 H33 C34 H35 H36 C37 C38 C39 C40 O41 C42 C43 C44 C45 C46 C47 C48 C49 H50 
C51 H52 C53 H54 C55 H56 C57 C58 H59 H60 H61 H62 N63 N64 C65 H66 N67 C68 H69 C70 
C71 C72 C73 H74 C75 C76 H77 C78 C79 C80 C81 C82 C83 C84 C85 C86 C87 C88 C89 C90 
H91 C92 H93 H94 C95 H96 C97 C98 H99 C100H101C102H103C104H105C106H107C108H109C110
H111C112H113C114H115H116C117H118H119H120C121H122C123H124H125C126H127H128C129H130
H131O132O133O134O135O136O137C138C139C140C141C142C143H144H145H146H147H148H149H150
H151H152H153H154H155H156H157H158H159H160H161O1  C2  C3  C4  C5  H6  H7  H8  C9  
H10 C11 H12 C13 H14 H15 N16 C17 C18 C19 C20 C21 C22 C23 H24 C25 H26 C27 H28 C29 
H30 C31 C32 H33 C34 H35 H36 C37 C38 C39 C40 O41 C42 C43 C44 C45 C46 C47 C48 C49 
H50 C51 H52 C53 H54 C55 H56 C57 C58 H59 H60 H61 H62 N63 N64 C65 H66 N67 C68 H69 
C70 C71 C72 C73 H74 C75 C76 H77 C78 C79 C80 C81 C82 C83 C84 C85 C86 C87 C88 C89 
C90 H91 C92 H93 H94 C95 H96 C97 C98 H99 C100H101C102H103C104H105C106H107C108H109
C110H111C112H113C114H115H116C117H118H119H120C121H122C123H124H125C126H127H128C129
H130H131O132O133O134O135O136O137C138C139C140C141C142C143H144H145H146H147H148H149
H150H151H152H153H154H155H156H157H158H159H160H161O1  C2  C3  C4  C5  H6  H7  H8  
C9  H10 C11 H12 C13 H14 H15 N16 C17 C18 C19 C20 C21 C22 C23 H24 C25 H26 C27 H28 
C29 H30 C31 C32 H33 C34 H35 H36 C37 C38 C39 C40 O41 C42 C43 C44 C45 C46 C47 C48 
C49 H50 C51 H52 C53 H54 C55 H56 C57 C58 H59 H60 H61 H62 N63 N64 C65 H66 N67 C68 
H69 C70 C71 C72 C73 H74 C75 C76 H77 C78 C79 C80 C81 C82 C83 C84 C85 C86 C87 C88 
C89 C90 H91 C92 H93 H94 C95 H96 C97 C98 H99 C100H101C102H103C104H105C106H107C108
H109C110H111C112H113C114H115H116C117H118H119H120C121H122C123H124H125C126H127H128
C129H130H131O132O133O134O135O136O137C138C139C140C141C142C143H144H145H146H147H148
H149H150H151H152H153H154H155H156H157H158H159H160H161O1  C2  C3  C4  C5  H6  H7  
H8  C9  H10 C11 H12 C13 H14 H15 N16 C17 C18 C19 C20 C21 C22 C23 H24 C25 H26 C27 
H28 C29 H30 C31 C32 H33 C34 H35 H36 C37 C38 C39 C40 O41 C42 C43 C44 C45 C46 C47 
C48 C49 H50 C51 H52 C53 H54 C55 H56 C57 C58 H59 H60 H61 H62 N63 N64 C65 H66 N67 
C68 H69 C70 C71 C72 C73 H74 C75 C76 H77 C78 C79 C80 C81 C82 C83 C84 C85 C86 C87 
C88 C89 C90 H91 C92 H93 H94 C95 H96 C97 C98 H99 C100H101C102H103C104H105C106H107
C108H109C110H111C112H113C114H115H116C117H118H119H120C121H122C123H124H125C126H127
H128C129H130H131O132O133O134O135O136O137C138C139C140C141C142C143H144H145H146H147
H148H149H150H151H152H153H154H155H156H157H158H159H160H161O1  C2  C3  C4  C5  H6  
H7  H8  C9  H10 C11 H12 C13 H14 H15 N16 C17 C18 C19 C20 C21 C22 C23 H24 C25 H26 
C27 H28 C29 H30 C31 C32 H33 C34 H35 H36 C37 C38 C39 C40 O41 C42 C43 C44 C45 C46 
C47 C48 C49 H50 C51 H52 C53 H54 C55 H56 C57 C58 H59 H60 H61 H62 N63 N64 C65 H66 
N67 C68 H69 C70 C71 C72 C73 H74 C75 C76 H77 C78 C79 C80 C81 C82 C83 C84 C85 C86 
C87 C88 C89 C90 H91 C92 H93 H94 C95 H96 C97 C98 H99 C100H101C102H103C104H105C106
H107C108H109C110H111C112H113C114H115H116C117H118H119H120C121H122C123H124H125C126
H127H128C129H130H131O132O133O134O135O136O137C138C139C140C141C142C143H144H145H146
H147H148H149H150H151H152H153H154H155H156H157H158H159H160H161O1  C2  C3  C4  C5  
H6  H7  H8  C9  H10 C11 H12 C13 H14 H15 N16 C17 C18 C19 C20 C21 C22 C23 H24 C25 
H26 C27 H28 C29 H30 C31 C32 H33 C34 H35 H36 C37 C38 C39 C40 O41 C42 C43 C44 C45 
C46 C47 C48 C49 H50 C51 H52 C53 H54 C55 H56 C57 C58 H59 H60 H61 H62 N63 N64 C65 
H66 N67 C68 H69 C70 C71 C72 C73 H74 C75 C76 H77 C78 C79 C80 C81 C82 C83 C84 C85 
C86 C87 C88 C89 C90 H91 C92 H93 H94 C95 H96 C97 C98 H99 C100H101C102H103C104H105
C106H107C108H109C110H111C112H113C114H115H116C117H118H119H120C121H122C123H124H125
C126H127H128C129H130H131O132O133O134O135O136O137C138C139C140C141C142C143H144H145
H146H147H148H149H150H151H152H153H154H155H156H157H158H159H160H161O1  C2  C3  C4  
C5  H6  H7  H8  C9  H10 C11 H12 C13 H14 H15 N16 C17 C18 C19 C20 C21 C22 C23 H24 
C25 H26 C27 H28 C29 H30 C31 C32 H33 C34 H35 H36 C37 C38 C39 C40 O41 C42 C43 C44 
C45 C46 C47 C48 C49 H50 C51 H52 C53 H54 C55 H56 C57 C58 H59 H60 H61 H62 N63 N64 
C65 H66 N67 C68 H69 C70 C71 C72 C73 H74 C75 C76 H77 C78 C79 C80 C81 C82 C83 C84 
C85 C86 C87 C88 C89 C90 H91 C92 H93 H94 C95 H96 C97 C98 H99 C100H101C102H103C104
H105C106H107C108H109C110H111C112H113C114H115H116C117H118H119H120C121H122C123H124
H125C126H127H128C129H130H131O132O133O134O135O136O137C138C139C140C141C142C143H144
H145H146H147H148H149H150H151H152H153H154H155H156H157H158H159H160H161O1  C2  C3  
C4  C5  H6  H7  H8  C9  H10 C11 H12 C13 H14 H15 N16 C17 C18 C19 C20 C21 C22 C23 
H24 C25 H26 C27 H28 C29 H30 C31 C32 H33 C34 H35 H36 C37 C38 C39 C40 O41 C42 C43 
C44 C45 C46 C47 C48 C49 H50 C51 H52 C53 H54 C55 H56 C57 C58 H59 H60 H61 H62 N63 
N64 C65 H66 N67 C68 H69 C70 C71 C72 C73 H74 C75 C76 H77 C78 C79 C80 C81 C82 C83 
C84 C85 C86 C87 C88 C89 C90 H91 C92 H93 H94 C95 H96 C97 C98 H99 C100H101C102H103
C104H105C106H107C108H109C110H111C112H113C114H115H116C117H118H119H120C121H122C123
H124H125C126H127H128C129H130H131O132O133O134O135O136O137C138C139C140C141C142C143
H144H145H146H147H148H149H150H151H152H153H154H155H156H157H158H159H160H161O1  C2  
C3  C4  C5  H6  H7  H8  C9  H10 C11 H12 C13 H14 H15 N16 C17 C18 C19 C20 C21 C22 
C23 H24 C25 H26 C27 H28 C29 H30 C31 C32 H33 C34 H35 H36 C37 C38 C39 C40 O41 C42 
C43 C44 C45 C46 C47 C48 C49 H50 C51 H52 C53 H54 C55 H56 C57 C58 H59 H60 H61 H62 
N63 N64 C65 H66 N67 C68 H69 C70 C71 C72 C73 H74 C75 C76 H77 C78 C79 C80 C81 C82 
C83 C84 C85 C86 C87 C88 C89 C90 H91 C92 H93 H94 C95 H96 C97 C98 H99 C100H101C102
H103C104H105C106H107C108H109C110H111C112H113C114H115H116C117H118H119H120C121H122
C123H124H125C126H127H128C129H130H131O132O133O134O135O136O137C138C139C140C141C142
C143H144H145H146H147H148H149H150H151H152H153H154H155H156H157H158H159H160H161O1  
C2  C3  C4  C5  H6  H7  H8  C9  H10 C11 H12 C13 H14 H15 N16 C17 C18 C19 C20 C21 
C22 C23 H24 C25 H26 C27 H28 C29 H30 C31 C32 H33 C34 H35 H36 C37 C38 C39 C40 O41 
C42 C43 C44 C45 C46 C47 C48 C49 H50 C51 H52 C53 H54 C55 H56 C57 C58 H59 H60 H61 
H62 N63 N64 C65 H66 N67 C68 H69 C70 C71 C72 C73 H74 C75 C76 H77 C78 C79 C80 C81 
C82 C83 C84 C85 C86 C87 C88 C89 C90 H91 C92 H93 H94 C95 H96 C97 C98 H99 C100H101
C102H103C104H105C106H107C108H109C110H111C112H113C114H115H116C117H118H119H120C121
H122C123H124H125C126H127H128C129H130H131O132O133O134O135O136O137C138C139C140C141
C142C143H144H145H146H147H148H149H150H151H152H153H154H155H156H157H158H159H160H161
O1  C2  C3  C4  C5  H6  H7  H8  C9  H10 C11 H12 C13 H14 H15 N16 C17 C18 C19 C20 
C21 C22 C23 H24 C25 H26 C27 H28 C29 H30 C31 C32 H33 C34 H35 H36 C37 C38 C39 C40 
O41 C42 C43 C44 C45 C46 C47 C48 C49 H50 C51 H52 C53 H54 C55 H56 C57 C58 H59 H60 
H61 H62 N63 N64 C65 H66 N67 C68 H69 C70 C71 C72 C73 H74 C75 C76 H77 C78 C79 C80 
C81 C82 C83 C84 C85 C86 C87 C88 C89 C90 H91 C92 H93 H94 C95 H96 C97 C98 H99 C100
H101C102H103C104H105C106H107C108H109C110H111C112H113C114H115H116C117H118H119H120
C121H122C123H124H125C126H127H128C129H130H131O132O133O134O135O136O137C138C139C140
C141C142C143H144H145H146H147H148H149H150H151H152H153H154H155H156H157H158H159H160
H161O1  C2  C3  C4  C5  H6  H7  H8  C9  H10 C11 H12 C13 H14 H15 N16 C17 C18 C19 
C20 C21 C22 C23 H24 C25 H26 C27 H28 C29 H30 C31 C32 H33 C34 H35 H36 C37 C38 C39 
C40 O41 C42 C43 C44 C45 C46 C47 C48 C49 H50 C51 H52 C53 H54 C55 H56 C57 C58 H59 
H60 H61 H62 N63 N64 C65 H66 N67 C68 H69 C70 C71 C72 C73 H74 C75 C76 H77 C78 C79 
C80 C81 C82 C83 C84 C85 C86 C87 C88 C89 C90 H91 C92 H93 H94 C95 H96 C97 C98 H99 
C100H101C102H103C104H105C106H107C108H109C110H111C112H113C114H115H116C117H118H119
H120C121H122C123H124H125C126H127H128C129H130H131O132O133O134O135O136O137C138C139
C140C141C142C143H144H145H146H147H148H149H150H151H152H153H154H155H156H157H158H159
H160H161O1  C2  C3  C4  C5  H6  H7  H8  C9  H10 C11 H12 C13 H14 H15 N16 C17 C18 
C19 C20 C21 C22 C23 H24 C25 H26 C27 H28 C29 H30 C31 C32 H33 C34 H35 H36 C37 C38 
C39 C40 O41 C42 C43 C44 C45 C46 C47 C48 C49 H50 C51 H52 C53 H54 C55 H56 C57 C58 
H59 H60 H61 H62 N63 N64 C65 H66 N67 C68 H69 C70 C71 C72 C73 H74 C75 C76 H77 C78 
C79 C80 C81 C82 C83 C84 C85 C86 C87 C88 C89 C90 H91 C92 H93 H94 C95 H96 C97 C98 
H99 C100H101C102H103C104H105C106H107C108H109C110H111C112H113C114H115H116C117H118
H119H120C121H122C123H124H125C126H127H128C129H130H131O132O133O134O135O136O137C138
C139C140C141C142C143H144H145H146H147H148H149H150H151H152H153H154H155H156H157H158
H159H160H161O1  C2  C3  C4  C5  H6  H7  H8  C9  H10 C11 H12 C13 H14 H15 N16 C17 
C18 C19 C20 C21 C22 C23 H24 C25 H26 C27 H28 C29 H30 C31 C32 H33 C34 H35 H36 C37 
C38 C39 C40 O41 C42 C43 C44 C45 C46 C47 C48 C49 H50 C51 H52 C53 H54 C55 H56 C57 
C58 H59 H60 H61 H62 N63 N64 C65 H66 N67 C68 H69 C70 C71 C72 C73 H74 C75 C76 H77 
C78 C79 C80 C81 C82 C83 C84 C85 C86 C87 C88 C89 C90 H91 C92 H93 H94 C95 H96 C97 
C98 H99 C100H101C102H103C104H105C106H107C108H109C110H111C112H113C114H115H116C117
H118H119H120C121H122C123H124H125C126H127H128C129H130H131O132O133O134O135O136O137
C138C139C140C141C142C143H144H145H146H147H148H149H150H151H152H153H154H155H156H157
H158H159H160H161O1  C2  C3  C4  C5  H6  H7  H8  C9  H10 C11 H12 C13 H14 H15 N16 
C17 C18 C19 C20 C21 C22 C23 H24 C25 H26 C27 H28 C29 H30 C31 C32 H33 C34 H35 H36 
C37 C38 C39 C40 O41 C42 C43 C44 C45 C46 C47 C48 C49 H50 C51 H52 C53 H54 C55 H56 
C57 C58 H59 H60 H61 H62 N63 N64 C65 H66 N67 C68 H69 C70 C71 C72 C73 H74 C75 C76 
H77 C78 C79 C80 C81 C82 C83 C84 C85 C86 C87 C88 C89 C90 H91 C92 H93 H94 C95 H96 
C97 C98 H99 C100H101C102H103C104H105C106H107C108H109C110H111C112H113C114H115H116
C117H118H119H120C121H122C123H124H125C126H127H128C129H130H131O132O133O134O135O136
O137C138C139C140C141C142C143H144H145H146H147H148H149H150H151H152H153H154H155H156
H157H158H159H160H161O1  C2  C3  C4  C5  H6  H7  H8  C9  H10 C11 H12 C13 H14 H15 
N16 C17 C18 C19 C20 C21 C22 C23 H24 C25 H26 C27 H28 C29 H30 C31 C32 H33 C34 H35 
H36 C37 C38 C39 C40 O41 C42 C43 C44 C45 C46 C47 C48 C49 H50 C51 H52 C53 H54 C55 
H56 C57 C58 H59 H60 H61 H62 N63 N64 C65 H66 N67 C68 H69 C70 C71 C72 C73 H74 C75 
C76 H77 C78 C79 C80 C81 C82 C83 C84 C85 C86 C87 C88 C89 C90 H91 C92 H93 H94 C95 
H96 C97 C98 H99 C100H101C102H103C104H105C106H107C108H109C110H111C112H113C114H115
H116C117H118H119H120C121H122C123H124H125C126H127H128C129H130H131O132O133O134O135
O136O137C138C139C140C141C142C143H144H145H146H147H148H149H150H151H152H153H154H155
H156H157H158H159H160H161O1  C2  C3  C4  C5  H6  H7  H8  C9  H10 C11 H12 C13 H14 
H15 N16 C17 C18 C19 C20 C21 C22 C23 H24 C25 H26 C27 H28 C29 H30 C31 C32 H33 C34 
H35 H36 C37 C38 C39 C40 O41 C42 C43 C44 C45 C46 C47 C48 C49 H50 C51 H52 C53 H54 
C55 H56 C57 C58 H59 H60 H61 H62 N63 N64 C65 H66 N67 C68 H69 C70 C71 C72 C73 H74 
C75 C76 H77 C78 C79 C80 C81 C82 C83 C84 C85 C86 C87 C88 C89 C90 H91 C92 H93 H94 
C95 H96 C97 C98 H99 C100H101C102H103C104H105C106H107C108H109C110H111C112H113C114
H115H116C117H118H119H120C121H122C123H124H125C126H127H128C129H130H131O132O133O134
O135O136O137C138C139C140C141C142C143H144H145H146H147H148H149H150H151H152H153H154
H155H156H157H158H159H160H161O1  C2  C3  C4  C5  H6  H7  H8  C9  H10 C11 H12 C13 
H14 H15 N16 C17 C18 C19 C20 C21 C22 C23 H24 C25 H26 C27 H28 C29 H30 C31 C32 H33 
C34 H35 H36 C37 C38 C39 C40 O41 C42 C43 C44 C45 C46 C47 C48 C49 H50 C51 H52 C53 
H54 C55 H56 C57 C58 H59 H60 H61 H62 N63 N64 C65 H66 N67 C68 H69 C70 C71 C72 C73 
H74 C75 C76 H77 C78 C79 C80 C81 C82 C83 C84 C85 C86 C87 C88 C89 C90 H91 C92 H93 
H94 C95 H96 C97 C98 H99 C100H101C102H103C104H105C106H107C108H109C110H111C112H113
C114H115H116C117H118H119H120C121H122C123H124H125C126H127H128C129H130H131O132O133
O134O135O136O137C138C139C140C141C142C143H144H145H146H147H148H149H150H151H152H153
H154H155H156H157H158H159H160H161O1  C2  C3  C4  C5  H6  H7  H8  C9  H10 C11 H12 
C13 H14 H15 N16 C17 C18 C19 C20 C21 C22 C23 H24 C25 H26 C27 H28 C29 H30 C31 C32 
H33 C34 H35 H36 C37 C38 C39 C40 O41 C42 C43 C44 C45 C46 C47 C48 C49 H50 C51 H52 
C53 H54 C55 H56 C57 C58 H59 H60 H61 H62 N63 N64 C65 H66 N67 C68 H69 C70 C71 C72 
C73 H74 C75 C76 H77 C78 C79 C80 C81 C82 C83 C84 C85 C86 C87 C88 C89 C90 H91 C92 
H93 H94 C95 H96 C97 C98 H99 C100H101C102H103C104H105C106H107C108H109C110H111C112
H113C114H115H116C117H118H119H120C121H122C123H124H125C126H127H128C129H130H131O132
O133O134O135O136O137C138C139C140C141C142C143H144H145H146H147H148H149H150H151H152
H153H154H155H156H157H158H159H160H161O1  C2  C3  C4  C5  H6  H7  H8  C9  H10 C11 
H12 C13 H14 H15 N16 C17 C18 C19 C20 C21 C22 C23 H24 C25 H26 C27 H28 C29 H30 C31 
C32 H33 C34 H35 H36 C37 C38 C39 C40 O41 C42 C43 C44 C45 C46 C47 C48 C49 H50 C51 
H52 C53 H54 C55 H56 C57 C58 H59 H60 H61 H62 N63 N64 C65 H66 N67 C68 H69 C70 C71 
C72 C73 H74 C75 C76 H77 C78 C79 C80 C81 C82 C83 C84 C85 C86 C87 C88 C89 C90 H91 
C92 H93 H94 C95 H96 C97 C98 H99 C100H101C102H103C104H105C106H107C108H109C110H111
C112H113C114H115H116C117H118H119H120C121H122C123H124H125C126H127H128C129H130H131
O132O133O134O135O136O137C138C139C140C141C142C143H144H145H146H147H148H149H150H151
H152H153H154H155H156H157H158H159H160H161O1  C2  C3  C4  C5  H6  H7  H8  C9  H10 
C11 H12 C13 H14 H15 N16 C17 C18 C19 C20 C21 C22 C23 H24 C25 H26 C27 H28 C29 H30 
C31 C32 H33 C34 H35 H36 C37 C38 C39 C40 O41 C42 C43 C44 C45 C46 C47 C48 C49 H50 
C51 H52 C53 H54 C55 H56 C57 C58 H59 H60 H61 H62 N63 N64 C65 H66 N67 C68 H69 C70 
C71 C72 C73 H74 C75 C76 H77 C78 C79 C80 C81 C82 C83 C84 C85 C86 C87 C88 C89 C90 
H91 C92 H93 H94 C95 H96 C97 C98 H99 C100H101C102H103C104H105C106H107C108H109C110
H111C112H113C114H115H116C117H118H119H120C121H122C123H124H125C126H127H128C129H130
H131O132O133O134O135O136O137C138C139C140C141C142C143H144H145H146H147H148H149H150
H151H152H153H154H155H156H157H158H159H160H161O1  C2  C3  C4  C5  H6  H7  H8  C9  
H10 C11 H12 C13 H14 H15 N16 C17 C18 C19 C20 C21 C22 C23 H24 C25 H26 C27 H28 C29 
H30 C31 C32 H33 C34 H35 H36 C37 C38 C39 C40 O41 C42 C43 C44 C45 C46 C47 C48 C49 
H50 C51 H52 C53 H54 C55 H56 C57 C58 H59 H60 H61 H62 N63 N64 C65 H66 N67 C68 H69 
C70 C71 C72 C73 H74 C75 C76 H77 C78 C79 C80 C81 C82 C83 C84 C85 C86 C87 C88 C89 
C90 H91 C92 H93 H94 C95 H96 C97 C98 H99 C100H101C102H103C104H105C106H107C108H109
C110H111C112H113C114H115H116C117H118H119H120C121H122C123H124H125C126H127H128C129
H130H131O132O133O134O135O136O137C138C139C140C141C142C143H144H145H146H147H148H149
H150H151H152H153H154H155H156H157H158H159H160H161O1  C2  C3  C4  C5  H6  H7  H8  
C9  H10 C11 H12 C13 H14 H15 N16 C17 C18 C19 C20 C21 C22 C23 H24 C25 H26 C27 H28 
C29 H30 C31 C32 H33 C34 H35 H36 C37 C38 C39 C40 O41 C42 C43 C44 C45 C46 C47 C48 
C49 H50 C51 H52 C53 H54 C55 H56 C57 C58 H59 H60 H61 H62 N63 N64 C65 H66 N67 C68 
H69 C70 C71 C72 C73 H74 C75 C76 H77 C78 C79 C80 C81 C82 C83 C84 C85 C86 C87 C88 
C89 C90 H91 C92 H93 H94 C95 H96 C97 C98 H99 C100H101C102H103C104H105C106H107C108
H109C110H111C112H113C114H115H116C117H118H119H120C121H122C123H124H125C126H127H128
C129H130H131O132O133O134O135O136O137C138C139C140C141C142C143H144H145H146H147H148
H149H150H151H152H153H154H155H156H157H158H159H160H161O1  C2  C3  C4  C5  H6  H7  
H8  C9  H10 C11 H12 C13 H14 H15 N16 C17 C18 C19 C20 C21 C22 C23 H24 C25 H26 C27 
H28 C29 H30 C31 C32 H33 C34 H35 H36 C37 C38 C39 C40 O41 C42 C43 C44 C45 C46 C47 
C48 C49 H50 C51 H52 C53 H54 C55 H56 C57 C58 H59 H60 H61 H62 N63 N64 C65 H66 N67 
C68 H69 C70 C71 C72 C73 H74 C75 C76 H77 C78 C79 C80 C81 C82 C83 C84 C85 C86 C87 
C88 C89 C90 H91 C92 H93 H94 C95 H96 C97 C98 H99 C100H101C102H103C104H105C106H107
C108H109C110H111C112H113C114H115H116C117H118H119H120C121H122C123H124H125C126H127
H128C129H130H131O132O133O134O135O136O137C138C139C140C141C142C143H144H145H146H147
H148H149H150H151H152H153H154H155H156H157H158H159H160H161O1  C2  C3  C4  C5  H6  
H7  H8  C9  H10 C11 H12 C13 H14 H15 N16 C17 C18 C19 C20 C21 C22 C23 H24 C25 H26 
C27 H28 C29 H30 C31 C32 H33 C34 H35 H36 C37 C38 C39 C40 O41 C42 C43 C44 C45 C46 
C47 C48 C49 H50 C51 H52 C53 H54 C55 H56 C57 C58 H59 H60 H61 H62 N63 N64 C65 H66 
N67 C68 H69 C70 C71 C72 C73 H74 C75 C76 H77 C78 C79 C80 C81 C82 C83 C84 C85 C86 
C87 C88 C89 C90 H91 C92 H93 H94 C95 H96 C97 C98 H99 C100H101C102H103C104H105C106
H107C108H109C110H111C112H113C114H115H116C117H118H119H120C121H122C123H124H125C126
H127H128C129H130H131O132O133O134O135O136O137C138C139C140C141C142C143H144H145H146
H147H148H149H150H151H152H153H154H155H156H157H158H159H160H161O1  C2  C3  C4  C5  
H6  H7  H8  C9  H10 C11 H12 C13 H14 H15 N16 C17 C18 C19 C20 C21 C22 C23 H24 C25 
H26 C27 H28 C29 H30 C31 C32 H33 C34 H35 H36 C37 C38 C39 C40 O41 C42 C43 C44 C45 
C46 C47 C48 C49 H50 C51 H52 C53 H54 C55 H56 C57 C58 H59 H60 H61 H62 N63 N64 C65 
H66 N67 C68 H69 C70 C71 C72 C73 H74 C75 C76 H77 C78 C79 C80 C81 C82 C83 C84 C85 
C86 C87 C88 C89 C90 H91 C92 H93 H94 C95 H96 C97 C98 H99 C100H101C102H103C104H105
C106H107C108H109C110H111C112H113C114H115H116C117H118H119H120C121H122C123H124H125
C126H127H128C129H130H131O132O133O134O135O136O137C138C139C140C141C142C143H144H145
H146H147H148H149H150H151H152H153H154H155H156H157H158H159H160H161O1  C2  C3  C4  
C5  H6  H7  H8  C9  H10 C11 H12 C13 H14 H15 N16 C17 C18 C19 C20 C21 C22 C23 H24 
C25 H26 C27 H28 C29 H30 C31 C32 H33 C34 H35 H36 C37 C38 C39 C40 O41 C42 C43 C44 
C45 C46 C47 C48 C49 H50 C51 H52 C53 H54 C55 H56 C57 C58 H59 H60 H61 H62 N63 N64 
C65 H66 N67 C68 H69 C70 C71 C72 C73 H74 C75 C76 H77 C78 C79 C80 C81 C82 C83 C84 
C85 C86 C87 C88 C89 C90 H91 C92 H93 H94 C95 H96 C97 C98 H99 C100H101C102H103C104
H105C106H107C108H109C110H111C112H113C114H115H116C117H118H119H120C121H122C123H124
H125C126H127H128C129H130H131O132O133O134O135O136O137C138C139C140C141C142C143H144
H145H146H147H148H149H150H151H152H153H154H155H156H157H158H159H160H161O1  C2  C3  
C4  C5  H6  H7  H8  C9  H10 C11 H12 C13 H14 H15 N16 C17 C18 C19 C20 C21 C22 C23 
H24 C25 H26 C27 H28 C29 H30 C31 C32 H33 C34 H35 H36 C37 C38 C39 C40 O41 C42 C43 
C44 C45 C46 C47 C48 C49 H50 C51 H52 C53 H54 C55 H56 C57 C58 H59 H60 H61 H62 N63 
N64 C65 H66 N67 C68 H69 C70 C71 C72 C73 H74 C75 C76 H77 C78 C79 C80 C81 C82 C83 
C84 C85 C86 C87 C88 C89 C90 H91 C92 H93 H94 C95 H96 C97 C98 H99 C100H101C102H103
C104H105C106H107C108H109C110H111C112H113C114H115H116C117H118H119H120C121H122C123
H124H125C126H127H128C129H130H131O132O133O134O135O136O137C138C139C140C141C142C143
H144H145H146H147H148H149H150H151H152H153H154H155H156H157H158H159H160H161O1  C2  
C3  C4  C5  H6  H7  H8  C9  H10 C11 H12 C13 H14 H15 N16 C17 C18 C19 C20 C21 C22 
C23 H24 C25 H26 C27 H28 C29 H30 C31 C32 H33 C34 H35 H36 C37 C38 C39 C40 O41 C42 
C43 C44 C45 C46 C47 C48 C49 H50 C51 H52 C53 H54 C55 H56 C57 C58 H59 H60 H61 H62 
N63 N64 C65 H66 N67 C68 H69 C70 C71 C72 C73 H74 C75 C76 H77 C78 C79 C80 C81 C82 
C83 C84 C85 C86 C87 C88 C89 C90 H91 C92 H93 H94 C95 H96 C97 C98 H99 C100H101C102
H103C104H105C106H107C108H109C110H111C112H113C114H115H116C117H118H119H120C121H122
C123H124H125C126H127H128C129H130H131O132O133O134O135O136O137C138C139C140C141C142
C143H144H145H146H147H148H149H150H151H152H153H154H155H156H157H158H159H160H161O1  
C2  C3  C4  C5  H6  H7  H8  C9  H10 C11 H12 C13 H14 H15 N16 C17 C18 C19 C20 C21 
C22 C23 H24 C25 H26 C27 H28 C29 H30 C31 C32 H33 C34 H35 H36 C37 C38 C39 C40 O41 
C42 C43 C44 C45 C46 C47 C48 C49 H50 C51 H52 C53 H54 C55 H56 C57 C58 H59 H60 H61 
H62 N63 N64 C65 H66 N67 C68 H69 C70 C71 C72 C73 H74 C75 C76 H77 C78 C79 C80 C81 
C82 C83 C84 C85 C86 C87 C88 C89 C90 H91 C92 H93 H94 C95 H96 C97 C98 H99 C100H101
C102H103C104H105C106H107C108H109C110H111C112H113C114H115H116C117H118H119H120C121
H122C123H124H125C126H127H128C129H130H131O132O133O134O135O136O137C138C139C140C141
C142C143H144H145H146H147H148H149H150H151H152H153H154H155H156H157H158H159H160H161
O1  C2  C3  C4  C5  H6  H7  H8  C9  H10 C11 H12 C13 H14 H15 N16 C17 C18 C19 C20 
C21 C22 C23 H24 C25 H26 C27 H28 C29 H30 C31 C32 H33 C34 H35 H36 C37 C38 C39 C40 
O41 C42 C43 C44 C45 C46 C47 C48 C49 H50 C51 H52 C53 H54 C55 H56 C57 C58 H59 H60 
H61 H62 N63 N64 C65 H66 N67 C68 H69 C70 C71 C72 C73 H74 C75 C76 H77 C78 C79 C80 
C81 C82 C83 C84 C85 C86 C87 C88 C89 C90 H91 C92 H93 H94 C95 H96 C97 C98 H99 C100
H101C102H103C104H105C106H107C108H109C110H111C112H113C114H115H116C117H118H119H120
C121H122C123H124H125C126H127H128C129H130H131O132O133O134O135O136O137C138C139C140
C141C142C143H144H145H146H147H148H149H150H151H152H153H154H155H156H157H158H159H160
H161O1  C2  C3  C4  C5  H6  H7  H8  C9  H10 C11 H12 C13 H14 H15 N16 C17 C18 C19 
C20 C21 C22 C23 H24 C25 H26 C27 H28 C29 H30 C31 C32 H33 C34 H35 H36 C37 C38 C39 
C40 O41 C42 C43 C44 C45 C46 C47 C48 C49 H50 C51 H52 C53 H54 C55 H56 C57 C58 H59 
H60 H61 H62 N63 N64 C65 H66 N67 C68 H69 C70 C71 C72 C73 H74 C75 C76 H77 C78 C79 
C80 C81 C82 C83 C84 C85 C86 C87 C88 C89 C90 H91 C92 H93 H94 C95 H96 C97 C98 H99 
C100H101C102H103C104H105C106H107C108H109C110H111C112H113C114H115H116C117H118H119
H120C121H122C123H124H125C126H127H128C129H130H131O132O133O134O135O136O137C138C139
C140C141C142C143H144H145H146H147H148H149H150H151H152H153H154H155H156H157H158H159
H160H161O1  C2  C3  C4  C5  H6  H7  H8  C9  H10 C11 H12 C13 H14 H15 N16 C17 C18 
C19 C20 C21 C22 C23 H24 C25 H26 C27 H28 C29 H30 C31 C32 H33 C34 H35 H36 C37 C38 
C39 C40 O41 C42 C43 C44 C45 C46 C47 C48 C49 H50 C51 H52 C53 H54 C55 H56 C57 C58 
H59 H60 H61 H62 N63 N64 C65 H66 N67 C68 H69 C70 C71 C72 C73 H74 C75 C76 H77 C78 
C79 C80 C81 C82 C83 C84 C85 C86 C87 C88 C89 C90 H91 C92 H93 H94 C95 H96 C97 C98 
H99 C100H101C102H103C104H105C106H107C108H109C110H111C112H113C114H115H116C117H118
H119H120C121H122C123H124H125C126H127H128C129H130H131O132O133O134O135O136O137C138
C139C140C141C142C143H144H145H146H147H148H149H150H151H152H153H154H155H156H157H158
H159H160H161O1  C2  C3  C4  C5  H6  H7  H8  C9  H10 C11 H12 C13 H14 H15 N16 C17 
C18 C19 C20 C21 C22 C23 H24 C25 H26 C27 H28 C29 H30 C31 C32 H33 C34 H35 H36 C37 
C38 C39 C40 O41 C42 C43 C44 C45 C46 C47 C48 C49 H50 C51 H52 C53 H54 C55 H56 C57 
C58 H59 H60 H61 H62 N63 N64 C65 H66 N67 C68 H69 C70 C71 C72 C73 H74 C75 C76 H77 
C78 C79 C80 C81 C82 C83 C84 C85 C86 C87 C88 C89 C90 H91 C92 H93 H94 C95 H96 C97 
C98 H99 C100H101C102H103C104H105C106H107C108H109C110H111C112H113C114H115H116C117
H118H119H120C121H122C123H124H125C126H127H128C129H130H131O132O133O134O135O136O137
C138C139C140C141C142C143H144H145H146H147H148H149H150H151H152H153H154H155H156H157
H158H159H160H161O1  C2  C3  C4  C5  H6  H7  H8  C9  H10 C11 H12 C13 H14 H15 N16 
C17 C18 C19 C20 C21 C22 C23 H24 C25 H26 C27 H28 C29 H30 C31 C32 H33 C34 H35 H36 
C37 C38 C39 C40 O41 C42 C43 C44 C45 C46 C47 C48 C49 H50 C51 H52 C53 H54 C55 H56 
C57 C58 H59 H60 H61 H62 N63 N64 C65 H66 N67 C68 H69 C70 C71 C72 C73 H74 C75 C76 
H77 C78 C79 C80 C81 C82 C83 C84 C85 C86 C87 C88 C89 C90 H91 C92 H93 H94 C95 H96 
C97 C98 H99 C100H101C102H103C104H105C106H107C108H109C110H111C112H113C114H115H116
C117H118H119H120C121H122C123H124H125C126H127H128C129H130H131O132O133O134O135O136
O137C138C139C140C141C142C143H144H145H146H147H148H149H150H151H152H153H154H155H156
H157H158H159H160H161O1  C2  C3  C4  C5  H6  H7  H8  C9  H10 C11 H12 C13 H14 H15 
N16 C17 C18 C19 C20 C21 C22 C23 H24 C25 H26 C27 H28 C29 H30 C31 C32 H33 C34 H35 
H36 C37 C38 C39 C40 O41 C42 C43 C44 C45 C46 C47 C48 C49 H50 C51 H52 C53 H54 C55 
H56 C57 C58 H59 H60 H61 H62 N63 N64 C65 H66 N67 C68 H69 C70 C71 C72 C73 H74 C75 
C76 H77 C78 C79 C80 C81 C82 C83 C84 C85 C86 C87 C88 C89 C90 H91 C92 H93 H94 C95 
H96 C97 C98 H99 C100H101C102H103C104H105C106H107C108H109C110H111C112H113C114H115
H116C117H118H119H120C121H122C123H124H125C126H127H128C129H130H131O132O133O134O135
O136O137C138C139C140C141C142C143H144H145H146H147H148H149H150H151H152H153H154H155
H156H157H158H159H160H161O1  C2  C3  C4  C5  H6  H7  H8  C9  H10 C11 H12 C13 H14 
H15 N16 C17 C18 C19 C20 C21 C22 C23 H24 C25 H26 C27 H28 C29 H30 C31 C32 H33 C34 
H35 H36 C37 C38 C39 C40 O41 C42 C43 C44 C45 C46 C47 C48 C49 H50 C51 H52 C53 H54 
C55 H56 C57 C58 H59 H60 H61 H62 N63 N64 C65 H66 N67 C68 H69 C70 C71 C72 C73 H74 
C75 C76 H77 C78 C79 C80 C81 C82 C83 C84 C85 C86 C87 C88 C89 C90 H91 C92 H93 H94 
C95 H96 C97 C98 H99 C100H101C102H103C104H105C106H107C108H109C110H111C112H113C114
H115H116C117H118H119H120C121H122C123H124H125C126H127H128C129H130H131O132O133O134
O135O136O137C138C139C140C141C142C143H144H145H146H147H148H149H150H151H152H153H154
H155H156H157H158H159H160H161O1  C2  C3  C4  C5  H6  H7  H8  C9  H10 C11 H12 C13 
H14 H15 N16 C17 C18 C19 C20 C21 C22 C23 H24 C25 H26 C27 H28 C29 H30 C31 C32 H33 
C34 H35 H36 C37 C38 C39 C40 O41 C42 C43 C44 C45 C46 C47 C48 C49 H50 C51 H52 C53 
H54 C55 H56 C57 C58 H59 H60 H61 H62 N63 N64 C65 H66 N67 C68 H69 C70 C71 C72 C73 
H74 C75 C76 H77 C78 C79 C80 C81 C82 C83 C84 C85 C86 C87 C88 C89 C90 H91 C92 H93 
H94 C95 H96 C97 C98 H99 C100H101C102H103C104H105C106H107C108H109C110H111C112H113
C114H115H116C117H118H119H120C121H122C123H124H125C126H127H128C129H130H131O132O133
O134O135O136O137C138C139C140C141C142C143H144H145H146H147H148H149H150H151H152H153
H154H155H156H157H158H159H160H161O1  C2  C3  C4  C5  H6  H7  H8  C9  H10 C11 H12 
C13 H14 H15 N16 C17 C18 C19 C20 C21 C22 C23 H24 C25 H26 C27 H28 C29 H30 C31 C32 
H33 C34 H35 H36 C37 C38 C39 C40 O41 C42 C43 C44 C45 C46 C47 C48 C49 H50 C51 H52 
C53 H54 C55 H56 C57 C58 H59 H60 H61 H62 N63 N64 C65 H66 N67 C68 H69 C70 C71 C72 
C73 H74 C75 C76 H77 C78 C79 C80 C81 C82 C83 C84 C85 C86 C87 C88 C89 C90 H91 C92 
H93 H94 C95 H96 C97 C98 H99 C100H101C102H103C104H105C106H107C108H109C110H111C112
H113C114H115H116C117H118H119H120C121H122C123H124H125C126H127H128C129H130H131O132
O133O134O135O136O137C138C139C140C141C142C143H144H145H146H147H148H149H150H151H152
H153H154H155H156H157H158H159H160H161O1  C2  C3  C4  C5  H6  H7  H8  C9  H10 C11 
H12 C13 H14 H15 N16 C17 C18 C19 C20 C21 C22 C23 H24 C25 H26 C27 H28 C29 H30 C31 
C32 H33 C34 H35 H36 C37 C38 C39 C40 O41 C42 C43 C44 C45 C46 C47 C48 C49 H50 C51 
H52 C53 H54 C55 H56 C57 C58 H59 H60 H61 H62 N63 N64 C65 H66 N67 C68 H69 C70 C71 
C72 C73 H74 C75 C76 H77 C78 C79 C80 C81 C82 C83 C84 C85 C86 C87 C88 C89 C90 H91 
C92 H93 H94 C95 H96 C97 C98 H99 C100H101C102H103C104H105C106H107C108H109C110H111
C112H113C114H115H116C117H118H119H120C121H122C123H124H125C126H127H128C129H130H131
O132O133O134O135O136O137C138C139C140C141C142C143H144H145H146H147H148H149H150H151
H152H153H154H155H156H157H158H159H160H161O1  C2  C3  C4  C5  H6  H7  H8  C9  H10 
C11 H12 C13 H14 H15 N16 C17 C18 C19 C20 C21 C22 C23 H24 C25 H26 C27 H28 C29 H30 
C31 C32 H33 C34 H35 H36 C37 C38 C39 C40 O41 C42 C43 C44 C45 C46 C47 C48 C49 H50 
C51 H52 C53 H54 C55 H56 C57 C58 H59 H60 H61 H62 N63 N64 C65 H66 N67 C68 H69 C70 
C71 C72 C73 H74 C75 C76 H77 C78 C79 C80 C81 C82 C83 C84 C85 C86 C87 C88 C89 C90 
H91 C92 H93 H94 C95 H96 C97 C98 H99 C100H101C102H103C104H105C106H107C108H109C110
H111C112H113C114H115H116C117H118H119H120C121H122C123H124H125C126H127H128C129H130
H131O132O133O134O135O136O137C138C139C140C141C142C143H144H145H146H147H148H149H150
H151H152H153H154H155H156H157H158H159H160H161O1  C2  C3  C4  C5  H6  H7  H8  C9  
H10 C11 H12 C13 H14 H15 N16 C17 C18 C19 C20 C21 C22 C23 H24 C25 H26 C27 H28 C29 
H30 C31 C32 H33 C34 H35 H36 C37 C38 C39 C40 O41 C42 C43 C44 C45 C46 C47 C48 C49 
H50 C51 H52 C53 H54 C55 H56 C57 C58 H59 H60 H61 H62 N63 N64 C65 H66 N67 C68 H69 
C70 C71 C72 C73 H74 C75 C76 H77 C78 C79 C80 C81 C82 C83 C84 C85 C86 C87 C88 C89 
C90 H91 C92 H93 H94 C95 H96 C97 C98 H99 C100H101C102H103C104H105C106H107C108H109
C110H111C112H113C114H115H116C117H118H119H120C121H122C123H124H125C126H127H128C129
H130H131O132O133O134O135O136O137C138C139C140C141C142C143H144H145H146H147H148H149
H150H151H152H153H154H155H156H157H158H159H160H161O1  C2  C3  C4  C5  H6  H7  H8  
C9  H10 C11 H12 C13 H14 H15 N16 C17 C18 C19 C20 C21 C22 C23 H24 C25 H26 C27 H28 
C29 H30 C31 C32 H33 C34 H35 H36 C37 C38 C39 C40 O41 C42 C43 C44 C45 C46 C47 C48 
C49 H50 C51 H52 C53 H54 C55 H56 C57 C58 H59 H60 H61 H62 N63 N64 C65 H66 N67 C68 
H69 C70 C71 C72 C73 H74 C75 C76 H77 C78 C79 C80 C81 C82 C83 C84 C85 C86 C87 C88 
C89 C90 H91 C92 H93 H94 C95 H96 C97 C98 H99 C100H101C102H103C104H105C106H107C108
H109C110H111C112H113C114H115H116C117H118H119H120C121H122C123H124H125C126H127H128
C129H130H131O132O133O134O135O136O137C138C139C140C141C142C143H144H145H146H147H148
H149H150H151H152H153H154H155H156H157H158H159H160H161O1  C2  C3  C4  C5  H6  H7  
H8  C9  H10 C11 H12 C13 H14 H15 N16 C17 C18 C19 C20 C21 C22 C23 H24 C25 H26 C27 
H28 C29 H30 C31 C32 H33 C34 H35 H36 C37 C38 C39 C40 O41 C42 C43 C44 C45 C46 C47 
C48 C49 H50 C51 H52 C53 H54 C55 H56 C57 C58 H59 H60 H61 H62 N63 N64 C65 H66 N67 
C68 H69 C70 C71 C72 C73 H74 C75 C76 H77 C78 C79 C80 C81 C82 C83 C84 C85 C86 C87 
C88 C89 C90 H91 C92 H93 H94 C95 H96 C97 C98 H99 C100H101C102H103C104H105C106H107
C108H109C110H111C112H113C114H115H116C117H118H119H120C121H122C123H124H125C126H127
H128C129H130H131O132O133O134O135O136O137C138C139C140C141C142C143H144H145H146H147
H148H149H150H151H152H153H154H155H156H157H158H159H160H161O1  C2  C3  C4  C5  H6  
H7  H8  C9  H10 C11 H12 C13 H14 H15 N16 C17 C18 C19 C20 C21 C22 C23 H24 C25 H26 
C27 H28 C29 H30 C31 C32 H33 C34 H35 H36 C37 C38 C39 C40 O41 C42 C43 C44 C45 C46 
C47 C48 C49 H50 C51 H52 C53 H54 C55 H56 C57 C58 H59 H60 H61 H62 N63 N64 C65 H66 
N67 C68 H69 C70 C71 C72 C73 H74 C75 C76 H77 C78 C79 C80 C81 C82 C83 C84 C85 C86 
C87 C88 C89 C90 H91 C92 H93 H94 C95 H96 C97 C98 H99 C100H101C102H103C104H105C106
H107C108H109C110H111C112H113C114H115H116C117H118H119H120C121H122C123H124H125C126
H127H128C129H130H131O132O133O134O135O136O137C138C139C140C141C142C143H144H145H146
H147H148H149H150H151H152H153H154H155H156H157H158H159H160H161O1  C2  C3  C4  C5  
H6  H7  H8  C9  H10 C11 H12 C13 H14 H15 N16 C17 C18 C19 C20 C21 C22 C23 H24 C25 
H26 C27 H28 C29 H30 C31 C32 H33 C34 H35 H36 C37 C38 C39 C40 O41 C42 C43 C44 C45 
C46 C47 C48 C49 H50 C51 H52 C53 H54 C55 H56 C57 C58 H59 H60 H61 H62 N63 N64 C65 
H66 N67 C68 H69 C70 C71 C72 C73 H74 C75 C76 H77 C78 C79 C80 C81 C82 C83 C84 C85 
C86 C87 C88 C89 C90 H91 C92 H93 H94 C95 H96 C97 C98 H99 C100H101C102H103C104H105
C106H107C108H109C110H111C112H113C114H115H116C117H118H119H120C121H122C123H124H125
C126H127H128C129H130H131O132O133O134O135O136O137C138C139C140C141C142C143H144H145
H146H147H148H149H150H151H152H153H154H155H156H157H158H159H160H161O1  C2  C3  C4  
C5  H6  H7  H8  C9  H10 C11 H12 C13 H14 H15 N16 C17 C18 C19 C20 C21 C22 C23 H24 
C25 H26 C27 H28 C29 H30 C31 C32 H33 C34 H35 H36 C37 C38 C39 C40 O41 C42 C43 C44 
C45 C46 C47 C48 C49 H50 C51 H52 C53 H54 C55 H56 C57 C58 H59 H60 H61 H62 N63 N64 
C65 H66 N67 C68 H69 C70 C71 C72 C73 H74 C75 C76 H77 C78 C79 C80 C81 C82 C83 C84 
C85 C86 C87 C88 C89 C90 H91 C92 H93 H94 C95 H96 C97 C98 H99 C100H101C102H103C104
H105C106H107C108H109C110H111C112H113C114H115H116C117H118H119H120C121H122C123H124
H125C126H127H128C129H130H131O132O133O134O135O136O137C138C139C140C141C142C143H144
H145H146H147H148H149H150H151H152H153H154H155H156H157H158H159H160H161O1  C2  C3  
C4  C5  H6  H7  H8  C9  H10 C11 H12 C13 H14 H15 N16 C17 C18 C19 C20 C21 C22 C23 
H24 C25 H26 C27 H28 C29 H30 C31 C32 H33 C34 H35 H36 C37 C38 C39 C40 O41 C42 C43 
C44 C45 C46 C47 C48 C49 H50 C51 H52 C53 H54 C55 H56 C57 C58 H59 H60 H61 H62 N63 
N64 C65 H66 N67 C68 H69 C70 C71 C72 C73 H74 C75 C76 H77 C78 C79 C80 C81 C82 C83 
C84 C85 C86 C87 C88 C89 C90 H91 C92 H93 H94 C95 H96 C97 C98 H99 C100H101C102H103
C104H105C106H107C108H109C110H111C112H113C114H115H116C117H118H119H120C121H122C123
H124H125C126H127H128C129H130H131O132O133O134O135O136O137C138C139C140C141C142C143
H144H145H146H147H148H149H150H151H152H153H154H155H156H157H158H159H160H161O1  C2  
C3  C4  C5  H6  H7  H8  C9  H10 C11 H12 C13 H14 H15 N16 C17 C18 C19 C20 C21 C22 
C23 H24 C25 H26 C27 H28 C29 H30 C31 C32 H33 C34 H35 H36 C37 C38 C39 C40 O41 C42 
C43 C44 C45 C46 C47 C48 C49 H50 C51 H52 C53 H54 C55 H56 C57 C58 H59 H60 H61 H62 
N63 N64 C65 H66 N67 C68 H69 C70 C71 C72 C73 H74 C75 C76 H77 C78 C79 C80 C81 C82 
C83 C84 C85 C86 C87 C88 C89 C90 H91 C92 H93 H94 C95 H96 C97 C98 H99 C100H101C102
H103C104H105C106H107C108H109C110H111C112H113C114H115H116C117H118H119H120C121H122
C123H124H125C126H127H128C129H130H131O132O133O134O135O136O137C138C139C140C141C142
C143H144H145H146H147H148H149H150H151H152H153H154H155H156H157H158H159H160H161O1  
C2  C3  C4  C5  H6  H7  H8  C9  H10 C11 H12 C13 H14 H15 N16 C17 C18 C19 C20 C21 
C22 C23 H24 C25 H26 C27 H28 C29 H30 C31 C32 H33 C34 H35 H36 C37 C38 C39 C40 O41 
C42 C43 C44 C45 C46 C47 C48 C49 H50 C51 H52 C53 H54 C55 H56 C57 C58 H59 H60 H61 
H62 N63 N64 C65 H66 N67 C68 H69 C70 C71 C72 C73 H74 C75 C76 H77 C78 C79 C80 C81 
C82 C83 C84 C85 C86 C87 C88 C89 C90 H91 C92 H93 H94 C95 H96 C97 C98 H99 C100H101
C102H103C104H105C106H107C108H109C110H111C112H113C114H115H116C117H118H119H120C121
H122C123H124H125C126H127H128C129H130H131O132O133O134O135O136O137C138C139C140C141
C142C143H144H145H146H147H148H149H150H151H152H153H154H155H156H157H158H159H160H161
O1  C2  C3  C4  C5  H6  H7  H8  C9  H10 C11 H12 C13 H14 H15 N16 C17 C18 C19 C20 
C21 C22 C23 H24 C25 H26 C27 H28 C29 H30 C31 C32 H33 C34 H35 H36 C37 C38 C39 C40 
O41 C42 C43 C44 C45 C46 C47 C48 C49 H50 C51 H52 C53 H54 C55 H56 C57 C58 H59 H60 
H61 H62 N63 N64 C65 H66 N67 C68 H69 C70 C71 C72 C73 H74 C75 C76 H77 C78 C79 C80 
C81 C82 C83 C84 C85 C86 C87 C88 C89 C90 H91 C92 H93 H94 C95 H96 C97 C98 H99 C100
H101C102H103C104H105C106H107C108H109C110H111C112H113C114H115H116C117H118H119H120
C121H122C123H124H125C126H127H128C129H130H131O132O133O134O135O136O137C138C139C140
C141C142C143H144H145H146H147H148H149H150H151H152H153H154H155H156H157H158H159H160
H161O1  C2  C3  C4  C5  H6  H7  H8  C9  H10 C11 H12 C13 H14 H15 N16 C17 C18 C19 
C20 C21 C22 C23 H24 C25 H26 C27 H28 C29 H30 C31 C32 H33 C34 H35 H36 C37 C38 C39 
C40 O41 C42 C43 C44 C45 C46 C47 C48 C49 H50 C51 H52 C53 H54 C55 H56 C57 C58 H59 
H60 H61 H62 N63 N64 C65 H66 N67 C68 H69 C70 C71 C72 C73 H74 C75 C76 H77 C78 C79 
C80 C81 C82 C83 C84 C85 C86 C87 C88 C89 C90 H91 C92 H93 H94 C95 H96 C97 C98 H99 
C100H101C102H103C104H105C106H107C108H109C110H111C112H113C114H115H116C117H118H119
H120C121H122C123H124H125C126H127H128C129H130H131O132O133O134O135O136O137C138C139
C140C141C142C143H144H145H146H147H148H149H150H151H152H153H154H155H156H157H158H159
H160H161O1  C2  C3  C4  C5  H6  H7  H8  C9  H10 C11 H12 C13 H14 H15 N16 C17 C18 
C19 C20 C21 C22 C23 H24 C25 H26 C27 H28 C29 H30 C31 C32 H33 C34 H35 H36 C37 C38 
C39 C40 O41 C42 C43 C44 C45 C46 C47 C48 C49 H50 C51 H52 C53 H54 C55 H56 C57 C58 
H59 H60 H61 H62 N63 N64 C65 H66 N67 C68 H69 C70 C71 C72 C73 H74 C75 C76 H77 C78 
C79 C80 C81 C82 C83 C84 C85 C86 C87 C88 C89 C90 H91 C92 H93 H94 C95 H96 C97 C98 
H99 C100H101C102H103C104H105C106H107C108H109C110H111C112H113C114H115H116C117H118
H119H120C121H122C123H124H125C126H127H128C129H130H131O132O133O134O135O136O137C138
C139C140C141C142C143H144H145H146H147H148H149H150H151H152H153H154H155H156H157H158
H159H160H161O1  C2  C3  C4  C5  H6  H7  H8  C9  H10 C11 H12 C13 H14 H15 N16 C17 
C18 C19 C20 C21 C22 C23 H24 C25 H26 C27 H28 C29 H30 C31 C32 H33 C34 H35 H36 C37 
C38 C39 C40 O41 C42 C43 C44 C45 C46 C47 C48 C49 H50 C51 H52 C53 H54 C55 H56 C57 
C58 H59 H60 H61 H62 N63 N64 C65 H66 N67 C68 H69 C70 C71 C72 C73 H74 C75 C76 H77 
C78 C79 C80 C81 C82 C83 C84 C85 C86 C87 C88 C89 C90 H91 C92 H93 H94 C95 H96 C97 
C98 H99 C100H101C102H103C104H105C106H107C108H109C110H111C112H113C114H115H116C117
H118H119H120C121H122C123H124H125C126H127H128C129H130H131O132O133O134O135O136O137
C138C139C140C141C142C143H144H145H146H147H148H149H150H151H152H153H154H155H156H157
H158H159H160H161O1  C2  C3  C4  C5  H6  H7  H8  C9  H10 C11 H12 C13 H14 H15 N16 
C17 C18 C19 C20 C21 C22 C23 H24 C25 H26 C27 H28 C29 H30 C31 C32 H33 C34 H35 H36 
C37 C38 C39 C40 O41 C42 C43 C44 C45 C46 C47 C48 C49 H50 C51 H52 C53 H54 C55 H56 
C57 C58 H59 H60 H61 H62 N63 N64 C65 H66 N67 C68 H69 C70 C71 C72 C73 H74 C75 C76 
H77 C78 C79 C80 C81 C82 C83 C84 C85 C86 C87 C88 C89 C90 H91 C92 H93 H94 C95 H96 
C97 C98 H99 C100H101C102H103C104H105C106H107C108H109C110H111C112H113C114H115H116
C117H118H119H120C121H122C123H124H125C126H127H128C129H130H131O132O133O134O135O136
O137C138C139C140C141C142C143H144H145H146H147H148H149H150H151H152H153H154H155H156
H157H158H159H160H161O1  C2  C3  C4  C5  H6  H7  H8  C9  H10 C11 H12 C13 H14 H15 
N16 C17 C18 C19 C20 C21 C22 C23 H24 C25 H26 C27 H28 C29 H30 C31 C32 H33 C34 H35 
H36 C37 C38 C39 C40 O41 C42 C43 C44 C45 C46 C47 C48 C49 H50 C51 H52 C53 H54 C55 
H56 C57 C58 H59 H60 H61 H62 N63 N64 C65 H66 N67 C68 H69 C70 C71 C72 C73 H74 C75 
C76 H77 C78 C79 C80 C81 C82 C83 C84 C85 C86 C87 C88 C89 C90 H91 C92 H93 H94 C95 
H96 C97 C98 H99 C100H101C102H103C104H105C106H107C108H109C110H111C112H113C114H115
H116C117H118H119H120C121H122C123H124H125C126H127H128C129H130H131O132O133O134O135
O136O137C138C139C140C141C142C143H144H145H146H147H148H149H150H151H152H153H154H155
H156H157H158H159H160H161O1  C2  C3  C4  C5  H6  H7  H8  C9  H10 C11 H12 C13 H14 
H15 N16 C17 C18 C19 C20 C21 C22 C23 H24 C25 H26 C27 H28 C29 H30 C31 C32 H33 C34 
H35 H36 C37 C38 C39 C40 O41 C42 C43 C44 C45 C46 C47 C48 C49 H50 C51 H52 C53 H54 
C55 H56 C57 C58 H59 H60 H61 H62 N63 N64 C65 H66 N67 C68 H69 C70 C71 C72 C73 H74 
C75 C76 H77 C78 C79 C80 C81 C82 C83 C84 C85 C86 C87 C88 C89 C90 H91 C92 H93 H94 
C95 H96 C97 C98 H99 C100H101C102H103C104H105C106H107C108H109C110H111C112H113C114
H115H116C117H118H119H120C121H122C123H124H125C126H127H128C129H130H131O132O133O134
O135O136O137C138C139C140C141C142C143H144H145H146H147H148H149H150H151H152H153H154
H155H156H157H158H159H160H161O1  C2  C3  C4  C5  H6  H7  H8  C9  H10 C11 H12 C13 
H14 H15 N16 C17 C18 C19 C20 C21 C22 C23 H24 C25 H26 C27 H28 C29 H30 C31 C32 H33 
C34 H35 H36 C37 C38 C39 C40 O41 C42 C43 C44 C45 C46 C47 C48 C49 H50 C51 H52 C53 
H54 C55 H56 C57 C58 H59 H60 H61 H62 N63 N64 C65 H66 N67 C68 H69 C70 C71 C72 C73 
H74 C75 C76 H77 C78 C79 C80 C81 C82 C83 C84 C85 C86 C87 C88 C89 C90 H91 C92 H93 
H94 C95 H96 C97 C98 H99 C100H101C102H103C104H105C106H107C108H109C110H111C112H113
C114H115H116C117H118H119H120C121H122C123H124H125C126H127H128C129H130H131O132O133
O134O135O136O137C138C139C140C141C142C143H144H145H146H147H148H149H150H151H152H153
H154H155H156H157H158H159H160H161O1  C2  C3  C4  C5  H6  H7  H8  C9  H10 C11 H12 
C13 H14 H15 N16 C17 C18 C19 C20 C21 C22 C23 H24 C25 H26 C27 H28 C29 H30 C31 C32 
H33 C34 H35 H36 C37 C38 C39 C40 O41 C42 C43 C44 C45 C46 C47 C48 C49 H50 C51 H52 
C53 H54 C55 H56 C57 C58 H59 H60 H61 H62 N63 N64 C65 H66 N67 C68 H69 C70 C71 C72 
C73 H74 C75 C76 H77 C78 C79 C80 C81 C82 C83 C84 C85 C86 C87 C88 C89 C90 H91 C92 
H93 H94 C95 H96 C97 C98 H99 C100H101C102H103C104H105C106H107C108H109C110H111C112
H113C114H115H116C117H118H119H120C121H122C123H124H125C126H127H128C129H130H131O132
O133O134O135O136O137C138C139C140C141C142C143H144H145H146H147H148H149H150H151H152
H153H154H155H156H157H158H159H160H161O1  C2  C3  C4  C5  H6  H7  H8  C9  H10 C11 
H12 C13 H14 H15 N16 C17 C18 C19 C20 C21 C22 C23 H24 C25 H26 C27 H28 C29 H30 C31 
C32 H33 C34 H35 H36 C37 C38 C39 C40 O41 C42 C43 C44 C45 C46 C47 C48 C49 H50 C51 
H52 C53 H54 C55 H56 C57 C58 H59 H60 H61 H62 N63 N64 C65 H66 N67 C68 H69 C70 C71 
C72 C73 H74 C75 C76 H77 C78 C79 C80 C81 C82 C83 C84 C85 C86 C87 C88 C89 C90 H91 
C92 H93 H94 C95 H96 C97 C98 H99 C100H101C102H103C104H105C106H107C108H109C110H111
C112H113C114H115H116C117H118H119H120C121H122C123H124H125C126H127H128C129H130H131
O132O133O134O135O136O137C138C139C140C141C142C143H144H145H146H147H148H149H150H151
H152H153H154H155H156H157H158H159H160H161
%FLAG CHARGE                                                                    
%FORMAT(5E16.8)                                                                 
 -5.95686987E+00  1.91971931E+00  2.06276436E+00 -2.96680911E+00 -2.96680911E+00
  8.03913209E-01  8.03913209E-01  8.03913209E-01 -2.24932427E+00  2.64678908E+00
 -2.24932427E+00  2.64678908E+00  2.06094213E+00  2.69006704E+00  2.69006704E+00
 -7.92305604E+00  2.76705626E+00  2.06094213E+00 -2.40989918E+00 -2.95201260E+00
 -2.24932427E+00 -2.24932427E+00 -9.84915315E-01  2.86545667E+00 -1.59900683E+00
  2.65590022E+00 -2.96680911E+00  2.69006704E+00 -2.96680911E+00  2.69006704E+00
 -1.02044880E+00  2.46365496E+00  2.51012183E+00  1.91971931E+00  2.64678908E+00
  2.64678908E+00 -1.02044880E+00 -9.84915315E-01 -9.84915315E-01 -9.84915315E-01
 -5.95686987E+00 -1.59900683E+00 -2.40989918E+00 -2.40989918E+00 -1.02044880E+00
 -2.40989918E+00 -1.02044880E+00  2.06276436E+00 -2.95201260E+00  2.51012183E+00
  2.76705626E+00  2.86545667E+00  2.76705626E+00  2.86545667E+00 -1.59900683E+00
  2.86545667E+00  2.76705626E+00 -1.59900683E+00  8.03913209E-01  8.03913209E-01
  8.03913209E-01  2.65590022E+00 -7.92305604E+00 -7.92305604E+00 -2.95201260E+00
  2.51012183E+00 -7.92305604E+00 -2.95201260E+00  2.51012183E+00  2.06094213E+00
  2.06094213E+00  2.06094213E+00  2.06094213E+00  2.65590022E+00  2.06094213E+00
  2.06094213E+00  2.65590022E+00 -2.24932427E+00 -2.24932427E+00 -2.24932427E+00
 -2.24932427E+00 -2.24932427E+00 -2.24932427E+00 -2.24932427E+00 -2.24932427E+00
 -2.24932427E+00 -2.24932427E+00 -2.24932427E+00 -2.24932427E+00 -2.96680911E+00
  2.69006704E+00 -2.96680911E+00  2.69006704E+00  2.69006704E+00 -2.96680911E+00
  2.69006704E+00 -2.96680911E+00 -2.96680911E+00  2.69006704E+00 -2.96680911E+00
  2.69006704E+00 -2.96680911E+00  2.69006704E+00 -2.96680911E+00  2.69006704E+00
 -2.96680911E+00  2.69006704E+00 -2.96680911E+00  2.69006704E+00 -2.96680911E+00
  2.69006704E+00 -2.96680911E+00  2.69006704E+00  1.91971931E+00  2.64678908E+00
  2.64678908E+00  1.91971931E+00  2.64678908E+00  2.64678908E+00  2.64678908E+00
  1.91971931E+00  2.64678908E+00  1.91971931E+00  2.64678908E+00  2.64678908E+00
  1.91971931E+00  2.64678908E+00  2.64678908E+00  1.91971931E+00  2.64678908E+00
  2.64678908E+00 -5.95686987E+00 -5.95686987E+00 -5.95686987E+00 -5.95686987E+00
 -5.95686987E+00 -5.95686987E+00  2.06276436E+00  2.06276436E+00  2.06276436E+00
  2.06276436E+00  2.06276436E+00  2.06276436E+00  8.03913209E-01  8.03913209E-01
  8.03913209E-01  8.03913209E-01  8.03913209E-01  8.03913209E-01  8.03913209E-01
  8.03913209E-01  8.03913209E-01  8.03913209E-01  8.03913209E-01  8.03913209E-01
  8.03913209E-01  8.03913209E-01  8.03913209E-01  8.03913209E-01  8.03913209E-01
  8.03913209E-01 -5.95686987E+00  1.91971931E+00  2.06276436E+00 -2.96680911E+00
 -2.96680911E+00  8.03913209E-01  8.03913209E-01  8.03913209E-01 -2.24932427E+00
  2.64678908E+00 -2.24932427E+00  2.64678908E+00  2.06094213E+00  2.69006704E+00
  2.69006704E+00 -7.92305604E+00  2.76705626E+00  2.06094213E+00 -2.40989918E+00
 -2.95201260E+00 -2.24932427E+00 -2.24932427E+00 -9.84915315E-01  2.86545667E+00
 -1.59900683E+00  2.65590022E+00 -2.96680911E+00  2.69006704E+00 -2.96680911E+00
  2.69006704E+00 -1.02044880E+00  2.46365496E+00  2.51012183E+00  1.91971931E+00
  2.64678908E+00  2.64678908E+00 -1.02044880E+00 -9.84915315E-01 -9.84915315E-01
 -9.84915315E-01 -5.95686987E+00 -1.59900683E+00 -2.40989918E+00 -2.40989918E+00
 -1.02044880E+00 -2.40989918E+00 -1.02044880E+00  2.06276436E+00 -2.95201260E+00
  2.51012183E+00  2.76705626E+00  2.86545667E+00  2.76705626E+00  2.86545667E+00
 -1.59900683E+00  2.86545667E+00  2.76705626E+00 -1.59900683E+00  8.03913209E-01
  8.03913209E-01  8.03913209E-01  2.65590022E+00 -7.92305604E+00 -7.92305604E+00
 -2.95201260E+00  2.51012183E+00 -7.92305604E+00 -2.95201260E+00  2.51012183E+00
  2.06094213E+00  2.06094213E+00  2.06094213E+00  2.06094213E+00  2.65590022E+00
  2.06094213E+00  2.06094213E+00  2.65590022E+00 -2.24932427E+00 -2.24932427E+00
 -2.24932427E+00 -2.24932427E+00 -2.24932427E+00 -2.24932427E+00 -2.24932427E+00
 -2.24932427E+00 -2.24932427E+00 -2.24932427E+00 -2.24932427E+00 -2.24932427E+00
 -2.96680911E+00  2.69006704E+00 -2.96680911E+00  2.69006704E+00  2.69006704E+00
 -2.96680911E+00  2.69006704E+00 -2.96680911E+00 -2.96680911E+00  2.69006704E+00
 -2.96680911E+00  2.69006704E+00 -2.96680911E+00  2.69006704E+00 -2.96680911E+00
  2.69006704E+00 -2.96680911E+00  2.69006704E+00 -2.96680911E+00  2.69006704E+00
 -2.96680911E+00  2.69006704E+00 -2.96680911E+00  2.69006704E+00  1.91971931E+00
  2.64678908E+00  2.64678908E+00  1.91971931E+00  2.64678908E+00  2.64678908E+00
  2.64678908E+00  1.91971931E+00  2.64678908E+00  1.91971931E+00  2.64678908E+00
  2.64678908E+00  1.91971931E+00  2.64678908E+00  2.64678908E+00  1.91971931E+00
  2.64678908E+00  2.64678908E+00 -5.95686987E+00 -5.95686987E+00 -5.95686987E+00
 -5.95686987E+00 -5.95686987E+00 -5.95686987E+00  2.06276436E+00  2.06276436E+00
  2.06276436E+00  2.06276436E+00  2.06276436E+00  2.06276436E+00  8.03913209E-01
  8.03913209E-01  8.03913209E-01  8.03913209E-01  8.03913209E-01  8.03913209E-01
  8.03913209E-01  8.03913209E-01  8.03913209E-01  8.03913209E-01  8.03913209E-01
  8.03913209E-01  8.03913209E-01  8.03913209E-01  8.03913209E-01  8.03913209E-01
  8.03913209E-01  8.03913209E-01 -5.95686987E+00  1.91971931E+00  2.06276436E+00
 -2.96680911E+00 -2.96680911E+00  8.03913209E-01  8.03913209E-01  8.03913209E-01
 -2.24932427E+00  2.64678908E+00 -2.24932427E+00  2.64678908E+00  2.06094213E+00
  2.69006704E+00  2.69006704E+00 -7.92305604E+00  2.76705626E+00  2.06094213E+00
 -2.40989918E+00 -2.95201260E+00 -2.24932427E+00 -2.24932427E+00 -9.84915315E-01
  2.86545667E+00 -1.59900683E+00  2.65590022E+00 -2.96680911E+00  2.69006704E+00
 -2.96680911E+00  2.69006704E+00 -1.02044880E+00  2.46365496E+00  2.51012183E+00
  1.91971931E+00  2.64678908E+00  2.64678908E+00 -1.02044880E+00 -9.84915315E-01
 -9.84915315E-01 -9.84915315E-01 -5.95686987E+00 -1.59900683E+00 -2.40989918E+00
 -2.40989918E+00 -1.02044880E+00 -2.40989918E+00 -1.02044880E+00  2.06276436E+00
 -2.95201260E+00  2.51012183E+00  2.76705626E+00  2.86545667E+00  2.76705626E+00
  2.86545667E+00 -1.59900683E+00  2.86545667E+00  2.76705626E+00 -1.59900683E+00
  8.03913209E-01  8.03913209E-01  8.03913209E-01  2.65590022E+00 -7.92305604E+00
 -7.92305604E+00 -2.95201260E+00  2.51012183E+00 -7.92305604E+00 -2.95201260E+00
  2.51012183E+00  2.06094213E+00  2.06094213E+00  2.06094213E+00  2.06094213E+00
  2.65590022E+00  2.06094213E+00  2.06094213E+00  2.65590022E+00 -2.24932427E+00
 -2.24932427E+00 -2.24932427E+00 -2.24932427E+00 -2.24932427E+00 -2.24932427E+00
 -2.24932427E+00 -2.24932427E+00 -2.24932427E+00 -2.24932427E+00 -2.24932427E+00
 -2.24932427E+00 -2.96680911E+00  2.69006704E+00 -2.96680911E+00  2.69006704E+00
  2.69006704E+00 -2.96680911E+00  2.69006704E+00 -2.96680911E+00 -2.96680911E+00
  2.69006704E+00 -2.96680911E+00  2.69006704E+00 -2.96680911E+00  2.69006704E+00
 -2.96680911E+00  2.69006704E+00 -2.96680911E+00  2.69006704E+00 -2.96680911E+00
  2.69006704E+00 -2.96680911E+00  2.69006704E+00 -2.96680911E+00  2.69006704E+00
  1.91971931E+00  2.64678908E+00  2.64678908E+00  1.91971931E+00  2.64678908E+00
  2.64678908E+00  2.64678908E+00  1.91971931E+00  2.64678908E+00  1.91971931E+00
  2.64678908E+00  2.64678908E+00  1.91971931E+00  2.64678908E+00  2.64678908E+00
  1.91971931E+00  2.64678908E+00  2.64678908E+00 -5.95686987E+00 -5.95686987E+00
 -5.95686987E+00 -5.95686987E+00 -5.95686987E+00 -5.95686987E+00  2.06276436E+00
  2.06276436E+00  2.06276436E+00  2.06276436E+00  2.06276436E+00  2.06276436E+00
  8.03913209E-01  8.03913209E-01  8.03913209E-01  8.03913209E-01  8.03913209E-01
  8.03913209E-01  8.03913209E-01  8.03913209E-01  8.03913209E-01  8.03913209E-01
  8.03913209E-01  8.03913209E-01  8.03913209E-01  8.03913209E-01  8.03913209E-01
  8.03913209E-01  8.03913209E-01  8.03913209E-01 -5.95686987E+00  1.91971931E+00
  2.06276436E+00 -2.96680911E+00 -2.96680911E+00  8.03913209E-01  8.03913209E-01
  8.03913209E-01 -2.24932427E+00  2.64678908E+00 -2.24932427E+00  2.64678908E+00
  2.06094213E+00  2.69006704E+00  2.69006704E+00 -7.92305604E+00  2.76705626E+00
  2.06094213E+00 -2.40989918E+00 -2.95201260E+00 -2.24932427E+00 -2.24932427E+00
 -9.84915315E-01  2.86545667E+00 -1.59900683E+00  2.65590022E+00 -2.96680911E+00
  2.69006704E+00 -2.96680911E+00  2.69006704E+00 -1.02044880E+00  2.46365496E+00
  2.51012183E+00  1.91971931E+00  2.64678908E+00  2.64678908E+00 -1.02044880E+00
 -9.84915315E-01 -9.84915315E-01 -9.84915315E-01 -5.95686987E+00 -1.59900683E+00
 -2.40989918E+00 -2.40989918E+00 -1.02044880E+00 -2.40989918E+00 -1.02044880E+00
  2.06276436E+00 -2.95201260E+00  2.51012183E+00  2.76705626E+00  2.86545667E+00
  2.76705626E+00  2.86545667E+00 -1.59900683E+00  2.86545667E+00  2.76705626E+00
 -1.59900683E+00  8.03913209E-01  8.03913209E-01  8.03913209E-01  2.65590022E+00
 -7.92305604E+00 -7.92305604E+00 -2.95201260E+00  2.51012183E+00 -7.92305604E+00
 -2.95201260E+00  2.51012183E+00  2.06094213E+00  2.06094213E+00  2.06094213E+00
  2.06094213E+00  2.65590022E+00  2.06094213E+00  2.06094213E+00  2.65590022E+00
 -2.24932427E+00 -2.24932427E+00 -2.24932427E+00 -2.24932427E+00 -2.24932427E+00
 -2.24932427E+00 -2.24932427E+00 -2.24932427E+00 -2.24932427E+00 -2.24932427E+00
 -2.24932427E+00 -2.24932427E+00 -2.96680911E+00  2.69006704E+00 -2.96680911E+00
  2.69006704E+00  2.69006704E+00 -2.96680911E+00  2.69006704E+00 -2.96680911E+00
 -2.96680911E+00  2.69006704E+00 -2.96680911E+00  2.69006704E+00 -2.96680911E+00
  2.69006704E+00 -2.96680911E+00  2.69006704E+00 -2.96680911E+00  2.69006704E+00
 -2.96680911E+00  2.69006704E+00 -2.96680911E+00  2.69006704E+00 -2.96680911E+00
  2.69006704E+00  1.91971931E+00  2.64678908E+00  2.64678908E+00  1.91971931E+00
  2.64678908E+00  2.64678908E+00  2.64678908E+00  1.91971931E+00  2.64678908E+00
  1.91971931E+00  2.64678908E+00  2.64678908E+00  1.91971931E+00  2.64678908E+00
  2.64678908E+00  1.91971931E+00  2.64678908E+00  2.64678908E+00 -5.95686987E+00
 -5.95686987E+00 -5.95686987E+00 -5.95686987E+00 -5.95686987E+00 -5.95686987E+00
  2.06276436E+00  2.06276436E+00  2.06276436E+00  2.06276436E+00  2.06276436E+00
  2.06276436E+00  8.03913209E-01  8.03913209E-01  8.03913209E-01  8.03913209E-01
  8.03913209E-01  8.03913209E-01  8.03913209E-01  8.03913209E-01  8.03913209E-01
  8.03913209E-01  8.03913209E-01  8.03913209E-01  8.03913209E-01  8.03913209E-01
  8.03913209E-01  8.03913209E-01  8.03913209E-01  8.03913209E-01 -5.95686987E+00
  1.91971931E+00  2.06276436E+00 -2.96680911E+00 -2.96680911E+00  8.03913209E-01
  8.03913209E-01  8.03913209E-01 -2.24932427E+00  2.64678908E+00 -2.24932427E+00
  2.64678908E+00  2.06094213E+00  2.69006704E+00  2.69006704E+00 -7.92305604E+00
  2.76705626E+00  2.06094213E+00 -2.40989918E+00 -2.95201260E+00 -2.24932427E+00
 -2.24932427E+00 -9.84915315E-01  2.86545667E+00 -1.59900683E+00  2.65590022E+00
 -2.96680911E+00  2.69006704E+00 -2.96680911E+00  2.69006704E+00 -1.02044880E+00
  2.46365496E+00  2.51012183E+00  1.91971931E+00  2.64678908E+00  2.64678908E+00
 -1.02044880E+00 -9.84915315E-01 -9.84915315E-01 -9.84915315E-01 -5.95686987E+00
 -1.59900683E+00 -2.40989918E+00 -2.40989918E+00 -1.02044880E+00 -2.40989918E+00
 -1.02044880E+00  2.06276436E+00 -2.95201260E+00  2.51012183E+00  2.76705626E+00
  2.86545667E+00  2.76705626E+00  2.86545667E+00 -1.59900683E+00  2.86545667E+00
  2.76705626E+00 -1.59900683E+00  8.03913209E-01  8.03913209E-01  8.03913209E-01
  2.65590022E+00 -7.92305604E+00 -7.92305604E+00 -2.95201260E+00  2.51012183E+00
 -7.92305604E+00 -2.95201260E+00  2.51012183E+00  2.06094213E+00  2.06094213E+00
  2.06094213E+00  2.06094213E+00  2.65590022E+00  2.06094213E+00  2.06094213E+00
  2.65590022E+00 -2.24932427E+00 -2.24932427E+00 -2.24932427E+00 -2.24932427E+00
 -2.24932427E+00 -2.24932427E+00 -2.24932427E+00 -2.24932427E+00 -2.24932427E+00
 -2.24932427E+00 -2.24932427E+00 -2.24932427E+00 -2.96680911E+00  2.69006704E+00
 -2.96680911E+00  2.69006704E+00  2.69006704E+00 -2.96680911E+00  2.69006704E+00
 -2.96680911E+00 -2.96680911E+00  2.69006704E+00 -2.96680911E+00  2.69006704E+00
 -2.96680911E+00  2.69006704E+00 -2.96680911E+00  2.69006704E+00 -2.96680911E+00
  2.69006704E+00 -2.96680911E+00  2.69006704E+00 -2.96680911E+00  2.69006704E+00
 -2.96680911E+00  2.69006704E+00  1.91971931E+00  2.64678908E+00  2.64678908E+00
  1.91971931E+00  2.64678908E+00  2.64678908E+00  2.64678908E+00  1.91971931E+00
  2.64678908E+00  1.91971931E+00  2.64678908E+00  2.64678908E+00  1.91971931E+00
  2.64678908E+00  2.64678908E+00  1.91971931E+00  2.64678908E+00  2.64678908E+00
 -5.95686987E+00 -5.95686987E+00 -5.95686987E+00 -5.95686987E+00 -5.95686987E+00
 -5.95686987E+00  2.06276436E+00  2.06276436E+00  2.06276436E+00  2.06276436E+00
  2.06276436E+00  2.06276436E+00  8.03913209E-01  8.03913209E-01  8.03913209E-01
  8.03913209E-01  8.03913209E-01  8.03913209E-01  8.03913209E-01  8.03913209E-01
  8.03913209E-01  8.03913209E-01  8.03913209E-01  8.03913209E-01  8.03913209E-01
  8.03913209E-01  8.03913209E-01  8.03913209E-01  8.03913209E-01  8.03913209E-01
 -5.95686987E+00  1.91971931E+00  2.06276436E+00 -2.96680911E+00 -2.96680911E+00
  8.03913209E-01  8.03913209E-01  8.03913209E-01 -2.24932427E+00  2.64678908E+00
 -2.24932427E+00  2.64678908E+00  2.06094213E+00  2.69006704E+00  2.69006704E+00
 -7.92305604E+00  2.76705626E+00  2.06094213E+00 -2.40989918E+00 -2.95201260E+00
 -2.24932427E+00 -2.24932427E+00 -9.84915315E-01  2.86545667E+00 -1.59900683E+00
  2.65590022E+00 -2.96680911E+00  2.69006704E+00 -2.96680911E+00  2.69006704E+00
 -1.02044880E+00  2.46365496E+00  2.51012183E+00  1.91971931E+00  2.64678908E+00
  2.64678908E+00 -1.02044880E+00 -9.84915315E-01 -9.84915315E-01 -9.84915315E-01
 -5.95686987E+00 -1.59900683E+00 -2.40989918E+00 -2.40989918E+00 -1.02044880E+00
 -2.40989918E+00 -1.02044880E+00  2.06276436E+00 -2.95201260E+00  2.51012183E+00
  2.76705626E+00  2.86545667E+00  2.76705626E+00  2.86545667E+00 -1.59900683E+00
  2.86545667E+00  2.76705626E+00 -1.59900683E+00  8.03913209E-01  8.03913209E-01
  8.03913209E-01  2.65590022E+00 -7.92305604E+00 -7.92305604E+00 -2.95201260E+00
  2.51012183E+00 -7.92305604E+00 -2.95201260E+00  2.51012183E+00  2.06094213E+00
  2.06094213E+00  2.06094213E+00  2.06094213E+00  2.65590022E+00  2.06094213E+00
  2.06094213E+00  2.65590022E+00 -2.24932427E+00 -2.24932427E+00 -2.24932427E+00
 -2.24932427E+00 -2.24932427E+00 -2.24932427E+00 -2.24932427E+00 -2.24932427E+00
 -2.24932427E+00 -2.24932427E+00 -2.24932427E+00 -2.24932427E+00 -2.96680911E+00
  2.69006704E+00 -2.96680911E+00  2.69006704E+00  2.69006704E+00 -2.96680911E+00
  2.69006704E+00 -2.96680911E+00 -2.96680911E+00  2.69006704E+00 -2.96680911E+00
  2.69006704E+00 -2.96680911E+00  2.69006704E+00 -2.96680911E+00  2.69006704E+00
 -2.96680911E+00  2.69006704E+00 -2.96680911E+00  2.69006704E+00 -2.96680911E+00
  2.69006704E+00 -2.96680911E+00  2.69006704E+00  1.91971931E+00  2.64678908E+00
  2.64678908E+00  1.91971931E+00  2.64678908E+00  2.64678908E+00  2.64678908E+00
  1.91971931E+00  2.64678908E+00  1.91971931E+00  2.64678908E+00  2.64678908E+00
  1.91971931E+00  2.64678908E+00  2.64678908E+00  1.91971931E+00  2.64678908E+00
  2.64678908E+00 -5.95686987E+00 -5.95686987E+00 -5.95686987E+00 -5.95686987E+00
 -5.95686987E+00 -5.95686987E+00  2.06276436E+00  2.06276436E+00  2.06276436E+00
  2.06276436E+00  2.06276436E+00  2.06276436E+00  8.03913209E-01  8.03913209E-01
  8.03913209E-01  8.03913209E-01  8.03913209E-01  8.03913209E-01  8.03913209E-01
  8.03913209E-01  8.03913209E-01  8.03913209E-01  8.03913209E-01  8.03913209E-01
  8.03913209E-01  8.03913209E-01  8.03913209E-01  8.03913209E-01  8.03913209E-01
  8.03913209E-01 -5.95686987E+00  1.91971931E+00  2.06276436E+00 -2.96680911E+00
 -2.96680911E+00  8.03913209E-01  8.03913209E-01  8.03913209E-01 -2.24932427E+00
  2.64678908E+00 -2.24932427E+00  2.64678908E+00  2.06094213E+00  2.69006704E+00
  2.69006704E+00 -7.92305604E+00  2.76705626E+00  2.06094213E+00 -2.40989918E+00
 -2.95201260E+00 -2.24932427E+00 -2.24932427E+00 -9.84915315E-01  2.86545667E+00
 -1.59900683E+00  2.65590022E+00 -2.96680911E+00  2.69006704E+00 -2.96680911E+00
  2.69006704E+00 -1.02044880E+00  2.46365496E+00  2.51012183E+00  1.91971931E+00
  2.64678908E+00  2.64678908E+00 -1.02044880E+00 -9.84915315E-01 -9.84915315E-01
 -9.84915315E-01 -5.95686987E+00 -1.59900683E+00 -2.40989918E+00 -2.40989918E+00
 -1.02044880E+00 -2.40989918E+00 -1.02044880E+00  2.06276436E+00 -2.95201260E+00
  2.51012183E+00  2.76705626E+00  2.86545667E+00  2.76705626E+00  2.86545667E+00
 -1.59900683E+00  2.86545667E+00  2.76705626E+00 -1.59900683E+00  8.03913209E-01
  8.03913209E-01  8.03913209E-01  2.65590022E+00 -7.92305604E+00 -7.92305604E+00
 -2.95201260E+00  2.51012183E+00 -7.92305604E+00 -2.95201260E+00  2.51012183E+00
  2.06094213E+00  2.06094213E+00  2.06094213E+00  2.06094213E+00  2.65590022E+00
  2.06094213E+00  2.06094213E+00  2.65590022E+00 -2.24932427E+00 -2.24932427E+00
 -2.24932427E+00 -2.24932427E+00 -2.24932427E+00 -2.24932427E+00 -2.24932427E+00
 -2.24932427E+00 -2.24932427E+00 -2.24932427E+00 -2.24932427E+00 -2.24932427E+00
 -2.96680911E+00  2.69006704E+00 -2.96680911E+00  2.69006704E+00  2.69006704E+00
 -2.96680911E+00  2.69006704E+00 -2.96680911E+00 -2.96680911E+00  2.69006704E+00
 -2.96680911E+00  2.69006704E+00 -2.96680911E+00  2.69006704E+00 -2.96680911E+00
  2.69006704E+00 -2.96680911E+00  2.69006704E+00 -2.96680911E+00  2.69006704E+00
 -2.96680911E+00  2.69006704E+00 -2.96680911E+00  2.69006704E+00  1.91971931E+00
  2.64678908E+00  2.64678908E+00  1.91971931E+00  2.64678908E+00  2.64678908E+00
  2.64678908E+00  1.91971931E+00  2.64678908E+00  1.91971931E+00  2.64678908E+00
  2.64678908E+00  1.91971931E+00  2.64678908E+00  2.64678908E+00  1.91971931E+00
  2.64678908E+00  2.64678908E+00 -5.95686987E+00 -5.95686987E+00 -5.95686987E+00
 -5.95686987E+00 -5.95686987E+00 -5.95686987E+00  2.06276436E+00  2.06276436E+00
  2.06276436E+00  2.06276436E+00  2.06276436E+00  2.06276436E+00  8.03913209E-01
  8.03913209E-01  8.03913209E-01  8.03913209E-01  8.03913209E-01  8.03913209E-01
  8.03913209E-01  8.03913209E-01  8.03913209E-01  8.03913209E-01  8.03913209E-01
  8.03913209E-01  8.03913209E-01  8.03913209E-01  8.03913209E-01  8.03913209E-01
  8.03913209E-01  8.03913209E-01 -5.95686987E+00  1.91971931E+00  2.06276436E+00
 -2.96680911E+00 -2.96680911E+00  8.03913209E-01  8.03913209E-01  8.03913209E-01
 -2.24932427E+00  2.64678908E+00 -2.24932427E+00  2.64678908E+00  2.06094213E+00
  2.69006704E+00  2.69006704E+00 -7.92305604E+00  2.76705626E+00  2.06094213E+00
 -2.40989918E+00 -2.95201260E+00 -2.24932427E+00 -2.24932427E+00 -9.84915315E-01
  2.86545667E+00 -1.59900683E+00  2.65590022E+00 -2.96680911E+00  2.69006704E+00
 -2.96680911E+00  2.69006704E+00 -1.02044880E+00  2.46365496E+00  2.51012183E+00
  1.91971931E+00  2.64678908E+00  2.64678908E+00 -1.02044880E+00 -9.84915315E-01
 -9.84915315E-01 -9.84915315E-01 -5.95686987E+00 -1.59900683E+00 -2.40989918E+00
 -2.40989918E+00 -1.02044880E+00 -2.40989918E+00 -1.02044880E+00  2.06276436E+00
 -2.95201260E+00  2.51012183E+00  2.76705626E+00  2.86545667E+00  2.76705626E+00
  2.86545667E+00 -1.59900683E+00  2.86545667E+00  2.76705626E+00 -1.59900683E+00
  8.03913209E-01  8.03913209E-01  8.03913209E-01  2.65590022E+00 -7.92305604E+00
 -7.92305604E+00 -2.95201260E+00  2.51012183E+00 -7.92305604E+00 -2.95201260E+00
  2.51012183E+00  2.06094213E+00  2.06094213E+00  2.06094213E+00  2.06094213E+00
  2.65590022E+00  2.06094213E+00  2.06094213E+00  2.65590022E+00 -2.24932427E+00
 -2.24932427E+00 -2.24932427E+00 -2.24932427E+00 -2.24932427E+00 -2.24932427E+00
 -2.24932427E+00 -2.24932427E+00 -2.24932427E+00 -2.24932427E+00 -2.24932427E+00
 -2.24932427E+00 -2.96680911E+00  2.69006704E+00 -2.96680911E+00  2.69006704E+00
  2.69006704E+00 -2.96680911E+00  2.69006704E+00 -2.96680911E+00 -2.96680911E+00
  2.69006704E+00 -2.96680911E+00  2.69006704E+00 -2.96680911E+00  2.69006704E+00
 -2.96680911E+00  2.69006704E+00 -2.96680911E+00  2.69006704E+00 -2.96680911E+00
  2.69006704E+00 -2.96680911E+00  2.69006704E+00 -2.96680911E+00  2.69006704E+00
  1.91971931E+00  2.64678908E+00  2.64678908E+00  1.91971931E+00  2.64678908E+00
  2.64678908E+00  2.64678908E+00  1.91971931E+00  2.64678908E+00  1.91971931E+00
  2.64678908E+00  2.64678908E+00  1.91971931E+00  2.64678908E+00  2.64678908E+00
  1.91971931E+00  2.64678908E+00  2.64678908E+00 -5.95686987E+00 -5.95686987E+00
 -5.95686987E+00 -5.95686987E+00 -5.95686987E+00 -5.95686987E+00  2.06276436E+00
  2.06276436E+00  2.06276436E+00  2.06276436E+00  2.06276436E+00  2.06276436E+00
  8.03913209E-01  8.03913209E-01  8.03913209E-01  8.03913209E-01  8.03913209E-01
  8.03913209E-01  8.03913209E-01  8.03913209E-01  8.03913209E-01  8.03913209E-01
  8.03913209E-01  8.03913209E-01  8.03913209E-01  8.03913209E-01  8.03913209E-01
  8.03913209E-01  8.03913209E-01  8.03913209E-01 -5.95686987E+00  1.91971931E+00
  2.06276436E+00 -2.96680911E+00 -2.96680911E+00  8.03913209E-01  8.03913209E-01
  8.03913209E-01 -2.24932427E+00  2.64678908E+00 -2.24932427E+00  2.64678908E+00
  2.06094213E+00  2.69006704E+00  2.69006704E+00 -7.92305604E+00  2.76705626E+00
  2.06094213E+00 -2.40989918E+00 -2.95201260E+00 -2.24932427E+00 -2.24932427E+00
 -9.84915315E-01  2.86545667E+00 -1.59900683E+00  2.65590022E+00 -2.96680911E+00
  2.69006704E+00 -2.96680911E+00  2.69006704E+00 -1.02044880E+00  2.46365496E+00
  2.51012183E+00  1.91971931E+00  2.64678908E+00  2.64678908E+00 -1.02044880E+00
 -9.84915315E-01 -9.84915315E-01 -9.84915315E-01 -5.95686987E+00 -1.59900683E+00
 -2.40989918E+00 -2.40989918E+00 -1.02044880E+00 -2.40989918E+00 -1.02044880E+00
  2.06276436E+00 -2.95201260E+00  2.51012183E+00  2.76705626E+00  2.86545667E+00
  2.76705626E+00  2.86545667E+00 -1.59900683E+00  2.86545667E+00  2.76705626E+00
 -1.59900683E+00  8.03913209E-01  8.03913209E-01  8.03913209E-01  2.65590022E+00
 -7.92305604E+00 -7.92305604E+00 -2.95201260E+00  2.51012183E+00 -7.92305604E+00
 -2.95201260E+00  2.51012183E+00  2.06094213E+00  2.06094213E+00  2.06094213E+00
  2.06094213E+00  2.65590022E+00  2.06094213E+00  2.06094213E+00  2.65590022E+00
 -2.24932427E+00 -2.24932427E+00 -2.24932427E+00 -2.24932427E+00 -2.24932427E+00
 -2.24932427E+00 -2.24932427E+00 -2.24932427E+00 -2.24932427E+00 -2.24932427E+00
 -2.24932427E+00 -2.24932427E+00 -2.96680911E+00  2.69006704E+00 -2.96680911E+00
  2.69006704E+00  2.69006704E+00 -2.96680911E+00  2.69006704E+00 -2.96680911E+00
 -2.96680911E+00  2.69006704E+00 -2.96680911E+00  2.69006704E+00 -2.96680911E+00
  2.69006704E+00 -2.96680911E+00  2.69006704E+00 -2.96680911E+00  2.69006704E+00
 -2.96680911E+00  2.69006704E+00 -2.96680911E+00  2.69006704E+00 -2.96680911E+00
  2.69006704E+00  1.91971931E+00  2.64678908E+00  2.64678908E+00  1.91971931E+00
  2.64678908E+00  2.64678908E+00  2.64678908E+00  1.91971931E+00  2.64678908E+00
  1.91971931E+00  2.64678908E+00  2.64678908E+00  1.91971931E+00  2.64678908E+00
  2.64678908E+00  1.91971931E+00  2.64678908E+00  2.64678908E+00 -5.95686987E+00
 -5.95686987E+00 -5.95686987E+00 -5.95686987E+00 -5.95686987E+00 -5.95686987E+00
  2.06276436E+00  2.06276436E+00  2.06276436E+00  2.06276436E+00  2.06276436E+00
  2.06276436E+00  8.03913209E-01  8.03913209E-01  8.03913209E-01  8.03913209E-01
  8.03913209E-01  8.03913209E-01  8.03913209E-01  8.03913209E-01  8.03913209E-01
  8.03913209E-01  8.03913209E-01  8.03913209E-01  8.03913209E-01  8.03913209E-01
  8.03913209E-01  8.03913209E-01  8.03913209E-01  8.03913209E-01 -5.95686987E+00
  1.91971931E+00  2.06276436E+00 -2.96680911E+00 -2.96680911E+00  8.03913209E-01
  8.03913209E-01  8.03913209E-01 -2.24932427E+00  2.64678908E+00 -2.24932427E+00
  2.64678908E+00  2.06094213E+00  2.69006704E+00  2.69006704E+00 -7.92305604E+00
  2.76705626E+00  2.06094213E+00 -2.40989918E+00 -2.95201260E+00 -2.24932427E+00
 -2.24932427E+00 -9.84915315E-01  2.86545667E+00 -1.59900683E+00  2.65590022E+00
 -2.96680911E+00  2.69006704E+00 -2.96680911E+00  2.69006704E+00 -1.02044880E+00
  2.46365496E+00  2.51012183E+00  1.91971931E+00  2.64678908E+00  2.64678908E+00
 -1.02044880E+00 -9.84915315E-01 -9.84915315E-01 -9.84915315E-01 -5.95686987E+00
 -1.59900683E+00 -2.40989918E+00 -2.40989918E+00 -1.02044880E+00 -2.40989918E+00
 -1.02044880E+00  2.06276436E+00 -2.95201260E+00  2.51012183E+00  2.76705626E+00
  2.86545667E+00  2.76705626E+00  2.86545667E+00 -1.59900683E+00  2.86545667E+00
  2.76705626E+00 -1.59900683E+00  8.03913209E-01  8.03913209E-01  8.03913209E-01
  2.65590022E+00 -7.92305604E+00 -7.92305604E+00 -2.95201260E+00  2.51012183E+00
 -7.92305604E+00 -2.95201260E+00  2.51012183E+00  2.06094213E+00  2.06094213E+00
  2.06094213E+00  2.06094213E+00  2.65590022E+00  2.06094213E+00  2.06094213E+00
  2.65590022E+00 -2.24932427E+00 -2.24932427E+00 -2.24932427E+00 -2.24932427E+00
 -2.24932427E+00 -2.24932427E+00 -2.24932427E+00 -2.24932427E+00 -2.24932427E+00
 -2.24932427E+00 -2.24932427E+00 -2.24932427E+00 -2.96680911E+00  2.69006704E+00
 -2.96680911E+00  2.69006704E+00  2.69006704E+00 -2.96680911E+00  2.69006704E+00
 -2.96680911E+00 -2.96680911E+00  2.69006704E+00 -2.96680911E+00  2.69006704E+00
 -2.96680911E+00  2.69006704E+00 -2.96680911E+00  2.69006704E+00 -2.96680911E+00
  2.69006704E+00 -2.96680911E+00  2.69006704E+00 -2.96680911E+00  2.69006704E+00
 -2.96680911E+00  2.69006704E+00  1.91971931E+00  2.64678908E+00  2.64678908E+00
  1.91971931E+00  2.64678908E+00  2.64678908E+00  2.64678908E+00  1.91971931E+00
  2.64678908E+00  1.91971931E+00  2.64678908E+00  2.64678908E+00  1.91971931E+00
  2.64678908E+00  2.64678908E+00  1.91971931E+00  2.64678908E+00  2.64678908E+00
 -5.95686987E+00 -5.95686987E+00 -5.95686987E+00 -5.95686987E+00 -5.95686987E+00
 -5.95686987E+00  2.06276436E+00  2.06276436E+00  2.06276436E+00  2.06276436E+00
  2.06276436E+00  2.06276436E+00  8.03913209E-01  8.03913209E-01  8.03913209E-01
  8.03913209E-01  8.03913209E-01  8.03913209E-01  8.03913209E-01  8.03913209E-01
  8.03913209E-01  8.03913209E-01  8.03913209E-01  8.03913209E-01  8.03913209E-01
  8.03913209E-01  8.03913209E-01  8.03913209E-01  8.03913209E-01  8.03913209E-01
 -5.95686987E+00  1.91971931E+00  2.06276436E+00 -2.96680911E+00 -2.96680911E+00
  8.03913209E-01  8.03913209E-01  8.03913209E-01 -2.24932427E+00  2.64678908E+00
 -2.24932427E+00  2.64678908E+00  2.06094213E+00  2.69006704E+00  2.69006704E+00
 -7.92305604E+00  2.76705626E+00  2.06094213E+00 -2.40989918E+00 -2.95201260E+00
 -2.24932427E+00 -2.24932427E+00 -9.84915315E-01  2.86545667E+00 -1.59900683E+00
  2.65590022E+00 -2.96680911E+00  2.69006704E+00 -2.96680911E+00  2.69006704E+00
 -1.02044880E+00  2.46365496E+00  2.51012183E+00  1.91971931E+00  2.64678908E+00
  2.64678908E+00 -1.02044880E+00 -9.84915315E-01 -9.84915315E-01 -9.84915315E-01
 -5.95686987E+00 -1.59900683E+00 -2.40989918E+00 -2.40989918E+00 -1.02044880E+00
 -2.40989918E+00 -1.02044880E+00  2.06276436E+00 -2.95201260E+00  2.51012183E+00
  2.76705626E+00  2.86545667E+00  2.76705626E+00  2.86545667E+00 -1.59900683E+00
  2.86545667E+00  2.76705626E+00 -1.59900683E+00  8.03913209E-01  8.03913209E-01
  8.03913209E-01  2.65590022E+00 -7.92305604E+00 -7.92305604E+00 -2.95201260E+00
  2.51012183E+00 -7.92305604E+00 -2.95201260E+00  2.51012183E+00  2.06094213E+00
  2.06094213E+00  2.06094213E+00  2.06094213E+00  2.65590022E+00  2.06094213E+00
  2.06094213E+00  2.65590022E+00 -2.24932427E+00 -2.24932427E+00 -2.24932427E+00
 -2.24932427E+00 -2.24932427E+00 -2.24932427E+00 -2.24932427E+00 -2.24932427E+00
 -2.24932427E+00 -2.24932427E+00 -2.24932427E+00 -2.24932427E+00 -2.96680911E+00
  2.69006704E+00 -2.96680911E+00  2.69006704E+00  2.69006704E+00 -2.96680911E+00
  2.69006704E+00 -2.96680911E+00 -2.96680911E+00  2.69006704E+00 -2.96680911E+00
  2.69006704E+00 -2.96680911E+00  2.69006704E+00 -2.96680911E+00  2.69006704E+00
 -2.96680911E+00  2.69006704E+00 -2.96680911E+00  2.69006704E+00 -2.96680911E+00
  2.69006704E+00 -2.96680911E+00  2.69006704E+00  1.91971931E+00  2.64678908E+00
  2.64678908E+00  1.91971931E+00  2.64678908E+00  2.64678908E+00  2.64678908E+00
  1.91971931E+00  2.64678908E+00  1.91971931E+00  2.64678908E+00  2.64678908E+00
  1.91971931E+00  2.64678908E+00  2.64678908E+00  1.91971931E+00  2.64678908E+00
  2.64678908E+00 -5.95686987E+00 -5.95686987E+00 -5.95686987E+00 -5.95686987E+00
 -5.95686987E+00 -5.95686987E+00  2.06276436E+00  2.06276436E+00  2.06276436E+00
  2.06276436E+00  2.06276436E+00  2.06276436E+00  8.03913209E-01  8.03913209E-01
  8.03913209E-01  8.03913209E-01  8.03913209E-01  8.03913209E-01  8.03913209E-01
  8.03913209E-01  8.03913209E-01  8.03913209E-01  8.03913209E-01  8.03913209E-01
  8.03913209E-01  8.03913209E-01  8.03913209E-01  8.03913209E-01  8.03913209E-01
  8.03913209E-01 -5.95686987E+00  1.91971931E+00  2.06276436E+00 -2.96680911E+00
 -2.96680911E+00  8.03913209E-01  8.03913209E-01  8.03913209E-01 -2.24932427E+00
  2.64678908E+00 -2.24932427E+00  2.64678908E+00  2.06094213E+00  2.69006704E+00
  2.69006704E+00 -7.92305604E+00  2.76705626E+00  2.06094213E+00 -2.40989918E+00
 -2.95201260E+00 -2.24932427E+00 -2.24932427E+00 -9.84915315E-01  2.86545667E+00
 -1.59900683E+00  2.65590022E+00 -2.96680911E+00  2.69006704E+00 -2.96680911E+00
  2.69006704E+00 -1.02044880E+00  2.46365496E+00  2.51012183E+00  1.91971931E+00
  2.64678908E+00  2.64678908E+00 -1.02044880E+00 -9.84915315E-01 -9.84915315E-01
 -9.84915315E-01 -5.95686987E+00 -1.59900683E+00 -2.40989918E+00 -2.40989918E+00
 -1.02044880E+00 -2.40989918E+00 -1.02044880E+00  2.06276436E+00 -2.95201260E+00
  2.51012183E+00  2.76705626E+00  2.86545667E+00  2.76705626E+00  2.86545667E+00
 -1.59900683E+00  2.86545667E+00  2.76705626E+00 -1.59900683E+00  8.03913209E-01
  8.03913209E-01  8.03913209E-01  2.65590022E+00 -7.92305604E+00 -7.92305604E+00
 -2.95201260E+00  2.51012183E+00 -7.92305604E+00 -2.95201260E+00  2.51012183E+00
  2.06094213E+00  2.06094213E+00  2.06094213E+00  2.06094213E+00  2.65590022E+00
  2.06094213E+00  2.06094213E+00  2.65590022E+00 -2.24932427E+00 -2.24932427E+00
 -2.24932427E+00 -2.24932427E+00 -2.24932427E+00 -2.24932427E+00 -2.24932427E+00
 -2.24932427E+00 -2.24932427E+00 -2.24932427E+00 -2.24932427E+00 -2.24932427E+00
 -2.96680911E+00  2.69006704E+00 -2.96680911E+00  2.69006704E+00  2.69006704E+00
 -2.96680911E+00  2.69006704E+00 -2.96680911E+00 -2.96680911E+00  2.69006704E+00
 -2.96680911E+00  2.69006704E+00 -2.96680911E+00  2.69006704E+00 -2.96680911E+00
  2.69006704E+00 -2.96680911E+00  2.69006704E+00 -2.96680911E+00  2.69006704E+00
 -2.96680911E+00  2.69006704E+00 -2.96680911E+00  2.69006704E+00  1.91971931E+00
  2.64678908E+00  2.64678908E+00  1.91971931E+00  2.64678908E+00  2.64678908E+00
  2.64678908E+00  1.91971931E+00  2.64678908E+00  1.91971931E+00  2.64678908E+00
  2.64678908E+00  1.91971931E+00  2.64678908E+00  2.64678908E+00  1.91971931E+00
  2.64678908E+00  2.64678908E+00 -5.95686987E+00 -5.95686987E+00 -5.95686987E+00
 -5.95686987E+00 -5.95686987E+00 -5.95686987E+00  2.06276436E+00  2.06276436E+00
  2.06276436E+00  2.06276436E+00  2.06276436E+00  2.06276436E+00  8.03913209E-01
  8.03913209E-01  8.03913209E-01  8.03913209E-01  8.03913209E-01  8.03913209E-01
  8.03913209E-01  8.03913209E-01  8.03913209E-01  8.03913209E-01  8.03913209E-01
  8.03913209E-01  8.03913209E-01  8.03913209E-01  8.03913209E-01  8.03913209E-01
  8.03913209E-01  8.03913209E-01 -5.95686987E+00  1.91971931E+00  2.06276436E+00
 -2.96680911E+00 -2.96680911E+00  8.03913209E-01  8.03913209E-01  8.03913209E-01
 -2.24932427E+00  2.64678908E+00 -2.24932427E+00  2.64678908E+00  2.06094213E+00
  2.69006704E+00  2.69006704E+00 -7.92305604E+00  2.76705626E+00  2.06094213E+00
 -2.40989918E+00 -2.95201260E+00 -2.24932427E+00 -2.24932427E+00 -9.84915315E-01
  2.86545667E+00 -1.59900683E+00  2.65590022E+00 -2.96680911E+00  2.69006704E+00
 -2.96680911E+00  2.69006704E+00 -1.02044880E+00  2.46365496E+00  2.51012183E+00
  1.91971931E+00  2.64678908E+00  2.64678908E+00 -1.02044880E+00 -9.84915315E-01
 -9.84915315E-01 -9.84915315E-01 -5.95686987E+00 -1.59900683E+00 -2.40989918E+00
 -2.40989918E+00 -1.02044880E+00 -2.40989918E+00 -1.02044880E+00  2.06276436E+00
 -2.95201260E+00  2.51012183E+00  2.76705626E+00  2.86545667E+00  2.76705626E+00
  2.86545667E+00 -1.59900683E+00  2.86545667E+00  2.76705626E+00 -1.59900683E+00
  8.03913209E-01  8.03913209E-01  8.03913209E-01  2.65590022E+00 -7.92305604E+00
 -7.92305604E+00 -2.95201260E+00  2.51012183E+00 -7.92305604E+00 -2.95201260E+00
  2.51012183E+00  2.06094213E+00  2.06094213E+00  2.06094213E+00  2.06094213E+00
  2.65590022E+00  2.06094213E+00  2.06094213E+00  2.65590022E+00 -2.24932427E+00
 -2.24932427E+00 -2.24932427E+00 -2.24932427E+00 -2.24932427E+00 -2.24932427E+00
 -2.24932427E+00 -2.24932427E+00 -2.24932427E+00 -2.24932427E+00 -2.24932427E+00
 -2.24932427E+00 -2.96680911E+00  2.69006704E+00 -2.96680911E+00  2.69006704E+00
  2.69006704E+00 -2.96680911E+00  2.69006704E+00 -2.96680911E+00 -2.96680911E+00
  2.69006704E+00 -2.96680911E+00  2.69006704E+00 -2.96680911E+00  2.69006704E+00
 -2.96680911E+00  2.69006704E+00 -2.96680911E+00  2.69006704E+00 -2.96680911E+00
  2.69006704E+00 -2.96680911E+00  2.69006704E+00 -2.96680911E+00  2.69006704E+00
  1.91971931E+00  2.64678908E+00  2.64678908E+00  1.91971931E+00  2.64678908E+00
  2.64678908E+00  2.64678908E+00  1.91971931E+00  2.64678908E+00  1.91971931E+00
  2.64678908E+00  2.64678908E+00  1.91971931E+00  2.64678908E+00  2.64678908E+00
  1.91971931E+00  2.64678908E+00  2.64678908E+00 -5.95686987E+00 -5.95686987E+00
 -5.95686987E+00 -5.95686987E+00 -5.95686987E+00 -5.95686987E+00  2.06276436E+00
  2.06276436E+00  2.06276436E+00  2.06276436E+00  2.06276436E+00  2.06276436E+00
  8.03913209E-01  8.03913209E-01  8.03913209E-01  8.03913209E-01  8.03913209E-01
  8.03913209E-01  8.03913209E-01  8.03913209E-01  8.03913209E-01  8.03913209E-01
  8.03913209E-01  8.03913209E-01  8.03913209E-01  8.03913209E-01  8.03913209E-01
  8.03913209E-01  8.03913209E-01  8.03913209E-01 -5.95686987E+00  1.91971931E+00
  2.06276436E+00 -2.96680911E+00 -2.96680911E+00  8.03913209E-01  8.03913209E-01
  8.03913209E-01 -2.24932427E+00  2.64678908E+00 -2.24932427E+00  2.64678908E+00
  2.06094213E+00  2.69006704E+00  2.69006704E+00 -7.92305604E+00  2.76705626E+00
  2.06094213E+00 -2.40989918E+00 -2.95201260E+00 -2.24932427E+00 -2.24932427E+00
 -9.84915315E-01  2.86545667E+00 -1.59900683E+00  2.65590022E+00 -2.96680911E+00
  2.69006704E+00 -2.96680911E+00  2.69006704E+00 -1.02044880E+00  2.46365496E+00
  2.51012183E+00  1.91971931E+00  2.64678908E+00  2.64678908E+00 -1.02044880E+00
 -9.84915315E-01 -9.84915315E-01 -9.84915315E-01 -5.95686987E+00 -1.59900683E+00
 -2.40989918E+00 -2.40989918E+00 -1.02044880E+00 -2.40989918E+00 -1.02044880E+00
  2.06276436E+00 -2.95201260E+00  2.51012183E+00  2.76705626E+00  2.86545667E+00
  2.76705626E+00  2.86545667E+00 -1.59900683E+00  2.86545667E+00  2.76705626E+00
 -1.59900683E+00  8.03913209E-01  8.03913209E-01  8.03913209E-01  2.65590022E+00
 -7.92305604E+00 -7.92305604E+00 -2.95201260E+00  2.51012183E+00 -7.92305604E+00
 -2.95201260E+00  2.51012183E+00  2.06094213E+00  2.06094213E+00  2.06094213E+00
  2.06094213E+00  2.65590022E+00  2.06094213E+00  2.06094213E+00  2.65590022E+00
 -2.24932427E+00 -2.24932427E+00 -2.24932427E+00 -2.24932427E+00 -2.24932427E+00
 -2.24932427E+00 -2.24932427E+00 -2.24932427E+00 -2.24932427E+00 -2.24932427E+00
 -2.24932427E+00 -2.24932427E+00 -2.96680911E+00  2.69006704E+00 -2.96680911E+00
  2.69006704E+00  2.69006704E+00 -2.96680911E+00  2.69006704E+00 -2.96680911E+00
 -2.96680911E+00  2.69006704E+00 -2.96680911E+00  2.69006704E+00 -2.96680911E+00
  2.69006704E+00 -2.96680911E+00  2.69006704E+00 -2.96680911E+00  2.69006704E+00
 -2.96680911E+00  2.69006704E+00 -2.96680911E+00  2.69006704E+00 -2.96680911E+00
  2.69006704E+00  1.91971931E+00  2.64678908E+00  2.64678908E+00  1.91971931E+00
  2.64678908E+00  2.64678908E+00  2.64678908E+00  1.91971931E+00  2.64678908E+00
  1.91971931E+00  2.64678908E+00  2.64678908E+00  1.91971931E+00  2.64678908E+00
  2.64678908E+00  1.91971931E+00  2.64678908E+00  2.64678908E+00 -5.95686987E+00
 -5.95686987E+00 -5.95686987E+00 -5.95686987E+00 -5.95686987E+00 -5.95686987E+00
  2.06276436E+00  2.06276436E+00  2.06276436E+00  2.06276436E+00  2.06276436E+00
  2.06276436E+00  8.03913209E-01  8.03913209E-01  8.03913209E-01  8.03913209E-01
  8.03913209E-01  8.03913209E-01  8.03913209E-01  8.03913209E-01  8.03913209E-01
  8.03913209E-01  8.03913209E-01  8.03913209E-01  8.03913209E-01  8.03913209E-01
  8.03913209E-01  8.03913209E-01  8.03913209E-01  8.03913209E-01 -5.95686987E+00
  1.91971931E+00  2.06276436E+00 -2.96680911E+00 -2.96680911E+00  8.03913209E-01
  8.03913209E-01  8.03913209E-01 -2.24932427E+00  2.64678908E+00 -2.24932427E+00
  2.64678908E+00  2.06094213E+00  2.69006704E+00  2.69006704E+00 -7.92305604E+00
  2.76705626E+00  2.06094213E+00 -2.40989918E+00 -2.95201260E+00 -2.24932427E+00
 -2.24932427E+00 -9.84915315E-01  2.86545667E+00 -1.59900683E+00  2.65590022E+00
 -2.96680911E+00  2.69006704E+00 -2.96680911E+00  2.69006704E+00 -1.02044880E+00
  2.46365496E+00  2.51012183E+00  1.91971931E+00  2.64678908E+00  2.64678908E+00
 -1.02044880E+00 -9.84915315E-01 -9.84915315E-01 -9.84915315E-01 -5.95686987E+00
 -1.59900683E+00 -2.40989918E+00 -2.40989918E+00 -1.02044880E+00 -2.40989918E+00
 -1.02044880E+00  2.06276436E+00 -2.95201260E+00  2.51012183E+00  2.76705626E+00
  2.86545667E+00  2.76705626E+00  2.86545667E+00 -1.59900683E+00  2.86545667E+00
  2.76705626E+00 -1.59900683E+00  8.03913209E-01  8.03913209E-01  8.03913209E-01
  2.65590022E+00 -7.92305604E+00 -7.92305604E+00 -2.95201260E+00  2.51012183E+00
 -7.92305604E+00 -2.95201260E+00  2.51012183E+00  2.06094213E+00  2.06094213E+00
  2.06094213E+00  2.06094213E+00  2.65590022E+00  2.06094213E+00  2.06094213E+00
  2.65590022E+00 -2.24932427E+00 -2.24932427E+00 -2.24932427E+00 -2.24932427E+00
 -2.24932427E+00 -2.24932427E+00 -2.24932427E+00 -2.24932427E+00 -2.24932427E+00
 -2.24932427E+00 -2.24932427E+00 -2.24932427E+00 -2.96680911E+00  2.69006704E+00
 -2.96680911E+00  2.69006704E+00  2.69006704E+00 -2.96680911E+00  2.69006704E+00
 -2.96680911E+00 -2.96680911E+00  2.69006704E+00 -2.96680911E+00  2.69006704E+00
 -2.96680911E+00  2.69006704E+00 -2.96680911E+00  2.69006704E+00 -2.96680911E+00
  2.69006704E+00 -2.96680911E+00  2.69006704E+00 -2.96680911E+00  2.69006704E+00
 -2.96680911E+00  2.69006704E+00  1.91971931E+00  2.64678908E+00  2.64678908E+00
  1.91971931E+00  2.64678908E+00  2.64678908E+00  2.64678908E+00  1.91971931E+00
  2.64678908E+00  1.91971931E+00  2.64678908E+00  2.64678908E+00  1.91971931E+00
  2.64678908E+00  2.64678908E+00  1.91971931E+00  2.64678908E+00  2.64678908E+00
 -5.95686987E+00 -5.95686987E+00 -5.95686987E+00 -5.95686987E+00 -5.95686987E+00
 -5.95686987E+00  2.06276436E+00  2.06276436E+00  2.06276436E+00  2.06276436E+00
  2.06276436E+00  2.06276436E+00  8.03913209E-01  8.03913209E-01  8.03913209E-01
  8.03913209E-01  8.03913209E-01  8.03913209E-01  8.03913209E-01  8.03913209E-01
  8.03913209E-01  8.03913209E-01  8.03913209E-01  8.03913209E-01  8.03913209E-01
  8.03913209E-01  8.03913209E-01  8.03913209E-01  8.03913209E-01  8.03913209E-01
 -5.95686987E+00  1.91971931E+00  2.06276436E+00 -2.96680911E+00 -2.96680911E+00
  8.03913209E-01  8.03913209E-01  8.03913209E-01 -2.24932427E+00  2.64678908E+00
 -2.24932427E+00  2.64678908E+00  2.06094213E+00  2.69006704E+00  2.69006704E+00
 -7.92305604E+00  2.76705626E+00  2.06094213E+00 -2.40989918E+00 -2.95201260E+00
 -2.24932427E+00 -2.24932427E+00 -9.84915315E-01  2.86545667E+00 -1.59900683E+00
  2.65590022E+00 -2.96680911E+00  2.69006704E+00 -2.96680911E+00  2.69006704E+00
 -1.02044880E+00  2.46365496E+00  2.51012183E+00  1.91971931E+00  2.64678908E+00
  2.64678908E+00 -1.02044880E+00 -9.84915315E-01 -9.84915315E-01 -9.84915315E-01
 -5.95686987E+00 -1.59900683E+00 -2.40989918E+00 -2.40989918E+00 -1.02044880E+00
 -2.40989918E+00 -1.02044880E+00  2.06276436E+00 -2.95201260E+00  2.51012183E+00
  2.76705626E+00  2.86545667E+00  2.76705626E+00  2.86545667E+00 -1.59900683E+00
  2.86545667E+00  2.76705626E+00 -1.59900683E+00  8.03913209E-01  8.03913209E-01
  8.03913209E-01  2.65590022E+00 -7.92305604E+00 -7.92305604E+00 -2.95201260E+00
  2.51012183E+00 -7.92305604E+00 -2.95201260E+00  2.51012183E+00  2.06094213E+00
  2.06094213E+00  2.06094213E+00  2.06094213E+00  2.65590022E+00  2.06094213E+00
  2.06094213E+00  2.65590022E+00 -2.24932427E+00 -2.24932427E+00 -2.24932427E+00
 -2.24932427E+00 -2.24932427E+00 -2.24932427E+00 -2.24932427E+00 -2.24932427E+00
 -2.24932427E+00 -2.24932427E+00 -2.24932427E+00 -2.24932427E+00 -2.96680911E+00
  2.69006704E+00 -2.96680911E+00  2.69006704E+00  2.69006704E+00 -2.96680911E+00
  2.69006704E+00 -2.96680911E+00 -2.96680911E+00  2.69006704E+00 -2.96680911E+00
  2.69006704E+00 -2.96680911E+00  2.69006704E+00 -2.96680911E+00  2.69006704E+00
 -2.96680911E+00  2.69006704E+00 -2.96680911E+00  2.69006704E+00 -2.96680911E+00
  2.69006704E+00 -2.96680911E+00  2.69006704E+00  1.91971931E+00  2.64678908E+00
  2.64678908E+00  1.91971931E+00  2.64678908E+00  2.64678908E+00  2.64678908E+00
  1.91971931E+00  2.64678908E+00  1.91971931E+00  2.64678908E+00  2.64678908E+00
  1.91971931E+00  2.64678908E+00  2.64678908E+00  1.91971931E+00  2.64678908E+00
  2.64678908E+00 -5.95686987E+00 -5.95686987E+00 -5.95686987E+00 -5.95686987E+00
 -5.95686987E+00 -5.95686987E+00  2.06276436E+00  2.06276436E+00  2.06276436E+00
  2.06276436E+00  2.06276436E+00  2.06276436E+00  8.03913209E-01  8.03913209E-01
  8.03913209E-01  8.03913209E-01  8.03913209E-01  8.03913209E-01  8.03913209E-01
  8.03913209E-01  8.03913209E-01  8.03913209E-01  8.03913209E-01  8.03913209E-01
  8.03913209E-01  8.03913209E-01  8.03913209E-01  8.03913209E-01  8.03913209E-01
  8.03913209E-01 -5.95686987E+00  1.91971931E+00  2.06276436E+00 -2.96680911E+00
 -2.96680911E+00  8.03913209E-01  8.03913209E-01  8.03913209E-01 -2.24932427E+00
  2.64678908E+00 -2.24932427E+00  2.64678908E+00  2.06094213E+00  2.69006704E+00
  2.69006704E+00 -7.92305604E+00  2.76705626E+00  2.06094213E+00 -2.40989918E+00
 -2.95201260E+00 -2.24932427E+00 -2.24932427E+00 -9.84915315E-01  2.86545667E+00
 -1.59900683E+00  2.65590022E+00 -2.96680911E+00  2.69006704E+00 -2.96680911E+00
  2.69006704E+00 -1.02044880E+00  2.46365496E+00  2.51012183E+00  1.91971931E+00
  2.64678908E+00  2.64678908E+00 -1.02044880E+00 -9.84915315E-01 -9.84915315E-01
 -9.84915315E-01 -5.95686987E+00 -1.59900683E+00 -2.40989918E+00 -2.40989918E+00
 -1.02044880E+00 -2.40989918E+00 -1.02044880E+00  2.06276436E+00 -2.95201260E+00
  2.51012183E+00  2.76705626E+00  2.86545667E+00  2.76705626E+00  2.86545667E+00
 -1.59900683E+00  2.86545667E+00  2.76705626E+00 -1.59900683E+00  8.03913209E-01
  8.03913209E-01  8.03913209E-01  2.65590022E+00 -7.92305604E+00 -7.92305604E+00
 -2.95201260E+00  2.51012183E+00 -7.92305604E+00 -2.95201260E+00  2.51012183E+00
  2.06094213E+00  2.06094213E+00  2.06094213E+00  2.06094213E+00  2.65590022E+00
  2.06094213E+00  2.06094213E+00  2.65590022E+00 -2.24932427E+00 -2.24932427E+00
 -2.24932427E+00 -2.24932427E+00 -2.24932427E+00 -2.24932427E+00 -2.24932427E+00
 -2.24932427E+00 -2.24932427E+00 -2.24932427E+00 -2.24932427E+00 -2.24932427E+00
 -2.96680911E+00  2.69006704E+00 -2.96680911E+00  2.69006704E+00  2.69006704E+00
 -2.96680911E+00  2.69006704E+00 -2.96680911E+00 -2.96680911E+00  2.69006704E+00
 -2.96680911E+00  2.69006704E+00 -2.96680911E+00  2.69006704E+00 -2.96680911E+00
  2.69006704E+00 -2.96680911E+00  2.69006704E+00 -2.96680911E+00  2.69006704E+00
 -2.96680911E+00  2.69006704E+00 -2.96680911E+00  2.69006704E+00  1.91971931E+00
  2.64678908E+00  2.64678908E+00  1.91971931E+00  2.64678908E+00  2.64678908E+00
  2.64678908E+00  1.91971931E+00  2.64678908E+00  1.91971931E+00  2.64678908E+00
  2.64678908E+00  1.91971931E+00  2.64678908E+00  2.64678908E+00  1.91971931E+00
  2.64678908E+00  2.64678908E+00 -5.95686987E+00 -5.95686987E+00 -5.95686987E+00
 -5.95686987E+00 -5.95686987E+00 -5.95686987E+00  2.06276436E+00  2.06276436E+00
  2.06276436E+00  2.06276436E+00  2.06276436E+00  2.06276436E+00  8.03913209E-01
  8.03913209E-01  8.03913209E-01  8.03913209E-01  8.03913209E-01  8.03913209E-01
  8.03913209E-01  8.03913209E-01  8.03913209E-01  8.03913209E-01  8.03913209E-01
  8.03913209E-01  8.03913209E-01  8.03913209E-01  8.03913209E-01  8.03913209E-01
  8.03913209E-01  8.03913209E-01 -5.95686987E+00  1.91971931E+00  2.06276436E+00
 -2.96680911E+00 -2.96680911E+00  8.03913209E-01  8.03913209E-01  8.03913209E-01
 -2.24932427E+00  2.64678908E+00 -2.24932427E+00  2.64678908E+00  2.06094213E+00
  2.69006704E+00  2.69006704E+00 -7.92305604E+00  2.76705626E+00  2.06094213E+00
 -2.40989918E+00 -2.95201260E+00 -2.24932427E+00 -2.24932427E+00 -9.84915315E-01
  2.86545667E+00 -1.59900683E+00  2.65590022E+00 -2.96680911E+00  2.69006704E+00
 -2.96680911E+00  2.69006704E+00 -1.02044880E+00  2.46365496E+00  2.51012183E+00
  1.91971931E+00  2.64678908E+00  2.64678908E+00 -1.02044880E+00 -9.84915315E-01
 -9.84915315E-01 -9.84915315E-01 -5.95686987E+00 -1.59900683E+00 -2.40989918E+00
 -2.40989918E+00 -1.02044880E+00 -2.40989918E+00 -1.02044880E+00  2.06276436E+00
 -2.95201260E+00  2.51012183E+00  2.76705626E+00  2.86545667E+00  2.76705626E+00
  2.86545667E+00 -1.59900683E+00  2.86545667E+00  2.76705626E+00 -1.59900683E+00
  8.03913209E-01  8.03913209E-01  8.03913209E-01  2.65590022E+00 -7.92305604E+00
 -7.92305604E+00 -2.95201260E+00  2.51012183E+00 -7.92305604E+00 -2.95201260E+00
  2.51012183E+00  2.06094213E+00  2.06094213E+00  2.06094213E+00  2.06094213E+00
  2.65590022E+00  2.06094213E+00  2.06094213E+00  2.65590022E+00 -2.24932427E+00
 -2.24932427E+00 -2.24932427E+00 -2.24932427E+00 -2.24932427E+00 -2.24932427E+00
 -2.24932427E+00 -2.24932427E+00 -2.24932427E+00 -2.24932427E+00 -2.24932427E+00
 -2.24932427E+00 -2.96680911E+00  2.69006704E+00 -2.96680911E+00  2.69006704E+00
  2.69006704E+00 -2.96680911E+00  2.69006704E+00 -2.96680911E+00 -2.96680911E+00
  2.69006704E+00 -2.96680911E+00  2.69006704E+00 -2.96680911E+00  2.69006704E+00
 -2.96680911E+00  2.69006704E+00 -2.96680911E+00  2.69006704E+00 -2.96680911E+00
  2.69006704E+00 -2.96680911E+00  2.69006704E+00 -2.96680911E+00  2.69006704E+00
  1.91971931E+00  2.64678908E+00  2.64678908E+00  1.91971931E+00  2.64678908E+00
  2.64678908E+00  2.64678908E+00  1.91971931E+00  2.64678908E+00  1.91971931E+00
  2.64678908E+00  2.64678908E+00  1.91971931E+00  2.64678908E+00  2.64678908E+00
  1.91971931E+00  2.64678908E+00  2.64678908E+00 -5.95686987E+00 -5.95686987E+00
 -5.95686987E+00 -5.95686987E+00 -5.95686987E+00 -5.95686987E+00  2.06276436E+00
  2.06276436E+00  2.06276436E+00  2.06276436E+00  2.06276436E+00  2.06276436E+00
  8.03913209E-01  8.03913209E-01  8.03913209E-01  8.03913209E-01  8.03913209E-01
  8.03913209E-01  8.03913209E-01  8.03913209E-01  8.03913209E-01  8.03913209E-01
  8.03913209E-01  8.03913209E-01  8.03913209E-01  8.03913209E-01  8.03913209E-01
  8.03913209E-01  8.03913209E-01  8.03913209E-01 -5.95686987E+00  1.91971931E+00
  2.06276436E+00 -2.96680911E+00 -2.96680911E+00  8.03913209E-01  8.03913209E-01
  8.03913209E-01 -2.24932427E+00  2.64678908E+00 -2.24932427E+00  2.64678908E+00
  2.06094213E+00  2.69006704E+00  2.69006704E+00 -7.92305604E+00  2.76705626E+00
  2.06094213E+00 -2.40989918E+00 -2.95201260E+00 -2.24932427E+00 -2.24932427E+00
 -9.84915315E-01  2.86545667E+00 -1.59900683E+00  2.65590022E+00 -2.96680911E+00
  2.69006704E+00 -2.96680911E+00  2.69006704E+00 -1.02044880E+00  2.46365496E+00
  2.51012183E+00  1.91971931E+00  2.64678908E+00  2.64678908E+00 -1.02044880E+00
 -9.84915315E-01 -9.84915315E-01 -9.84915315E-01 -5.95686987E+00 -1.59900683E+00
 -2.40989918E+00 -2.40989918E+00 -1.02044880E+00 -2.40989918E+00 -1.02044880E+00
  2.06276436E+00 -2.95201260E+00  2.51012183E+00  2.76705626E+00  2.86545667E+00
  2.76705626E+00  2.86545667E+00 -1.59900683E+00  2.86545667E+00  2.76705626E+00
 -1.59900683E+00  8.03913209E-01  8.03913209E-01  8.03913209E-01  2.65590022E+00
 -7.92305604E+00 -7.92305604E+00 -2.95201260E+00  2.51012183E+00 -7.92305604E+00
 -2.95201260E+00  2.51012183E+00  2.06094213E+00  2.06094213E+00  2.06094213E+00
  2.06094213E+00  2.65590022E+00  2.06094213E+00  2.06094213E+00  2.65590022E+00
 -2.24932427E+00 -2.24932427E+00 -2.24932427E+00 -2.24932427E+00 -2.24932427E+00
 -2.24932427E+00 -2.24932427E+00 -2.24932427E+00 -2.24932427E+00 -2.24932427E+00
 -2.24932427E+00 -2.24932427E+00 -2.96680911E+00  2.69006704E+00 -2.96680911E+00
  2.69006704E+00  2.69006704E+00 -2.96680911E+00  2.69006704E+00 -2.96680911E+00
 -2.96680911E+00  2.69006704E+00 -2.96680911E+00  2.69006704E+00 -2.96680911E+00
  2.69006704E+00 -2.96680911E+00  2.69006704E+00 -2.96680911E+00  2.69006704E+00
 -2.96680911E+00  2.69006704E+00 -2.96680911E+00  2.69006704E+00 -2.96680911E+00
  2.69006704E+00  1.91971931E+00  2.64678908E+00  2.64678908E+00  1.91971931E+00
  2.64678908E+00  2.64678908E+00  2.64678908E+00  1.91971931E+00  2.64678908E+00
  1.91971931E+00  2.64678908E+00  2.64678908E+00  1.91971931E+00  2.64678908E+00
  2.64678908E+00  1.91971931E+00  2.64678908E+00  2.64678908E+00 -5.95686987E+00
 -5.95686987E+00 -5.95686987E+00 -5.95686987E+00 -5.95686987E+00 -5.95686987E+00
  2.06276436E+00  2.06276436E+00  2.06276436E+00  2.06276436E+00  2.06276436E+00
  2.06276436E+00  8.03913209E-01  8.03913209E-01  8.03913209E-01  8.03913209E-01
  8.03913209E-01  8.03913209E-01  8.03913209E-01  8.03913209E-01  8.03913209E-01
  8.03913209E-01  8.03913209E-01  8.03913209E-01  8.03913209E-01  8.03913209E-01
  8.03913209E-01  8.03913209E-01  8.03913209E-01  8.03913209E-01 -5.95686987E+00
  1.91971931E+00  2.06276436E+00 -2.96680911E+00 -2.96680911E+00  8.03913209E-01
  8.03913209E-01  8.03913209E-01 -2.24932427E+00  2.64678908E+00 -2.24932427E+00
  2.64678908E+00  2.06094213E+00  2.69006704E+00  2.69006704E+00 -7.92305604E+00
  2.76705626E+00  2.06094213E+00 -2.40989918E+00 -2.95201260E+00 -2.24932427E+00
 -2.24932427E+00 -9.84915315E-01  2.86545667E+00 -1.59900683E+00  2.65590022E+00
 -2.96680911E+00  2.69006704E+00 -2.96680911E+00  2.69006704E+00 -1.02044880E+00
  2.46365496E+00  2.51012183E+00  1.91971931E+00  2.64678908E+00  2.64678908E+00
 -1.02044880E+00 -9.84915315E-01 -9.84915315E-01 -9.84915315E-01 -5.95686987E+00
 -1.59900683E+00 -2.40989918E+00 -2.40989918E+00 -1.02044880E+00 -2.40989918E+00
 -1.02044880E+00  2.06276436E+00 -2.95201260E+00  2.51012183E+00  2.76705626E+00
  2.86545667E+00  2.76705626E+00  2.86545667E+00 -1.59900683E+00  2.86545667E+00
  2.76705626E+00 -1.59900683E+00  8.03913209E-01  8.03913209E-01  8.03913209E-01
  2.65590022E+00 -7.92305604E+00 -7.92305604E+00 -2.95201260E+00  2.51012183E+00
 -7.92305604E+00 -2.95201260E+00  2.51012183E+00  2.06094213E+00  2.06094213E+00
  2.06094213E+00  2.06094213E+00  2.65590022E+00  2.06094213E+00  2.06094213E+00
  2.65590022E+00 -2.24932427E+00 -2.24932427E+00 -2.24932427E+00 -2.24932427E+00
 -2.24932427E+00 -2.24932427E+00 -2.24932427E+00 -2.24932427E+00 -2.24932427E+00
 -2.24932427E+00 -2.24932427E+00 -2.24932427E+00 -2.96680911E+00  2.69006704E+00
 -2.96680911E+00  2.69006704E+00  2.69006704E+00 -2.96680911E+00  2.69006704E+00
 -2.96680911E+00 -2.96680911E+00  2.69006704E+00 -2.96680911E+00  2.69006704E+00
 -2.96680911E+00  2.69006704E+00 -2.96680911E+00  2.69006704E+00 -2.96680911E+00
  2.69006704E+00 -2.96680911E+00  2.69006704E+00 -2.96680911E+00  2.69006704E+00
 -2.96680911E+00  2.69006704E+00  1.91971931E+00  2.64678908E+00  2.64678908E+00
  1.91971931E+00  2.64678908E+00  2.64678908E+00  2.64678908E+00  1.91971931E+00
  2.64678908E+00  1.91971931E+00  2.64678908E+00  2.64678908E+00  1.91971931E+00
  2.64678908E+00  2.64678908E+00  1.91971931E+00  2.64678908E+00  2.64678908E+00
 -5.95686987E+00 -5.95686987E+00 -5.95686987E+00 -5.95686987E+00 -5.95686987E+00
 -5.95686987E+00  2.06276436E+00  2.06276436E+00  2.06276436E+00  2.06276436E+00
  2.06276436E+00  2.06276436E+00  8.03913209E-01  8.03913209E-01  8.03913209E-01
  8.03913209E-01  8.03913209E-01  8.03913209E-01  8.03913209E-01  8.03913209E-01
  8.03913209E-01  8.03913209E-01  8.03913209E-01  8.03913209E-01  8.03913209E-01
  8.03913209E-01  8.03913209E-01  8.03913209E-01  8.03913209E-01  8.03913209E-01
 -5.95686987E+00  1.91971931E+00  2.06276436E+00 -2.96680911E+00 -2.96680911E+00
  8.03913209E-01  8.03913209E-01  8.03913209E-01 -2.24932427E+00  2.64678908E+00
 -2.24932427E+00  2.64678908E+00  2.06094213E+00  2.69006704E+00  2.69006704E+00
 -7.92305604E+00  2.76705626E+00  2.06094213E+00 -2.40989918E+00 -2.95201260E+00
 -2.24932427E+00 -2.24932427E+00 -9.84915315E-01  2.86545667E+00 -1.59900683E+00
  2.65590022E+00 -2.96680911E+00  2.69006704E+00 -2.96680911E+00  2.69006704E+00
 -1.02044880E+00  2.46365496E+00  2.51012183E+00  1.91971931E+00  2.64678908E+00
  2.64678908E+00 -1.02044880E+00 -9.84915315E-01 -9.84915315E-01 -9.84915315E-01
 -5.95686987E+00 -1.59900683E+00 -2.40989918E+00 -2.40989918E+00 -1.02044880E+00
 -2.40989918E+00 -1.02044880E+00  2.06276436E+00 -2.95201260E+00  2.51012183E+00
  2.76705626E+00  2.86545667E+00  2.76705626E+00  2.86545667E+00 -1.59900683E+00
  2.86545667E+00  2.76705626E+00 -1.59900683E+00  8.03913209E-01  8.03913209E-01
  8.03913209E-01  2.65590022E+00 -7.92305604E+00 -7.92305604E+00 -2.95201260E+00
  2.51012183E+00 -7.92305604E+00 -2.95201260E+00  2.51012183E+00  2.06094213E+00
  2.06094213E+00  2.06094213E+00  2.06094213E+00  2.65590022E+00  2.06094213E+00
  2.06094213E+00  2.65590022E+00 -2.24932427E+00 -2.24932427E+00 -2.24932427E+00
 -2.24932427E+00 -2.24932427E+00 -2.24932427E+00 -2.24932427E+00 -2.24932427E+00
 -2.24932427E+00 -2.24932427E+00 -2.24932427E+00 -2.24932427E+00 -2.96680911E+00
  2.69006704E+00 -2.96680911E+00  2.69006704E+00  2.69006704E+00 -2.96680911E+00
  2.69006704E+00 -2.96680911E+00 -2.96680911E+00  2.69006704E+00 -2.96680911E+00
  2.69006704E+00 -2.96680911E+00  2.69006704E+00 -2.96680911E+00  2.69006704E+00
 -2.96680911E+00  2.69006704E+00 -2.96680911E+00  2.69006704E+00 -2.96680911E+00
  2.69006704E+00 -2.96680911E+00  2.69006704E+00  1.91971931E+00  2.64678908E+00
  2.64678908E+00  1.91971931E+00  2.64678908E+00  2.64678908E+00  2.64678908E+00
  1.91971931E+00  2.64678908E+00  1.91971931E+00  2.64678908E+00  2.64678908E+00
  1.91971931E+00  2.64678908E+00  2.64678908E+00  1.91971931E+00  2.64678908E+00
  2.64678908E+00 -5.95686987E+00 -5.95686987E+00 -5.95686987E+00 -5.95686987E+00
 -5.95686987E+00 -5.95686987E+00  2.06276436E+00  2.06276436E+00  2.06276436E+00
  2.06276436E+00  2.06276436E+00  2.06276436E+00  8.03913209E-01  8.03913209E-01
  8.03913209E-01  8.03913209E-01  8.03913209E-01  8.03913209E-01  8.03913209E-01
  8.03913209E-01  8.03913209E-01  8.03913209E-01  8.03913209E-01  8.03913209E-01
  8.03913209E-01  8.03913209E-01  8.03913209E-01  8.03913209E-01  8.03913209E-01
  8.03913209E-01 -5.95686987E+00  1.91971931E+00  2.06276436E+00 -2.96680911E+00
 -2.96680911E+00  8.03913209E-01  8.03913209E-01  8.03913209E-01 -2.24932427E+00
  2.64678908E+00 -2.24932427E+00  2.64678908E+00  2.06094213E+00  2.69006704E+00
  2.69006704E+00 -7.92305604E+00  2.76705626E+00  2.06094213E+00 -2.40989918E+00
 -2.95201260E+00 -2.24932427E+00 -2.24932427E+00 -9.84915315E-01  2.86545667E+00
 -1.59900683E+00  2.65590022E+00 -2.96680911E+00  2.69006704E+00 -2.96680911E+00
  2.69006704E+00 -1.02044880E+00  2.46365496E+00  2.51012183E+00  1.91971931E+00
  2.64678908E+00  2.64678908E+00 -1.02044880E+00 -9.84915315E-01 -9.84915315E-01
 -9.84915315E-01 -5.95686987E+00 -1.59900683E+00 -2.40989918E+00 -2.40989918E+00
 -1.02044880E+00 -2.40989918E+00 -1.02044880E+00  2.06276436E+00 -2.95201260E+00
  2.51012183E+00  2.76705626E+00  2.86545667E+00  2.76705626E+00  2.86545667E+00
 -1.59900683E+00  2.86545667E+00  2.76705626E+00 -1.59900683E+00  8.03913209E-01
  8.03913209E-01  8.03913209E-01  2.65590022E+00 -7.92305604E+00 -7.92305604E+00
 -2.95201260E+00  2.51012183E+00 -7.92305604E+00 -2.95201260E+00  2.51012183E+00
  2.06094213E+00  2.06094213E+00  2.06094213E+00  2.06094213E+00  2.65590022E+00
  2.06094213E+00  2.06094213E+00  2.65590022E+00 -2.24932427E+00 -2.24932427E+00
 -2.24932427E+00 -2.24932427E+00 -2.24932427E+00 -2.24932427E+00 -2.24932427E+00
 -2.24932427E+00 -2.24932427E+00 -2.24932427E+00 -2.24932427E+00 -2.24932427E+00
 -2.96680911E+00  2.69006704E+00 -2.96680911E+00  2.69006704E+00  2.69006704E+00
 -2.96680911E+00  2.69006704E+00 -2.96680911E+00 -2.96680911E+00  2.69006704E+00
 -2.96680911E+00  2.69006704E+00 -2.96680911E+00  2.69006704E+00 -2.96680911E+00
  2.69006704E+00 -2.96680911E+00  2.69006704E+00 -2.96680911E+00  2.69006704E+00
 -2.96680911E+00  2.69006704E+00 -2.96680911E+00  2.69006704E+00  1.91971931E+00
  2.64678908E+00  2.64678908E+00  1.91971931E+00  2.64678908E+00  2.64678908E+00
  2.64678908E+00  1.91971931E+00  2.64678908E+00  1.91971931E+00  2.64678908E+00
  2.64678908E+00  1.91971931E+00  2.64678908E+00  2.64678908E+00  1.91971931E+00
  2.64678908E+00  2.64678908E+00 -5.95686987E+00 -5.95686987E+00 -5.95686987E+00
 -5.95686987E+00 -5.95686987E+00 -5.95686987E+00  2.06276436E+00  2.06276436E+00
  2.06276436E+00  2.06276436E+00  2.06276436E+00  2.06276436E+00  8.03913209E-01
  8.03913209E-01  8.03913209E-01  8.03913209E-01  8.03913209E-01  8.03913209E-01
  8.03913209E-01  8.03913209E-01  8.03913209E-01  8.03913209E-01  8.03913209E-01
  8.03913209E-01  8.03913209E-01  8.03913209E-01  8.03913209E-01  8.03913209E-01
  8.03913209E-01  8.03913209E-01 -5.95686987E+00  1.91971931E+00  2.06276436E+00
 -2.96680911E+00 -2.96680911E+00  8.03913209E-01  8.03913209E-01  8.03913209E-01
 -2.24932427E+00  2.64678908E+00 -2.24932427E+00  2.64678908E+00  2.06094213E+00
  2.69006704E+00  2.69006704E+00 -7.92305604E+00  2.76705626E+00  2.06094213E+00
 -2.40989918E+00 -2.95201260E+00 -2.24932427E+00 -2.24932427E+00 -9.84915315E-01
  2.86545667E+00 -1.59900683E+00  2.65590022E+00 -2.96680911E+00  2.69006704E+00
 -2.96680911E+00  2.69006704E+00 -1.02044880E+00  2.46365496E+00  2.51012183E+00
  1.91971931E+00  2.64678908E+00  2.64678908E+00 -1.02044880E+00 -9.84915315E-01
 -9.84915315E-01 -9.84915315E-01 -5.95686987E+00 -1.59900683E+00 -2.40989918E+00
 -2.40989918E+00 -1.02044880E+00 -2.40989918E+00 -1.02044880E+00  2.06276436E+00
 -2.95201260E+00  2.51012183E+00  2.76705626E+00  2.86545667E+00  2.76705626E+00
  2.86545667E+00 -1.59900683E+00  2.86545667E+00  2.76705626E+00 -1.59900683E+00
  8.03913209E-01  8.03913209E-01  8.03913209E-01  2.65590022E+00 -7.92305604E+00
 -7.92305604E+00 -2.95201260E+00  2.51012183E+00 -7.92305604E+00 -2.95201260E+00
  2.51012183E+00  2.06094213E+00  2.06094213E+00  2.06094213E+00  2.06094213E+00
  2.65590022E+00  2.06094213E+00  2.06094213E+00  2.65590022E+00 -2.24932427E+00
 -2.24932427E+00 -2.24932427E+00 -2.24932427E+00 -2.24932427E+00 -2.24932427E+00
 -2.24932427E+00 -2.24932427E+00 -2.24932427E+00 -2.24932427E+00 -2.24932427E+00
 -2.24932427E+00 -2.96680911E+00  2.69006704E+00 -2.96680911E+00  2.69006704E+00
  2.69006704E+00 -2.96680911E+00  2.69006704E+00 -2.96680911E+00 -2.96680911E+00
  2.69006704E+00 -2.96680911E+00  2.69006704E+00 -2.96680911E+00  2.69006704E+00
 -2.96680911E+00  2.69006704E+00 -2.96680911E+00  2.69006704E+00 -2.96680911E+00
  2.69006704E+00 -2.96680911E+00  2.69006704E+00 -2.96680911E+00  2.69006704E+00
  1.91971931E+00  2.64678908E+00  2.64678908E+00  1.91971931E+00  2.64678908E+00
  2.64678908E+00  2.64678908E+00  1.91971931E+00  2.64678908E+00  1.91971931E+00
  2.64678908E+00  2.64678908E+00  1.91971931E+00  2.64678908E+00  2.64678908E+00
  1.91971931E+00  2.64678908E+00  2.64678908E+00 -5.95686987E+00 -5.95686987E+00
 -5.95686987E+00 -5.95686987E+00 -5.95686987E+00 -5.95686987E+00  2.06276436E+00
  2.06276436E+00  2.06276436E+00  2.06276436E+00  2.06276436E+00  2.06276436E+00
  8.03913209E-01  8.03913209E-01  8.03913209E-01  8.03913209E-01  8.03913209E-01
  8.03913209E-01  8.03913209E-01  8.03913209E-01  8.03913209E-01  8.03913209E-01
  8.03913209E-01  8.03913209E-01  8.03913209E-01  8.03913209E-01  8.03913209E-01
  8.03913209E-01  8.03913209E-01  8.03913209E-01 -5.95686987E+00  1.91971931E+00
  2.06276436E+00 -2.96680911E+00 -2.96680911E+00  8.03913209E-01  8.03913209E-01
  8.03913209E-01 -2.24932427E+00  2.64678908E+00 -2.24932427E+00  2.64678908E+00
  2.06094213E+00  2.69006704E+00  2.69006704E+00 -7.92305604E+00  2.76705626E+00
  2.06094213E+00 -2.40989918E+00 -2.95201260E+00 -2.24932427E+00 -2.24932427E+00
 -9.84915315E-01  2.86545667E+00 -1.59900683E+00  2.65590022E+00 -2.96680911E+00
  2.69006704E+00 -2.96680911E+00  2.69006704E+00 -1.02044880E+00  2.46365496E+00
  2.51012183E+00  1.91971931E+00  2.64678908E+00  2.64678908E+00 -1.02044880E+00
 -9.84915315E-01 -9.84915315E-01 -9.84915315E-01 -5.95686987E+00 -1.59900683E+00
 -2.40989918E+00 -2.40989918E+00 -1.02044880E+00 -2.40989918E+00 -1.02044880E+00
  2.06276436E+00 -2.95201260E+00  2.51012183E+00  2.76705626E+00  2.86545667E+00
  2.76705626E+00  2.86545667E+00 -1.59900683E+00  2.86545667E+00  2.76705626E+00
 -1.59900683E+00  8.03913209E-01  8.03913209E-01  8.03913209E-01  2.65590022E+00
 -7.92305604E+00 -7.92305604E+00 -2.95201260E+00  2.51012183E+00 -7.92305604E+00
 -2.95201260E+00  2.51012183E+00  2.06094213E+00  2.06094213E+00  2.06094213E+00
  2.06094213E+00  2.65590022E+00  2.06094213E+00  2.06094213E+00  2.65590022E+00
 -2.24932427E+00 -2.24932427E+00 -2.24932427E+00 -2.24932427E+00 -2.24932427E+00
 -2.24932427E+00 -2.24932427E+00 -2.24932427E+00 -2.24932427E+00 -2.24932427E+00
 -2.24932427E+00 -2.24932427E+00 -2.96680911E+00  2.69006704E+00 -2.96680911E+00
  2.69006704E+00  2.69006704E+00 -2.96680911E+00  2.69006704E+00 -2.96680911E+00
 -2.96680911E+00  2.69006704E+00 -2.96680911E+00  2.69006704E+00 -2.96680911E+00
  2.69006704E+00 -2.96680911E+00  2.69006704E+00 -2.96680911E+00  2.69006704E+00
 -2.96680911E+00  2.69006704E+00 -2.96680911E+00  2.69006704E+00 -2.96680911E+00
  2.69006704E+00  1.91971931E+00  2.64678908E+00  2.64678908E+00  1.91971931E+00
  2.64678908E+00  2.64678908E+00  2.64678908E+00  1.91971931E+00  2.64678908E+00
  1.91971931E+00  2.64678908E+00  2.64678908E+00  1.91971931E+00  2.64678908E+00
  2.64678908E+00  1.91971931E+00  2.64678908E+00  2.64678908E+00 -5.95686987E+00
 -5.95686987E+00 -5.95686987E+00 -5.95686987E+00 -5.95686987E+00 -5.95686987E+00
  2.06276436E+00  2.06276436E+00  2.06276436E+00  2.06276436E+00  2.06276436E+00
  2.06276436E+00  8.03913209E-01  8.03913209E-01  8.03913209E-01  8.03913209E-01
  8.03913209E-01  8.03913209E-01  8.03913209E-01  8.03913209E-01  8.03913209E-01
  8.03913209E-01  8.03913209E-01  8.03913209E-01  8.03913209E-01  8.03913209E-01
  8.03913209E-01  8.03913209E-01  8.03913209E-01  8.03913209E-01 -5.95686987E+00
  1.91971931E+00  2.06276436E+00 -2.96680911E+00 -2.96680911E+00  8.03913209E-01
  8.03913209E-01  8.03913209E-01 -2.24932427E+00  2.64678908E+00 -2.24932427E+00
  2.64678908E+00  2.06094213E+00  2.69006704E+00  2.69006704E+00 -7.92305604E+00
  2.76705626E+00  2.06094213E+00 -2.40989918E+00 -2.95201260E+00 -2.24932427E+00
 -2.24932427E+00 -9.84915315E-01  2.86545667E+00 -1.59900683E+00  2.65590022E+00
 -2.96680911E+00  2.69006704E+00 -2.96680911E+00  2.69006704E+00 -1.02044880E+00
  2.46365496E+00  2.51012183E+00  1.91971931E+00  2.64678908E+00  2.64678908E+00
 -1.02044880E+00 -9.84915315E-01 -9.84915315E-01 -9.84915315E-01 -5.95686987E+00
 -1.59900683E+00 -2.40989918E+00 -2.40989918E+00 -1.02044880E+00 -2.40989918E+00
 -1.02044880E+00  2.06276436E+00 -2.95201260E+00  2.51012183E+00  2.76705626E+00
  2.86545667E+00  2.76705626E+00  2.86545667E+00 -1.59900683E+00  2.86545667E+00
  2.76705626E+00 -1.59900683E+00  8.03913209E-01  8.03913209E-01  8.03913209E-01
  2.65590022E+00 -7.92305604E+00 -7.92305604E+00 -2.95201260E+00  2.51012183E+00
 -7.92305604E+00 -2.95201260E+00  2.51012183E+00  2.06094213E+00  2.06094213E+00
  2.06094213E+00  2.06094213E+00  2.65590022E+00  2.06094213E+00  2.06094213E+00
  2.65590022E+00 -2.24932427E+00 -2.24932427E+00 -2.24932427E+00 -2.24932427E+00
 -2.24932427E+00 -2.24932427E+00 -2.24932427E+00 -2.24932427E+00 -2.24932427E+00
 -2.24932427E+00 -2.24932427E+00 -2.24932427E+00 -2.96680911E+00  2.69006704E+00
 -2.96680911E+00  2.69006704E+00  2.69006704E+00 -2.96680911E+00  2.69006704E+00
 -2.96680911E+00 -2.96680911E+00  2.69006704E+00 -2.96680911E+00  2.69006704E+00
 -2.96680911E+00  2.69006704E+00 -2.96680911E+00  2.69006704E+00 -2.96680911E+00
  2.69006704E+00 -2.96680911E+00  2.69006704E+00 -2.96680911E+00  2.69006704E+00
 -2.96680911E+00  2.69006704E+00  1.91971931E+00  2.64678908E+00  2.64678908E+00
  1.91971931E+00  2.64678908E+00  2.64678908E+00  2.64678908E+00  1.91971931E+00
  2.64678908E+00  1.91971931E+00  2.64678908E+00  2.64678908E+00  1.91971931E+00
  2.64678908E+00  2.64678908E+00  1.91971931E+00  2.64678908E+00  2.64678908E+00
 -5.95686987E+00 -5.95686987E+00 -5.95686987E+00 -5.95686987E+00 -5.95686987E+00
 -5.95686987E+00  2.06276436E+00  2.06276436E+00  2.06276436E+00  2.06276436E+00
  2.06276436E+00  2.06276436E+00  8.03913209E-01  8.03913209E-01  8.03913209E-01
  8.03913209E-01  8.03913209E-01  8.03913209E-01  8.03913209E-01  8.03913209E-01
  8.03913209E-01  8.03913209E-01  8.03913209E-01  8.03913209E-01  8.03913209E-01
  8.03913209E-01  8.03913209E-01  8.03913209E-01  8.03913209E-01  8.03913209E-01
 -5.95686987E+00  1.91971931E+00  2.06276436E+00 -2.96680911E+00 -2.96680911E+00
  8.03913209E-01  8.03913209E-01  8.03913209E-01 -2.24932427E+00  2.64678908E+00
 -2.24932427E+00  2.64678908E+00  2.06094213E+00  2.69006704E+00  2.69006704E+00
 -7.92305604E+00  2.76705626E+00  2.06094213E+00 -2.40989918E+00 -2.95201260E+00
 -2.24932427E+00 -2.24932427E+00 -9.84915315E-01  2.86545667E+00 -1.59900683E+00
  2.65590022E+00 -2.96680911E+00  2.69006704E+00 -2.96680911E+00  2.69006704E+00
 -1.02044880E+00  2.46365496E+00  2.51012183E+00  1.91971931E+00  2.64678908E+00
  2.64678908E+00 -1.02044880E+00 -9.84915315E-01 -9.84915315E-01 -9.84915315E-01
 -5.95686987E+00 -1.59900683E+00 -2.40989918E+00 -2.40989918E+00 -1.02044880E+00
 -2.40989918E+00 -1.02044880E+00  2.06276436E+00 -2.95201260E+00  2.51012183E+00
  2.76705626E+00  2.86545667E+00  2.76705626E+00  2.86545667E+00 -1.59900683E+00
  2.86545667E+00  2.76705626E+00 -1.59900683E+00  8.03913209E-01  8.03913209E-01
  8.03913209E-01  2.65590022E+00 -7.92305604E+00 -7.92305604E+00 -2.95201260E+00
  2.51012183E+00 -7.92305604E+00 -2.95201260E+00  2.51012183E+00  2.06094213E+00
  2.06094213E+00  2.06094213E+00  2.06094213E+00  2.65590022E+00  2.06094213E+00
  2.06094213E+00  2.65590022E+00 -2.24932427E+00 -2.24932427E+00 -2.24932427E+00
 -2.24932427E+00 -2.24932427E+00 -2.24932427E+00 -2.24932427E+00 -2.24932427E+00
 -2.24932427E+00 -2.24932427E+00 -2.24932427E+00 -2.24932427E+00 -2.96680911E+00
  2.69006704E+00 -2.96680911E+00  2.69006704E+00  2.69006704E+00 -2.96680911E+00
  2.69006704E+00 -2.96680911E+00 -2.96680911E+00  2.69006704E+00 -2.96680911E+00
  2.69006704E+00 -2.96680911E+00  2.69006704E+00 -2.96680911E+00  2.69006704E+00
 -2.96680911E+00  2.69006704E+00 -2.96680911E+00  2.69006704E+00 -2.96680911E+00
  2.69006704E+00 -2.96680911E+00  2.69006704E+00  1.91971931E+00  2.64678908E+00
  2.64678908E+00  1.91971931E+00  2.64678908E+00  2.64678908E+00  2.64678908E+00
  1.91971931E+00  2.64678908E+00  1.91971931E+00  2.64678908E+00  2.64678908E+00
  1.91971931E+00  2.64678908E+00  2.64678908E+00  1.91971931E+00  2.64678908E+00
  2.64678908E+00 -5.95686987E+00 -5.95686987E+00 -5.95686987E+00 -5.95686987E+00
 -5.95686987E+00 -5.95686987E+00  2.06276436E+00  2.06276436E+00  2.06276436E+00
  2.06276436E+00  2.06276436E+00  2.06276436E+00  8.03913209E-01  8.03913209E-01
  8.03913209E-01  8.03913209E-01  8.03913209E-01  8.03913209E-01  8.03913209E-01
  8.03913209E-01  8.03913209E-01  8.03913209E-01  8.03913209E-01  8.03913209E-01
  8.03913209E-01  8.03913209E-01  8.03913209E-01  8.03913209E-01  8.03913209E-01
  8.03913209E-01 -5.95686987E+00  1.91971931E+00  2.06276436E+00 -2.96680911E+00
 -2.96680911E+00  8.03913209E-01  8.03913209E-01  8.03913209E-01 -2.24932427E+00
  2.64678908E+00 -2.24932427E+00  2.64678908E+00  2.06094213E+00  2.69006704E+00
  2.69006704E+00 -7.92305604E+00  2.76705626E+00  2.06094213E+00 -2.40989918E+00
 -2.95201260E+00 -2.24932427E+00 -2.24932427E+00 -9.84915315E-01  2.86545667E+00
 -1.59900683E+00  2.65590022E+00 -2.96680911E+00  2.69006704E+00 -2.96680911E+00
  2.69006704E+00 -1.02044880E+00  2.46365496E+00  2.51012183E+00  1.91971931E+00
  2.64678908E+00  2.64678908E+00 -1.02044880E+00 -9.84915315E-01 -9.84915315E-01
 -9.84915315E-01 -5.95686987E+00 -1.59900683E+00 -2.40989918E+00 -2.40989918E+00
 -1.02044880E+00 -2.40989918E+00 -1.02044880E+00  2.06276436E+00 -2.95201260E+00
  2.51012183E+00  2.76705626E+00  2.86545667E+00  2.76705626E+00  2.86545667E+00
 -1.59900683E+00  2.86545667E+00  2.76705626E+00 -1.59900683E+00  8.03913209E-01
  8.03913209E-01  8.03913209E-01  2.65590022E+00 -7.92305604E+00 -7.92305604E+00
 -2.95201260E+00  2.51012183E+00 -7.92305604E+00 -2.95201260E+00  2.51012183E+00
  2.06094213E+00  2.06094213E+00  2.06094213E+00  2.06094213E+00  2.65590022E+00
  2.06094213E+00  2.06094213E+00  2.65590022E+00 -2.24932427E+00 -2.24932427E+00
 -2.24932427E+00 -2.24932427E+00 -2.24932427E+00 -2.24932427E+00 -2.24932427E+00
 -2.24932427E+00 -2.24932427E+00 -2.24932427E+00 -2.24932427E+00 -2.24932427E+00
 -2.96680911E+00  2.69006704E+00 -2.96680911E+00  2.69006704E+00  2.69006704E+00
 -2.96680911E+00  2.69006704E+00 -2.96680911E+00 -2.96680911E+00  2.69006704E+00
 -2.96680911E+00  2.69006704E+00 -2.96680911E+00  2.69006704E+00 -2.96680911E+00
  2.69006704E+00 -2.96680911E+00  2.69006704E+00 -2.96680911E+00  2.69006704E+00
 -2.96680911E+00  2.69006704E+00 -2.96680911E+00  2.69006704E+00  1.91971931E+00
  2.64678908E+00  2.64678908E+00  1.91971931E+00  2.64678908E+00  2.64678908E+00
  2.64678908E+00  1.91971931E+00  2.64678908E+00  1.91971931E+00  2.64678908E+00
  2.64678908E+00  1.91971931E+00  2.64678908E+00  2.64678908E+00  1.91971931E+00
  2.64678908E+00  2.64678908E+00 -5.95686987E+00 -5.95686987E+00 -5.95686987E+00
 -5.95686987E+00 -5.95686987E+00 -5.95686987E+00  2.06276436E+00  2.06276436E+00
  2.06276436E+00  2.06276436E+00  2.06276436E+00  2.06276436E+00  8.03913209E-01
  8.03913209E-01  8.03913209E-01  8.03913209E-01  8.03913209E-01  8.03913209E-01
  8.03913209E-01  8.03913209E-01  8.03913209E-01  8.03913209E-01  8.03913209E-01
  8.03913209E-01  8.03913209E-01  8.03913209E-01  8.03913209E-01  8.03913209E-01
  8.03913209E-01  8.03913209E-01 -5.95686987E+00  1.91971931E+00  2.06276436E+00
 -2.96680911E+00 -2.96680911E+00  8.03913209E-01  8.03913209E-01  8.03913209E-01
 -2.24932427E+00  2.64678908E+00 -2.24932427E+00  2.64678908E+00  2.06094213E+00
  2.69006704E+00  2.69006704E+00 -7.92305604E+00  2.76705626E+00  2.06094213E+00
 -2.40989918E+00 -2.95201260E+00 -2.24932427E+00 -2.24932427E+00 -9.84915315E-01
  2.86545667E+00 -1.59900683E+00  2.65590022E+00 -2.96680911E+00  2.69006704E+00
 -2.96680911E+00  2.69006704E+00 -1.02044880E+00  2.46365496E+00  2.51012183E+00
  1.91971931E+00  2.64678908E+00  2.64678908E+00 -1.02044880E+00 -9.84915315E-01
 -9.84915315E-01 -9.84915315E-01 -5.95686987E+00 -1.59900683E+00 -2.40989918E+00
 -2.40989918E+00 -1.02044880E+00 -2.40989918E+00 -1.02044880E+00  2.06276436E+00
 -2.95201260E+00  2.51012183E+00  2.76705626E+00  2.86545667E+00  2.76705626E+00
  2.86545667E+00 -1.59900683E+00  2.86545667E+00  2.76705626E+00 -1.59900683E+00
  8.03913209E-01  8.03913209E-01  8.03913209E-01  2.65590022E+00 -7.92305604E+00
 -7.92305604E+00 -2.95201260E+00  2.51012183E+00 -7.92305604E+00 -2.95201260E+00
  2.51012183E+00  2.06094213E+00  2.06094213E+00  2.06094213E+00  2.06094213E+00
  2.65590022E+00  2.06094213E+00  2.06094213E+00  2.65590022E+00 -2.24932427E+00
 -2.24932427E+00 -2.24932427E+00 -2.24932427E+00 -2.24932427E+00 -2.24932427E+00
 -2.24932427E+00 -2.24932427E+00 -2.24932427E+00 -2.24932427E+00 -2.24932427E+00
 -2.24932427E+00 -2.96680911E+00  2.69006704E+00 -2.96680911E+00  2.69006704E+00
  2.69006704E+00 -2.96680911E+00  2.69006704E+00 -2.96680911E+00 -2.96680911E+00
  2.69006704E+00 -2.96680911E+00  2.69006704E+00 -2.96680911E+00  2.69006704E+00
 -2.96680911E+00  2.69006704E+00 -2.96680911E+00  2.69006704E+00 -2.96680911E+00
  2.69006704E+00 -2.96680911E+00  2.69006704E+00 -2.96680911E+00  2.69006704E+00
  1.91971931E+00  2.64678908E+00  2.64678908E+00  1.91971931E+00  2.64678908E+00
  2.64678908E+00  2.64678908E+00  1.91971931E+00  2.64678908E+00  1.91971931E+00
  2.64678908E+00  2.64678908E+00  1.91971931E+00  2.64678908E+00  2.64678908E+00
  1.91971931E+00  2.64678908E+00  2.64678908E+00 -5.95686987E+00 -5.95686987E+00
 -5.95686987E+00 -5.95686987E+00 -5.95686987E+00 -5.95686987E+00  2.06276436E+00
  2.06276436E+00  2.06276436E+00  2.06276436E+00  2.06276436E+00  2.06276436E+00
  8.03913209E-01  8.03913209E-01  8.03913209E-01  8.03913209E-01  8.03913209E-01
  8.03913209E-01  8.03913209E-01  8.03913209E-01  8.03913209E-01  8.03913209E-01
  8.03913209E-01  8.03913209E-01  8.03913209E-01  8.03913209E-01  8.03913209E-01
  8.03913209E-01  8.03913209E-01  8.03913209E-01 -5.95686987E+00  1.91971931E+00
  2.06276436E+00 -2.96680911E+00 -2.96680911E+00  8.03913209E-01  8.03913209E-01
  8.03913209E-01 -2.24932427E+00  2.64678908E+00 -2.24932427E+00  2.64678908E+00
  2.06094213E+00  2.69006704E+00  2.69006704E+00 -7.92305604E+00  2.76705626E+00
  2.06094213E+00 -2.40989918E+00 -2.95201260E+00 -2.24932427E+00 -2.24932427E+00
 -9.84915315E-01  2.86545667E+00 -1.59900683E+00  2.65590022E+00 -2.96680911E+00
  2.69006704E+00 -2.96680911E+00  2.69006704E+00 -1.02044880E+00  2.46365496E+00
  2.51012183E+00  1.91971931E+00  2.64678908E+00  2.64678908E+00 -1.02044880E+00
 -9.84915315E-01 -9.84915315E-01 -9.84915315E-01 -5.95686987E+00 -1.59900683E+00
 -2.40989918E+00 -2.40989918E+00 -1.02044880E+00 -2.40989918E+00 -1.02044880E+00
  2.06276436E+00 -2.95201260E+00  2.51012183E+00  2.76705626E+00  2.86545667E+00
  2.76705626E+00  2.86545667E+00 -1.59900683E+00  2.86545667E+00  2.76705626E+00
 -1.59900683E+00  8.03913209E-01  8.03913209E-01  8.03913209E-01  2.65590022E+00
 -7.92305604E+00 -7.92305604E+00 -2.95201260E+00  2.51012183E+00 -7.92305604E+00
 -2.95201260E+00  2.51012183E+00  2.06094213E+00  2.06094213E+00  2.06094213E+00
  2.06094213E+00  2.65590022E+00  2.06094213E+00  2.06094213E+00  2.65590022E+00
 -2.24932427E+00 -2.24932427E+00 -2.24932427E+00 -2.24932427E+00 -2.24932427E+00
 -2.24932427E+00 -2.24932427E+00 -2.24932427E+00 -2.24932427E+00 -2.24932427E+00
 -2.24932427E+00 -2.24932427E+00 -2.96680911E+00  2.69006704E+00 -2.96680911E+00
  2.69006704E+00  2.69006704E+00 -2.96680911E+00  2.69006704E+00 -2.96680911E+00
 -2.96680911E+00  2.69006704E+00 -2.96680911E+00  2.69006704E+00 -2.96680911E+00
  2.69006704E+00 -2.96680911E+00  2.69006704E+00 -2.96680911E+00  2.69006704E+00
 -2.96680911E+00  2.69006704E+00 -2.96680911E+00  2.69006704E+00 -2.96680911E+00
  2.69006704E+00  1.91971931E+00  2.64678908E+00  2.64678908E+00  1.91971931E+00
  2.64678908E+00  2.64678908E+00  2.64678908E+00  1.91971931E+00  2.64678908E+00
  1.91971931E+00  2.64678908E+00  2.64678908E+00  1.91971931E+00  2.64678908E+00
  2.64678908E+00  1.91971931E+00  2.64678908E+00  2.64678908E+00 -5.95686987E+00
 -5.95686987E+00 -5.95686987E+00 -5.95686987E+00 -5.95686987E+00 -5.95686987E+00
  2.06276436E+00  2.06276436E+00  2.06276436E+00  2.06276436E+00  2.06276436E+00
  2.06276436E+00  8.03913209E-01  8.03913209E-01  8.03913209E-01  8.03913209E-01
  8.03913209E-01  8.03913209E-01  8.03913209E-01  8.03913209E-01  8.03913209E-01
  8.03913209E-01  8.03913209E-01  8.03913209E-01  8.03913209E-01  8.03913209E-01
  8.03913209E-01  8.03913209E-01  8.03913209E-01  8.03913209E-01 -5.95686987E+00
  1.91971931E+00  2.06276436E+00 -2.96680911E+00 -2.96680911E+00  8.03913209E-01
  8.03913209E-01  8.03913209E-01 -2.24932427E+00  2.64678908E+00 -2.24932427E+00
  2.64678908E+00  2.06094213E+00  2.69006704E+00  2.69006704E+00 -7.92305604E+00
  2.76705626E+00  2.06094213E+00 -2.40989918E+00 -2.95201260E+00 -2.24932427E+00
 -2.24932427E+00 -9.84915315E-01  2.86545667E+00 -1.59900683E+00  2.65590022E+00
 -2.96680911E+00  2.69006704E+00 -2.96680911E+00  2.69006704E+00 -1.02044880E+00
  2.46365496E+00  2.51012183E+00  1.91971931E+00  2.64678908E+00  2.64678908E+00
 -1.02044880E+00 -9.84915315E-01 -9.84915315E-01 -9.84915315E-01 -5.95686987E+00
 -1.59900683E+00 -2.40989918E+00 -2.40989918E+00 -1.02044880E+00 -2.40989918E+00
 -1.02044880E+00  2.06276436E+00 -2.95201260E+00  2.51012183E+00  2.76705626E+00
  2.86545667E+00  2.76705626E+00  2.86545667E+00 -1.59900683E+00  2.86545667E+00
  2.76705626E+00 -1.59900683E+00  8.03913209E-01  8.03913209E-01  8.03913209E-01
  2.65590022E+00 -7.92305604E+00 -7.92305604E+00 -2.95201260E+00  2.51012183E+00
 -7.92305604E+00 -2.95201260E+00  2.51012183E+00  2.06094213E+00  2.06094213E+00
  2.06094213E+00  2.06094213E+00  2.65590022E+00  2.06094213E+00  2.06094213E+00
  2.65590022E+00 -2.24932427E+00 -2.24932427E+00 -2.24932427E+00 -2.24932427E+00
 -2.24932427E+00 -2.24932427E+00 -2.24932427E+00 -2.24932427E+00 -2.24932427E+00
 -2.24932427E+00 -2.24932427E+00 -2.24932427E+00 -2.96680911E+00  2.69006704E+00
 -2.96680911E+00  2.69006704E+00  2.69006704E+00 -2.96680911E+00  2.69006704E+00
 -2.96680911E+00 -2.96680911E+00  2.69006704E+00 -2.96680911E+00  2.69006704E+00
 -2.96680911E+00  2.69006704E+00 -2.96680911E+00  2.69006704E+00 -2.96680911E+00
  2.69006704E+00 -2.96680911E+00  2.69006704E+00 -2.96680911E+00  2.69006704E+00
 -2.96680911E+00  2.69006704E+00  1.91971931E+00  2.64678908E+00  2.64678908E+00
  1.91971931E+00  2.64678908E+00  2.64678908E+00  2.64678908E+00  1.91971931E+00
  2.64678908E+00  1.91971931E+00  2.64678908E+00  2.64678908E+00  1.91971931E+00
  2.64678908E+00  2.64678908E+00  1.91971931E+00  2.64678908E+00  2.64678908E+00
 -5.95686987E+00 -5.95686987E+00 -5.95686987E+00 -5.95686987E+00 -5.95686987E+00
 -5.95686987E+00  2.06276436E+00  2.06276436E+00  2.06276436E+00  2.06276436E+00
  2.06276436E+00  2.06276436E+00  8.03913209E-01  8.03913209E-01  8.03913209E-01
  8.03913209E-01  8.03913209E-01  8.03913209E-01  8.03913209E-01  8.03913209E-01
  8.03913209E-01  8.03913209E-01  8.03913209E-01  8.03913209E-01  8.03913209E-01
  8.03913209E-01  8.03913209E-01  8.03913209E-01  8.03913209E-01  8.03913209E-01
 -5.95686987E+00  1.91971931E+00  2.06276436E+00 -2.96680911E+00 -2.96680911E+00
  8.03913209E-01  8.03913209E-01  8.03913209E-01 -2.24932427E+00  2.64678908E+00
 -2.24932427E+00  2.64678908E+00  2.06094213E+00  2.69006704E+00  2.69006704E+00
 -7.92305604E+00  2.76705626E+00  2.06094213E+00 -2.40989918E+00 -2.95201260E+00
 -2.24932427E+00 -2.24932427E+00 -9.84915315E-01  2.86545667E+00 -1.59900683E+00
  2.65590022E+00 -2.96680911E+00  2.69006704E+00 -2.96680911E+00  2.69006704E+00
 -1.02044880E+00  2.46365496E+00  2.51012183E+00  1.91971931E+00  2.64678908E+00
  2.64678908E+00 -1.02044880E+00 -9.84915315E-01 -9.84915315E-01 -9.84915315E-01
 -5.95686987E+00 -1.59900683E+00 -2.40989918E+00 -2.40989918E+00 -1.02044880E+00
 -2.40989918E+00 -1.02044880E+00  2.06276436E+00 -2.95201260E+00  2.51012183E+00
  2.76705626E+00  2.86545667E+00  2.76705626E+00  2.86545667E+00 -1.59900683E+00
  2.86545667E+00  2.76705626E+00 -1.59900683E+00  8.03913209E-01  8.03913209E-01
  8.03913209E-01  2.65590022E+00 -7.92305604E+00 -7.92305604E+00 -2.95201260E+00
  2.51012183E+00 -7.92305604E+00 -2.95201260E+00  2.51012183E+00  2.06094213E+00
  2.06094213E+00  2.06094213E+00  2.06094213E+00  2.65590022E+00  2.06094213E+00
  2.06094213E+00  2.65590022E+00 -2.24932427E+00 -2.24932427E+00 -2.24932427E+00
 -2.24932427E+00 -2.24932427E+00 -2.24932427E+00 -2.24932427E+00 -2.24932427E+00
 -2.24932427E+00 -2.24932427E+00 -2.24932427E+00 -2.24932427E+00 -2.96680911E+00
  2.69006704E+00 -2.96680911E+00  2.69006704E+00  2.69006704E+00 -2.96680911E+00
  2.69006704E+00 -2.96680911E+00 -2.96680911E+00  2.69006704E+00 -2.96680911E+00
  2.69006704E+00 -2.96680911E+00  2.69006704E+00 -2.96680911E+00  2.69006704E+00
 -2.96680911E+00  2.69006704E+00 -2.96680911E+00  2.69006704E+00 -2.96680911E+00
  2.69006704E+00 -2.96680911E+00  2.69006704E+00  1.91971931E+00  2.64678908E+00
  2.64678908E+00  1.91971931E+00  2.64678908E+00  2.64678908E+00  2.64678908E+00
  1.91971931E+00  2.64678908E+00  1.91971931E+00  2.64678908E+00  2.64678908E+00
  1.91971931E+00  2.64678908E+00  2.64678908E+00  1.91971931E+00  2.64678908E+00
  2.64678908E+00 -5.95686987E+00 -5.95686987E+00 -5.95686987E+00 -5.95686987E+00
 -5.95686987E+00 -5.95686987E+00  2.06276436E+00  2.06276436E+00  2.06276436E+00
  2.06276436E+00  2.06276436E+00  2.06276436E+00  8.03913209E-01  8.03913209E-01
  8.03913209E-01  8.03913209E-01  8.03913209E-01  8.03913209E-01  8.03913209E-01
  8.03913209E-01  8.03913209E-01  8.03913209E-01  8.03913209E-01  8.03913209E-01
  8.03913209E-01  8.03913209E-01  8.03913209E-01  8.03913209E-01  8.03913209E-01
  8.03913209E-01 -5.95686987E+00  1.91971931E+00  2.06276436E+00 -2.96680911E+00
 -2.96680911E+00  8.03913209E-01  8.03913209E-01  8.03913209E-01 -2.24932427E+00
  2.64678908E+00 -2.24932427E+00  2.64678908E+00  2.06094213E+00  2.69006704E+00
  2.69006704E+00 -7.92305604E+00  2.76705626E+00  2.06094213E+00 -2.40989918E+00
 -2.95201260E+00 -2.24932427E+00 -2.24932427E+00 -9.84915315E-01  2.86545667E+00
 -1.59900683E+00  2.65590022E+00 -2.96680911E+00  2.69006704E+00 -2.96680911E+00
  2.69006704E+00 -1.02044880E+00  2.46365496E+00  2.51012183E+00  1.91971931E+00
  2.64678908E+00  2.64678908E+00 -1.02044880E+00 -9.84915315E-01 -9.84915315E-01
 -9.84915315E-01 -5.95686987E+00 -1.59900683E+00 -2.40989918E+00 -2.40989918E+00
 -1.02044880E+00 -2.40989918E+00 -1.02044880E+00  2.06276436E+00 -2.95201260E+00
  2.51012183E+00  2.76705626E+00  2.86545667E+00  2.76705626E+00  2.86545667E+00
 -1.59900683E+00  2.86545667E+00  2.76705626E+00 -1.59900683E+00  8.03913209E-01
  8.03913209E-01  8.03913209E-01  2.65590022E+00 -7.92305604E+00 -7.92305604E+00
 -2.95201260E+00  2.51012183E+00 -7.92305604E+00 -2.95201260E+00  2.51012183E+00
  2.06094213E+00  2.06094213E+00  2.06094213E+00  2.06094213E+00  2.65590022E+00
  2.06094213E+00  2.06094213E+00  2.65590022E+00 -2.24932427E+00 -2.24932427E+00
 -2.24932427E+00 -2.24932427E+00 -2.24932427E+00 -2.24932427E+00 -2.24932427E+00
 -2.24932427E+00 -2.24932427E+00 -2.24932427E+00 -2.24932427E+00 -2.24932427E+00
 -2.96680911E+00  2.69006704E+00 -2.96680911E+00  2.69006704E+00  2.69006704E+00
 -2.96680911E+00  2.69006704E+00 -2.96680911E+00 -2.96680911E+00  2.69006704E+00
 -2.96680911E+00  2.69006704E+00 -2.96680911E+00  2.69006704E+00 -2.96680911E+00
  2.69006704E+00 -2.96680911E+00  2.69006704E+00 -2.96680911E+00  2.69006704E+00
 -2.96680911E+00  2.69006704E+00 -2.96680911E+00  2.69006704E+00  1.91971931E+00
  2.64678908E+00  2.64678908E+00  1.91971931E+00  2.64678908E+00  2.64678908E+00
  2.64678908E+00  1.91971931E+00  2.64678908E+00  1.91971931E+00  2.64678908E+00
  2.64678908E+00  1.91971931E+00  2.64678908E+00  2.64678908E+00  1.91971931E+00
  2.64678908E+00  2.64678908E+00 -5.95686987E+00 -5.95686987E+00 -5.95686987E+00
 -5.95686987E+00 -5.95686987E+00 -5.95686987E+00  2.06276436E+00  2.06276436E+00
  2.06276436E+00  2.06276436E+00  2.06276436E+00  2.06276436E+00  8.03913209E-01
  8.03913209E-01  8.03913209E-01  8.03913209E-01  8.03913209E-01  8.03913209E-01
  8.03913209E-01  8.03913209E-01  8.03913209E-01  8.03913209E-01  8.03913209E-01
  8.03913209E-01  8.03913209E-01  8.03913209E-01  8.03913209E-01  8.03913209E-01
  8.03913209E-01  8.03913209E-01 -5.95686987E+00  1.91971931E+00  2.06276436E+00
 -2.96680911E+00 -2.96680911E+00  8.03913209E-01  8.03913209E-01  8.03913209E-01
 -2.24932427E+00  2.64678908E+00 -2.24932427E+00  2.64678908E+00  2.06094213E+00
  2.69006704E+00  2.69006704E+00 -7.92305604E+00  2.76705626E+00  2.06094213E+00
 -2.40989918E+00 -2.95201260E+00 -2.24932427E+00 -2.24932427E+00 -9.84915315E-01
  2.86545667E+00 -1.59900683E+00  2.65590022E+00 -2.96680911E+00  2.69006704E+00
 -2.96680911E+00  2.69006704E+00 -1.02044880E+00  2.46365496E+00  2.51012183E+00
  1.91971931E+00  2.64678908E+00  2.64678908E+00 -1.02044880E+00 -9.84915315E-01
 -9.84915315E-01 -9.84915315E-01 -5.95686987E+00 -1.59900683E+00 -2.40989918E+00
 -2.40989918E+00 -1.02044880E+00 -2.40989918E+00 -1.02044880E+00  2.06276436E+00
 -2.95201260E+00  2.51012183E+00  2.76705626E+00  2.86545667E+00  2.76705626E+00
  2.86545667E+00 -1.59900683E+00  2.86545667E+00  2.76705626E+00 -1.59900683E+00
  8.03913209E-01  8.03913209E-01  8.03913209E-01  2.65590022E+00 -7.92305604E+00
 -7.92305604E+00 -2.95201260E+00  2.51012183E+00 -7.92305604E+00 -2.95201260E+00
  2.51012183E+00  2.06094213E+00  2.06094213E+00  2.06094213E+00  2.06094213E+00
  2.65590022E+00  2.06094213E+00  2.06094213E+00  2.65590022E+00 -2.24932427E+00
 -2.24932427E+00 -2.24932427E+00 -2.24932427E+00 -2.24932427E+00 -2.24932427E+00
 -2.24932427E+00 -2.24932427E+00 -2.24932427E+00 -2.24932427E+00 -2.24932427E+00
 -2.24932427E+00 -2.96680911E+00  2.69006704E+00 -2.96680911E+00  2.69006704E+00
  2.69006704E+00 -2.96680911E+00  2.69006704E+00 -2.96680911E+00 -2.96680911E+00
  2.69006704E+00 -2.96680911E+00  2.69006704E+00 -2.96680911E+00  2.69006704E+00
 -2.96680911E+00  2.69006704E+00 -2.96680911E+00  2.69006704E+00 -2.96680911E+00
  2.69006704E+00 -2.96680911E+00  2.69006704E+00 -2.96680911E+00  2.69006704E+00
  1.91971931E+00  2.64678908E+00  2.64678908E+00  1.91971931E+00  2.64678908E+00
  2.64678908E+00  2.64678908E+00  1.91971931E+00  2.64678908E+00  1.91971931E+00
  2.64678908E+00  2.64678908E+00  1.91971931E+00  2.64678908E+00  2.64678908E+00
  1.91971931E+00  2.64678908E+00  2.64678908E+00 -5.95686987E+00 -5.95686987E+00
 -5.95686987E+00 -5.95686987E+00 -5.95686987E+00 -5.95686987E+00  2.06276436E+00
  2.06276436E+00  2.06276436E+00  2.06276436E+00  2.06276436E+00  2.06276436E+00
  8.03913209E-01  8.03913209E-01  8.03913209E-01  8.03913209E-01  8.03913209E-01
  8.03913209E-01  8.03913209E-01  8.03913209E-01  8.03913209E-01  8.03913209E-01
  8.03913209E-01  8.03913209E-01  8.03913209E-01  8.03913209E-01  8.03913209E-01
  8.03913209E-01  8.03913209E-01  8.03913209E-01 -5.95686987E+00  1.91971931E+00
  2.06276436E+00 -2.96680911E+00 -2.96680911E+00  8.03913209E-01  8.03913209E-01
  8.03913209E-01 -2.24932427E+00  2.64678908E+00 -2.24932427E+00  2.64678908E+00
  2.06094213E+00  2.69006704E+00  2.69006704E+00 -7.92305604E+00  2.76705626E+00
  2.06094213E+00 -2.40989918E+00 -2.95201260E+00 -2.24932427E+00 -2.24932427E+00
 -9.84915315E-01  2.86545667E+00 -1.59900683E+00  2.65590022E+00 -2.96680911E+00
  2.69006704E+00 -2.96680911E+00  2.69006704E+00 -1.02044880E+00  2.46365496E+00
  2.51012183E+00  1.91971931E+00  2.64678908E+00  2.64678908E+00 -1.02044880E+00
 -9.84915315E-01 -9.84915315E-01 -9.84915315E-01 -5.95686987E+00 -1.59900683E+00
 -2.40989918E+00 -2.40989918E+00 -1.02044880E+00 -2.40989918E+00 -1.02044880E+00
  2.06276436E+00 -2.95201260E+00  2.51012183E+00  2.76705626E+00  2.86545667E+00
  2.76705626E+00  2.86545667E+00 -1.59900683E+00  2.86545667E+00  2.76705626E+00
 -1.59900683E+00  8.03913209E-01  8.03913209E-01  8.03913209E-01  2.65590022E+00
 -7.92305604E+00 -7.92305604E+00 -2.95201260E+00  2.51012183E+00 -7.92305604E+00
 -2.95201260E+00  2.51012183E+00  2.06094213E+00  2.06094213E+00  2.06094213E+00
  2.06094213E+00  2.65590022E+00  2.06094213E+00  2.06094213E+00  2.65590022E+00
 -2.24932427E+00 -2.24932427E+00 -2.24932427E+00 -2.24932427E+00 -2.24932427E+00
 -2.24932427E+00 -2.24932427E+00 -2.24932427E+00 -2.24932427E+00 -2.24932427E+00
 -2.24932427E+00 -2.24932427E+00 -2.96680911E+00  2.69006704E+00 -2.96680911E+00
  2.69006704E+00  2.69006704E+00 -2.96680911E+00  2.69006704E+00 -2.96680911E+00
 -2.96680911E+00  2.69006704E+00 -2.96680911E+00  2.69006704E+00 -2.96680911E+00
  2.69006704E+00 -2.96680911E+00  2.69006704E+00 -2.96680911E+00  2.69006704E+00
 -2.96680911E+00  2.69006704E+00 -2.96680911E+00  2.69006704E+00 -2.96680911E+00
  2.69006704E+00  1.91971931E+00  2.64678908E+00  2.64678908E+00  1.91971931E+00
  2.64678908E+00  2.64678908E+00  2.64678908E+00  1.91971931E+00  2.64678908E+00
  1.91971931E+00  2.64678908E+00  2.64678908E+00  1.91971931E+00  2.64678908E+00
  2.64678908E+00  1.91971931E+00  2.64678908E+00  2.64678908E+00 -5.95686987E+00
 -5.95686987E+00 -5.95686987E+00 -5.95686987E+00 -5.95686987E+00 -5.95686987E+00
  2.06276436E+00  2.06276436E+00  2.06276436E+00  2.06276436E+00  2.06276436E+00
  2.06276436E+00  8.03913209E-01  8.03913209E-01  8.03913209E-01  8.03913209E-01
  8.03913209E-01  8.03913209E-01  8.03913209E-01  8.03913209E-01  8.03913209E-01
  8.03913209E-01  8.03913209E-01  8.03913209E-01  8.03913209E-01  8.03913209E-01
  8.03913209E-01  8.03913209E-01  8.03913209E-01  8.03913209E-01 -5.95686987E+00
  1.91971931E+00  2.06276436E+00 -2.96680911E+00 -2.96680911E+00  8.03913209E-01
  8.03913209E-01  8.03913209E-01 -2.24932427E+00  2.64678908E+00 -2.24932427E+00
  2.64678908E+00  2.06094213E+00  2.69006704E+00  2.69006704E+00 -7.92305604E+00
  2.76705626E+00  2.06094213E+00 -2.40989918E+00 -2.95201260E+00 -2.24932427E+00
 -2.24932427E+00 -9.84915315E-01  2.86545667E+00 -1.59900683E+00  2.65590022E+00
 -2.96680911E+00  2.69006704E+00 -2.96680911E+00  2.69006704E+00 -1.02044880E+00
  2.46365496E+00  2.51012183E+00  1.91971931E+00  2.64678908E+00  2.64678908E+00
 -1.02044880E+00 -9.84915315E-01 -9.84915315E-01 -9.84915315E-01 -5.95686987E+00
 -1.59900683E+00 -2.40989918E+00 -2.40989918E+00 -1.02044880E+00 -2.40989918E+00
 -1.02044880E+00  2.06276436E+00 -2.95201260E+00  2.51012183E+00  2.76705626E+00
  2.86545667E+00  2.76705626E+00  2.86545667E+00 -1.59900683E+00  2.86545667E+00
  2.76705626E+00 -1.59900683E+00  8.03913209E-01  8.03913209E-01  8.03913209E-01
  2.65590022E+00 -7.92305604E+00 -7.92305604E+00 -2.95201260E+00  2.51012183E+00
 -7.92305604E+00 -2.95201260E+00  2.51012183E+00  2.06094213E+00  2.06094213E+00
  2.06094213E+00  2.06094213E+00  2.65590022E+00  2.06094213E+00  2.06094213E+00
  2.65590022E+00 -2.24932427E+00 -2.24932427E+00 -2.24932427E+00 -2.24932427E+00
 -2.24932427E+00 -2.24932427E+00 -2.24932427E+00 -2.24932427E+00 -2.24932427E+00
 -2.24932427E+00 -2.24932427E+00 -2.24932427E+00 -2.96680911E+00  2.69006704E+00
 -2.96680911E+00  2.69006704E+00  2.69006704E+00 -2.96680911E+00  2.69006704E+00
 -2.96680911E+00 -2.96680911E+00  2.69006704E+00 -2.96680911E+00  2.69006704E+00
 -2.96680911E+00  2.69006704E+00 -2.96680911E+00  2.69006704E+00 -2.96680911E+00
  2.69006704E+00 -2.96680911E+00  2.69006704E+00 -2.96680911E+00  2.69006704E+00
 -2.96680911E+00  2.69006704E+00  1.91971931E+00  2.64678908E+00  2.64678908E+00
  1.91971931E+00  2.64678908E+00  2.64678908E+00  2.64678908E+00  1.91971931E+00
  2.64678908E+00  1.91971931E+00  2.64678908E+00  2.64678908E+00  1.91971931E+00
  2.64678908E+00  2.64678908E+00  1.91971931E+00  2.64678908E+00  2.64678908E+00
 -5.95686987E+00 -5.95686987E+00 -5.95686987E+00 -5.95686987E+00 -5.95686987E+00
 -5.95686987E+00  2.06276436E+00  2.06276436E+00  2.06276436E+00  2.06276436E+00
  2.06276436E+00  2.06276436E+00  8.03913209E-01  8.03913209E-01  8.03913209E-01
  8.03913209E-01  8.03913209E-01  8.03913209E-01  8.03913209E-01  8.03913209E-01
  8.03913209E-01  8.03913209E-01  8.03913209E-01  8.03913209E-01  8.03913209E-01
  8.03913209E-01  8.03913209E-01  8.03913209E-01  8.03913209E-01  8.03913209E-01
 -5.95686987E+00  1.91971931E+00  2.06276436E+00 -2.96680911E+00 -2.96680911E+00
  8.03913209E-01  8.03913209E-01  8.03913209E-01 -2.24932427E+00  2.64678908E+00
 -2.24932427E+00  2.64678908E+00  2.06094213E+00  2.69006704E+00  2.69006704E+00
 -7.92305604E+00  2.76705626E+00  2.06094213E+00 -2.40989918E+00 -2.95201260E+00
 -2.24932427E+00 -2.24932427E+00 -9.84915315E-01  2.86545667E+00 -1.59900683E+00
  2.65590022E+00 -2.96680911E+00  2.69006704E+00 -2.96680911E+00  2.69006704E+00
 -1.02044880E+00  2.46365496E+00  2.51012183E+00  1.91971931E+00  2.64678908E+00
  2.64678908E+00 -1.02044880E+00 -9.84915315E-01 -9.84915315E-01 -9.84915315E-01
 -5.95686987E+00 -1.59900683E+00 -2.40989918E+00 -2.40989918E+00 -1.02044880E+00
 -2.40989918E+00 -1.02044880E+00  2.06276436E+00 -2.95201260E+00  2.51012183E+00
  2.76705626E+00  2.86545667E+00  2.76705626E+00  2.86545667E+00 -1.59900683E+00
  2.86545667E+00  2.76705626E+00 -1.59900683E+00  8.03913209E-01  8.03913209E-01
  8.03913209E-01  2.65590022E+00 -7.92305604E+00 -7.92305604E+00 -2.95201260E+00
  2.51012183E+00 -7.92305604E+00 -2.95201260E+00  2.51012183E+00  2.06094213E+00
  2.06094213E+00  2.06094213E+00  2.06094213E+00  2.65590022E+00  2.06094213E+00
  2.06094213E+00  2.65590022E+00 -2.24932427E+00 -2.24932427E+00 -2.24932427E+00
 -2.24932427E+00 -2.24932427E+00 -2.24932427E+00 -2.24932427E+00 -2.24932427E+00
 -2.24932427E+00 -2.24932427E+00 -2.24932427E+00 -2.24932427E+00 -2.96680911E+00
  2.69006704E+00 -2.96680911E+00  2.69006704E+00  2.69006704E+00 -2.96680911E+00
  2.69006704E+00 -2.96680911E+00 -2.96680911E+00  2.69006704E+00 -2.96680911E+00
  2.69006704E+00 -2.96680911E+00  2.69006704E+00 -2.96680911E+00  2.69006704E+00
 -2.96680911E+00  2.69006704E+00 -2.96680911E+00  2.69006704E+00 -2.96680911E+00
  2.69006704E+00 -2.96680911E+00  2.69006704E+00  1.91971931E+00  2.64678908E+00
  2.64678908E+00  1.91971931E+00  2.64678908E+00  2.64678908E+00  2.64678908E+00
  1.91971931E+00  2.64678908E+00  1.91971931E+00  2.64678908E+00  2.64678908E+00
  1.91971931E+00  2.64678908E+00  2.64678908E+00  1.91971931E+00  2.64678908E+00
  2.64678908E+00 -5.95686987E+00 -5.95686987E+00 -5.95686987E+00 -5.95686987E+00
 -5.95686987E+00 -5.95686987E+00  2.06276436E+00  2.06276436E+00  2.06276436E+00
  2.06276436E+00  2.06276436E+00  2.06276436E+00  8.03913209E-01  8.03913209E-01
  8.03913209E-01  8.03913209E-01  8.03913209E-01  8.03913209E-01  8.03913209E-01
  8.03913209E-01  8.03913209E-01  8.03913209E-01  8.03913209E-01  8.03913209E-01
  8.03913209E-01  8.03913209E-01  8.03913209E-01  8.03913209E-01  8.03913209E-01
  8.03913209E-01 -5.95686987E+00  1.91971931E+00  2.06276436E+00 -2.96680911E+00
 -2.96680911E+00  8.03913209E-01  8.03913209E-01  8.03913209E-01 -2.24932427E+00
  2.64678908E+00 -2.24932427E+00  2.64678908E+00  2.06094213E+00  2.69006704E+00
  2.69006704E+00 -7.92305604E+00  2.76705626E+00  2.06094213E+00 -2.40989918E+00
 -2.95201260E+00 -2.24932427E+00 -2.24932427E+00 -9.84915315E-01  2.86545667E+00
 -1.59900683E+00  2.65590022E+00 -2.96680911E+00  2.69006704E+00 -2.96680911E+00
  2.69006704E+00 -1.02044880E+00  2.46365496E+00  2.51012183E+00  1.91971931E+00
  2.64678908E+00  2.64678908E+00 -1.02044880E+00 -9.84915315E-01 -9.84915315E-01
 -9.84915315E-01 -5.95686987E+00 -1.59900683E+00 -2.40989918E+00 -2.40989918E+00
 -1.02044880E+00 -2.40989918E+00 -1.02044880E+00  2.06276436E+00 -2.95201260E+00
  2.51012183E+00  2.76705626E+00  2.86545667E+00  2.76705626E+00  2.86545667E+00
 -1.59900683E+00  2.86545667E+00  2.76705626E+00 -1.59900683E+00  8.03913209E-01
  8.03913209E-01  8.03913209E-01  2.65590022E+00 -7.92305604E+00 -7.92305604E+00
 -2.95201260E+00  2.51012183E+00 -7.92305604E+00 -2.95201260E+00  2.51012183E+00
  2.06094213E+00  2.06094213E+00  2.06094213E+00  2.06094213E+00  2.65590022E+00
  2.06094213E+00  2.06094213E+00  2.65590022E+00 -2.24932427E+00 -2.24932427E+00
 -2.24932427E+00 -2.24932427E+00 -2.24932427E+00 -2.24932427E+00 -2.24932427E+00
 -2.24932427E+00 -2.24932427E+00 -2.24932427E+00 -2.24932427E+00 -2.24932427E+00
 -2.96680911E+00  2.69006704E+00 -2.96680911E+00  2.69006704E+00  2.69006704E+00
 -2.96680911E+00  2.69006704E+00 -2.96680911E+00 -2.96680911E+00  2.69006704E+00
 -2.96680911E+00  2.69006704E+00 -2.96680911E+00  2.69006704E+00 -2.96680911E+00
  2.69006704E+00 -2.96680911E+00  2.69006704E+00 -2.96680911E+00  2.69006704E+00
 -2.96680911E+00  2.69006704E+00 -2.96680911E+00  2.69006704E+00  1.91971931E+00
  2.64678908E+00  2.64678908E+00  1.91971931E+00  2.64678908E+00  2.64678908E+00
  2.64678908E+00  1.91971931E+00  2.64678908E+00  1.91971931E+00  2.64678908E+00
  2.64678908E+00  1.91971931E+00  2.64678908E+00  2.64678908E+00  1.91971931E+00
  2.64678908E+00  2.64678908E+00 -5.95686987E+00 -5.95686987E+00 -5.95686987E+00
 -5.95686987E+00 -5.95686987E+00 -5.95686987E+00  2.06276436E+00  2.06276436E+00
  2.06276436E+00  2.06276436E+00  2.06276436E+00  2.06276436E+00  8.03913209E-01
  8.03913209E-01  8.03913209E-01  8.03913209E-01  8.03913209E-01  8.03913209E-01
  8.03913209E-01  8.03913209E-01  8.03913209E-01  8.03913209E-01  8.03913209E-01
  8.03913209E-01  8.03913209E-01  8.03913209E-01  8.03913209E-01  8.03913209E-01
  8.03913209E-01  8.03913209E-01 -5.95686987E+00  1.91971931E+00  2.06276436E+00
 -2.96680911E+00 -2.96680911E+00  8.03913209E-01  8.03913209E-01  8.03913209E-01
 -2.24932427E+00  2.64678908E+00 -2.24932427E+00  2.64678908E+00  2.06094213E+00
  2.69006704E+00  2.69006704E+00 -7.92305604E+00  2.76705626E+00  2.06094213E+00
 -2.40989918E+00 -2.95201260E+00 -2.24932427E+00 -2.24932427E+00 -9.84915315E-01
  2.86545667E+00 -1.59900683E+00  2.65590022E+00 -2.96680911E+00  2.69006704E+00
 -2.96680911E+00  2.69006704E+00 -1.02044880E+00  2.46365496E+00  2.51012183E+00
  1.91971931E+00  2.64678908E+00  2.64678908E+00 -1.02044880E+00 -9.84915315E-01
 -9.84915315E-01 -9.84915315E-01 -5.95686987E+00 -1.59900683E+00 -2.40989918E+00
 -2.40989918E+00 -1.02044880E+00 -2.40989918E+00 -1.02044880E+00  2.06276436E+00
 -2.95201260E+00  2.51012183E+00  2.76705626E+00  2.86545667E+00  2.76705626E+00
  2.86545667E+00 -1.59900683E+00  2.86545667E+00  2.76705626E+00 -1.59900683E+00
  8.03913209E-01  8.03913209E-01  8.03913209E-01  2.65590022E+00 -7.92305604E+00
 -7.92305604E+00 -2.95201260E+00  2.51012183E+00 -7.92305604E+00 -2.95201260E+00
  2.51012183E+00  2.06094213E+00  2.06094213E+00  2.06094213E+00  2.06094213E+00
  2.65590022E+00  2.06094213E+00  2.06094213E+00  2.65590022E+00 -2.24932427E+00
 -2.24932427E+00 -2.24932427E+00 -2.24932427E+00 -2.24932427E+00 -2.24932427E+00
 -2.24932427E+00 -2.24932427E+00 -2.24932427E+00 -2.24932427E+00 -2.24932427E+00
 -2.24932427E+00 -2.96680911E+00  2.69006704E+00 -2.96680911E+00  2.69006704E+00
  2.69006704E+00 -2.96680911E+00  2.69006704E+00 -2.96680911E+00 -2.96680911E+00
  2.69006704E+00 -2.96680911E+00  2.69006704E+00 -2.96680911E+00  2.69006704E+00
 -2.96680911E+00  2.69006704E+00 -2.96680911E+00  2.69006704E+00 -2.96680911E+00
  2.69006704E+00 -2.96680911E+00  2.69006704E+00 -2.96680911E+00  2.69006704E+00
  1.91971931E+00  2.64678908E+00  2.64678908E+00  1.91971931E+00  2.64678908E+00
  2.64678908E+00  2.64678908E+00  1.91971931E+00  2.64678908E+00  1.91971931E+00
  2.64678908E+00  2.64678908E+00  1.91971931E+00  2.64678908E+00  2.64678908E+00
  1.91971931E+00  2.64678908E+00  2.64678908E+00 -5.95686987E+00 -5.95686987E+00
 -5.95686987E+00 -5.95686987E+00 -5.95686987E+00 -5.95686987E+00  2.06276436E+00
  2.06276436E+00  2.06276436E+00  2.06276436E+00  2.06276436E+00  2.06276436E+00
  8.03913209E-01  8.03913209E-01  8.03913209E-01  8.03913209E-01  8.03913209E-01
  8.03913209E-01  8.03913209E-01  8.03913209E-01  8.03913209E-01  8.03913209E-01
  8.03913209E-01  8.03913209E-01  8.03913209E-01  8.03913209E-01  8.03913209E-01
  8.03913209E-01  8.03913209E-01  8.03913209E-01 -5.95686987E+00  1.91971931E+00
  2.06276436E+00 -2.96680911E+00 -2.96680911E+00  8.03913209E-01  8.03913209E-01
  8.03913209E-01 -2.24932427E+00  2.64678908E+00 -2.24932427E+00  2.64678908E+00
  2.06094213E+00  2.69006704E+00  2.69006704E+00 -7.92305604E+00  2.76705626E+00
  2.06094213E+00 -2.40989918E+00 -2.95201260E+00 -2.24932427E+00 -2.24932427E+00
 -9.84915315E-01  2.86545667E+00 -1.59900683E+00  2.65590022E+00 -2.96680911E+00
  2.69006704E+00 -2.96680911E+00  2.69006704E+00 -1.02044880E+00  2.46365496E+00
  2.51012183E+00  1.91971931E+00  2.64678908E+00  2.64678908E+00 -1.02044880E+00
 -9.84915315E-01 -9.84915315E-01 -9.84915315E-01 -5.95686987E+00 -1.59900683E+00
 -2.40989918E+00 -2.40989918E+00 -1.02044880E+00 -2.40989918E+00 -1.02044880E+00
  2.06276436E+00 -2.95201260E+00  2.51012183E+00  2.76705626E+00  2.86545667E+00
  2.76705626E+00  2.86545667E+00 -1.59900683E+00  2.86545667E+00  2.76705626E+00
 -1.59900683E+00  8.03913209E-01  8.03913209E-01  8.03913209E-01  2.65590022E+00
 -7.92305604E+00 -7.92305604E+00 -2.95201260E+00  2.51012183E+00 -7.92305604E+00
 -2.95201260E+00  2.51012183E+00  2.06094213E+00  2.06094213E+00  2.06094213E+00
  2.06094213E+00  2.65590022E+00  2.06094213E+00  2.06094213E+00  2.65590022E+00
 -2.24932427E+00 -2.24932427E+00 -2.24932427E+00 -2.24932427E+00 -2.24932427E+00
 -2.24932427E+00 -2.24932427E+00 -2.24932427E+00 -2.24932427E+00 -2.24932427E+00
 -2.24932427E+00 -2.24932427E+00 -2.96680911E+00  2.69006704E+00 -2.96680911E+00
  2.69006704E+00  2.69006704E+00 -2.96680911E+00  2.69006704E+00 -2.96680911E+00
 -2.96680911E+00  2.69006704E+00 -2.96680911E+00  2.69006704E+00 -2.96680911E+00
  2.69006704E+00 -2.96680911E+00  2.69006704E+00 -2.96680911E+00  2.69006704E+00
 -2.96680911E+00  2.69006704E+00 -2.96680911E+00  2.69006704E+00 -2.96680911E+00
  2.69006704E+00  1.91971931E+00  2.64678908E+00  2.64678908E+00  1.91971931E+00
  2.64678908E+00  2.64678908E+00  2.64678908E+00  1.91971931E+00  2.64678908E+00
  1.91971931E+00  2.64678908E+00  2.64678908E+00  1.91971931E+00  2.64678908E+00
  2.64678908E+00  1.91971931E+00  2.64678908E+00  2.64678908E+00 -5.95686987E+00
 -5.95686987E+00 -5.95686987E+00 -5.95686987E+00 -5.95686987E+00 -5.95686987E+00
  2.06276436E+00  2.06276436E+00  2.06276436E+00  2.06276436E+00  2.06276436E+00
  2.06276436E+00  8.03913209E-01  8.03913209E-01  8.03913209E-01  8.03913209E-01
  8.03913209E-01  8.03913209E-01  8.03913209E-01  8.03913209E-01  8.03913209E-01
  8.03913209E-01  8.03913209E-01  8.03913209E-01  8.03913209E-01  8.03913209E-01
  8.03913209E-01  8.03913209E-01  8.03913209E-01  8.03913209E-01 -5.95686987E+00
  1.91971931E+00  2.06276436E+00 -2.96680911E+00 -2.96680911E+00  8.03913209E-01
  8.03913209E-01  8.03913209E-01 -2.24932427E+00  2.64678908E+00 -2.24932427E+00
  2.64678908E+00  2.06094213E+00  2.69006704E+00  2.69006704E+00 -7.92305604E+00
  2.76705626E+00  2.06094213E+00 -2.40989918E+00 -2.95201260E+00 -2.24932427E+00
 -2.24932427E+00 -9.84915315E-01  2.86545667E+00 -1.59900683E+00  2.65590022E+00
 -2.96680911E+00  2.69006704E+00 -2.96680911E+00  2.69006704E+00 -1.02044880E+00
  2.46365496E+00  2.51012183E+00  1.91971931E+00  2.64678908E+00  2.64678908E+00
 -1.02044880E+00 -9.84915315E-01 -9.84915315E-01 -9.84915315E-01 -5.95686987E+00
 -1.59900683E+00 -2.40989918E+00 -2.40989918E+00 -1.02044880E+00 -2.40989918E+00
 -1.02044880E+00  2.06276436E+00 -2.95201260E+00  2.51012183E+00  2.76705626E+00
  2.86545667E+00  2.76705626E+00  2.86545667E+00 -1.59900683E+00  2.86545667E+00
  2.76705626E+00 -1.59900683E+00  8.03913209E-01  8.03913209E-01  8.03913209E-01
  2.65590022E+00 -7.92305604E+00 -7.92305604E+00 -2.95201260E+00  2.51012183E+00
 -7.92305604E+00 -2.95201260E+00  2.51012183E+00  2.06094213E+00  2.06094213E+00
  2.06094213E+00  2.06094213E+00  2.65590022E+00  2.06094213E+00  2.06094213E+00
  2.65590022E+00 -2.24932427E+00 -2.24932427E+00 -2.24932427E+00 -2.24932427E+00
 -2.24932427E+00 -2.24932427E+00 -2.24932427E+00 -2.24932427E+00 -2.24932427E+00
 -2.24932427E+00 -2.24932427E+00 -2.24932427E+00 -2.96680911E+00  2.69006704E+00
 -2.96680911E+00  2.69006704E+00  2.69006704E+00 -2.96680911E+00  2.69006704E+00
 -2.96680911E+00 -2.96680911E+00  2.69006704E+00 -2.96680911E+00  2.69006704E+00
 -2.96680911E+00  2.69006704E+00 -2.96680911E+00  2.69006704E+00 -2.96680911E+00
  2.69006704E+00 -2.96680911E+00  2.69006704E+00 -2.96680911E+00  2.69006704E+00
 -2.96680911E+00  2.69006704E+00  1.91971931E+00  2.64678908E+00  2.64678908E+00
  1.91971931E+00  2.64678908E+00  2.64678908E+00  2.64678908E+00  1.91971931E+00
  2.64678908E+00  1.91971931E+00  2.64678908E+00  2.64678908E+00  1.91971931E+00
  2.64678908E+00  2.64678908E+00  1.91971931E+00  2.64678908E+00  2.64678908E+00
 -5.95686987E+00 -5.95686987E+00 -5.95686987E+00 -5.95686987E+00 -5.95686987E+00
 -5.95686987E+00  2.06276436E+00  2.06276436E+00  2.06276436E+00  2.06276436E+00
  2.06276436E+00  2.06276436E+00  8.03913209E-01  8.03913209E-01  8.03913209E-01
  8.03913209E-01  8.03913209E-01  8.03913209E-01  8.03913209E-01  8.03913209E-01
  8.03913209E-01  8.03913209E-01  8.03913209E-01  8.03913209E-01  8.03913209E-01
  8.03913209E-01  8.03913209E-01  8.03913209E-01  8.03913209E-01  8.03913209E-01
 -5.95686987E+00  1.91971931E+00  2.06276436E+00 -2.96680911E+00 -2.96680911E+00
  8.03913209E-01  8.03913209E-01  8.03913209E-01 -2.24932427E+00  2.64678908E+00
 -2.24932427E+00  2.64678908E+00  2.06094213E+00  2.69006704E+00  2.69006704E+00
 -7.92305604E+00  2.76705626E+00  2.06094213E+00 -2.40989918E+00 -2.95201260E+00
 -2.24932427E+00 -2.24932427E+00 -9.84915315E-01  2.86545667E+00 -1.59900683E+00
  2.65590022E+00 -2.96680911E+00  2.69006704E+00 -2.96680911E+00  2.69006704E+00
 -1.02044880E+00  2.46365496E+00  2.51012183E+00  1.91971931E+00  2.64678908E+00
  2.64678908E+00 -1.02044880E+00 -9.84915315E-01 -9.84915315E-01 -9.84915315E-01
 -5.95686987E+00 -1.59900683E+00 -2.40989918E+00 -2.40989918E+00 -1.02044880E+00
 -2.40989918E+00 -1.02044880E+00  2.06276436E+00 -2.95201260E+00  2.51012183E+00
  2.76705626E+00  2.86545667E+00  2.76705626E+00  2.86545667E+00 -1.59900683E+00
  2.86545667E+00  2.76705626E+00 -1.59900683E+00  8.03913209E-01  8.03913209E-01
  8.03913209E-01  2.65590022E+00 -7.92305604E+00 -7.92305604E+00 -2.95201260E+00
  2.51012183E+00 -7.92305604E+00 -2.95201260E+00  2.51012183E+00  2.06094213E+00
  2.06094213E+00  2.06094213E+00  2.06094213E+00  2.65590022E+00  2.06094213E+00
  2.06094213E+00  2.65590022E+00 -2.24932427E+00 -2.24932427E+00 -2.24932427E+00
 -2.24932427E+00 -2.24932427E+00 -2.24932427E+00 -2.24932427E+00 -2.24932427E+00
 -2.24932427E+00 -2.24932427E+00 -2.24932427E+00 -2.24932427E+00 -2.96680911E+00
  2.69006704E+00 -2.96680911E+00  2.69006704E+00  2.69006704E+00 -2.96680911E+00
  2.69006704E+00 -2.96680911E+00 -2.96680911E+00  2.69006704E+00 -2.96680911E+00
  2.69006704E+00 -2.96680911E+00  2.69006704E+00 -2.96680911E+00  2.69006704E+00
 -2.96680911E+00  2.69006704E+00 -2.96680911E+00  2.69006704E+00 -2.96680911E+00
  2.69006704E+00 -2.96680911E+00  2.69006704E+00  1.91971931E+00  2.64678908E+00
  2.64678908E+00  1.91971931E+00  2.64678908E+00  2.64678908E+00  2.64678908E+00
  1.91971931E+00  2.64678908E+00  1.91971931E+00  2.64678908E+00  2.64678908E+00
  1.91971931E+00  2.64678908E+00  2.64678908E+00  1.91971931E+00  2.64678908E+00
  2.64678908E+00 -5.95686987E+00 -5.95686987E+00 -5.95686987E+00 -5.95686987E+00
 -5.95686987E+00 -5.95686987E+00  2.06276436E+00  2.06276436E+00  2.06276436E+00
  2.06276436E+00  2.06276436E+00  2.06276436E+00  8.03913209E-01  8.03913209E-01
  8.03913209E-01  8.03913209E-01  8.03913209E-01  8.03913209E-01  8.03913209E-01
  8.03913209E-01  8.03913209E-01  8.03913209E-01  8.03913209E-01  8.03913209E-01
  8.03913209E-01  8.03913209E-01  8.03913209E-01  8.03913209E-01  8.03913209E-01
  8.03913209E-01 -5.95686987E+00  1.91971931E+00  2.06276436E+00 -2.96680911E+00
 -2.96680911E+00  8.03913209E-01  8.03913209E-01  8.03913209E-01 -2.24932427E+00
  2.64678908E+00 -2.24932427E+00  2.64678908E+00  2.06094213E+00  2.69006704E+00
  2.69006704E+00 -7.92305604E+00  2.76705626E+00  2.06094213E+00 -2.40989918E+00
 -2.95201260E+00 -2.24932427E+00 -2.24932427E+00 -9.84915315E-01  2.86545667E+00
 -1.59900683E+00  2.65590022E+00 -2.96680911E+00  2.69006704E+00 -2.96680911E+00
  2.69006704E+00 -1.02044880E+00  2.46365496E+00  2.51012183E+00  1.91971931E+00
  2.64678908E+00  2.64678908E+00 -1.02044880E+00 -9.84915315E-01 -9.84915315E-01
 -9.84915315E-01 -5.95686987E+00 -1.59900683E+00 -2.40989918E+00 -2.40989918E+00
 -1.02044880E+00 -2.40989918E+00 -1.02044880E+00  2.06276436E+00 -2.95201260E+00
  2.51012183E+00  2.76705626E+00  2.86545667E+00  2.76705626E+00  2.86545667E+00
 -1.59900683E+00  2.86545667E+00  2.76705626E+00 -1.59900683E+00  8.03913209E-01
  8.03913209E-01  8.03913209E-01  2.65590022E+00 -7.92305604E+00 -7.92305604E+00
 -2.95201260E+00  2.51012183E+00 -7.92305604E+00 -2.95201260E+00  2.51012183E+00
  2.06094213E+00  2.06094213E+00  2.06094213E+00  2.06094213E+00  2.65590022E+00
  2.06094213E+00  2.06094213E+00  2.65590022E+00 -2.24932427E+00 -2.24932427E+00
 -2.24932427E+00 -2.24932427E+00 -2.24932427E+00 -2.24932427E+00 -2.24932427E+00
 -2.24932427E+00 -2.24932427E+00 -2.24932427E+00 -2.24932427E+00 -2.24932427E+00
 -2.96680911E+00  2.69006704E+00 -2.96680911E+00  2.69006704E+00  2.69006704E+00
 -2.96680911E+00  2.69006704E+00 -2.96680911E+00 -2.96680911E+00  2.69006704E+00
 -2.96680911E+00  2.69006704E+00 -2.96680911E+00  2.69006704E+00 -2.96680911E+00
  2.69006704E+00 -2.96680911E+00  2.69006704E+00 -2.96680911E+00  2.69006704E+00
 -2.96680911E+00  2.69006704E+00 -2.96680911E+00  2.69006704E+00  1.91971931E+00
  2.64678908E+00  2.64678908E+00  1.91971931E+00  2.64678908E+00  2.64678908E+00
  2.64678908E+00  1.91971931E+00  2.64678908E+00  1.91971931E+00  2.64678908E+00
  2.64678908E+00  1.91971931E+00  2.64678908E+00  2.64678908E+00  1.91971931E+00
  2.64678908E+00  2.64678908E+00 -5.95686987E+00 -5.95686987E+00 -5.95686987E+00
 -5.95686987E+00 -5.95686987E+00 -5.95686987E+00  2.06276436E+00  2.06276436E+00
  2.06276436E+00  2.06276436E+00  2.06276436E+00  2.06276436E+00  8.03913209E-01
  8.03913209E-01  8.03913209E-01  8.03913209E-01  8.03913209E-01  8.03913209E-01
  8.03913209E-01  8.03913209E-01  8.03913209E-01  8.03913209E-01  8.03913209E-01
  8.03913209E-01  8.03913209E-01  8.03913209E-01  8.03913209E-01  8.03913209E-01
  8.03913209E-01  8.03913209E-01 -5.95686987E+00  1.91971931E+00  2.06276436E+00
 -2.96680911E+00 -2.96680911E+00  8.03913209E-01  8.03913209E-01  8.03913209E-01
 -2.24932427E+00  2.64678908E+00 -2.24932427E+00  2.64678908E+00  2.06094213E+00
  2.69006704E+00  2.69006704E+00 -7.92305604E+00  2.76705626E+00  2.06094213E+00
 -2.40989918E+00 -2.95201260E+00 -2.24932427E+00 -2.24932427E+00 -9.84915315E-01
  2.86545667E+00 -1.59900683E+00  2.65590022E+00 -2.96680911E+00  2.69006704E+00
 -2.96680911E+00  2.69006704E+00 -1.02044880E+00  2.46365496E+00  2.51012183E+00
  1.91971931E+00  2.64678908E+00  2.64678908E+00 -1.02044880E+00 -9.84915315E-01
 -9.84915315E-01 -9.84915315E-01 -5.95686987E+00 -1.59900683E+00 -2.40989918E+00
 -2.40989918E+00 -1.02044880E+00 -2.40989918E+00 -1.02044880E+00  2.06276436E+00
 -2.95201260E+00  2.51012183E+00  2.76705626E+00  2.86545667E+00  2.76705626E+00
  2.86545667E+00 -1.59900683E+00  2.86545667E+00  2.76705626E+00 -1.59900683E+00
  8.03913209E-01  8.03913209E-01  8.03913209E-01  2.65590022E+00 -7.92305604E+00
 -7.92305604E+00 -2.95201260E+00  2.51012183E+00 -7.92305604E+00 -2.95201260E+00
  2.51012183E+00  2.06094213E+00  2.06094213E+00  2.06094213E+00  2.06094213E+00
  2.65590022E+00  2.06094213E+00  2.06094213E+00  2.65590022E+00 -2.24932427E+00
 -2.24932427E+00 -2.24932427E+00 -2.24932427E+00 -2.24932427E+00 -2.24932427E+00
 -2.24932427E+00 -2.24932427E+00 -2.24932427E+00 -2.24932427E+00 -2.24932427E+00
 -2.24932427E+00 -2.96680911E+00  2.69006704E+00 -2.96680911E+00  2.69006704E+00
  2.69006704E+00 -2.96680911E+00  2.69006704E+00 -2.96680911E+00 -2.96680911E+00
  2.69006704E+00 -2.96680911E+00  2.69006704E+00 -2.96680911E+00  2.69006704E+00
 -2.96680911E+00  2.69006704E+00 -2.96680911E+00  2.69006704E+00 -2.96680911E+00
  2.69006704E+00 -2.96680911E+00  2.69006704E+00 -2.96680911E+00  2.69006704E+00
  1.91971931E+00  2.64678908E+00  2.64678908E+00  1.91971931E+00  2.64678908E+00
  2.64678908E+00  2.64678908E+00  1.91971931E+00  2.64678908E+00  1.91971931E+00
  2.64678908E+00  2.64678908E+00  1.91971931E+00  2.64678908E+00  2.64678908E+00
  1.91971931E+00  2.64678908E+00  2.64678908E+00 -5.95686987E+00 -5.95686987E+00
 -5.95686987E+00 -5.95686987E+00 -5.95686987E+00 -5.95686987E+00  2.06276436E+00
  2.06276436E+00  2.06276436E+00  2.06276436E+00  2.06276436E+00  2.06276436E+00
  8.03913209E-01  8.03913209E-01  8.03913209E-01  8.03913209E-01  8.03913209E-01
  8.03913209E-01  8.03913209E-01  8.03913209E-01  8.03913209E-01  8.03913209E-01
  8.03913209E-01  8.03913209E-01  8.03913209E-01  8.03913209E-01  8.03913209E-01
  8.03913209E-01  8.03913209E-01  8.03913209E-01 -5.95686987E+00  1.91971931E+00
  2.06276436E+00 -2.96680911E+00 -2.96680911E+00  8.03913209E-01  8.03913209E-01
  8.03913209E-01 -2.24932427E+00  2.64678908E+00 -2.24932427E+00  2.64678908E+00
  2.06094213E+00  2.69006704E+00  2.69006704E+00 -7.92305604E+00  2.76705626E+00
  2.06094213E+00 -2.40989918E+00 -2.95201260E+00 -2.24932427E+00 -2.24932427E+00
 -9.84915315E-01  2.86545667E+00 -1.59900683E+00  2.65590022E+00 -2.96680911E+00
  2.69006704E+00 -2.96680911E+00  2.69006704E+00 -1.02044880E+00  2.46365496E+00
  2.51012183E+00  1.91971931E+00  2.64678908E+00  2.64678908E+00 -1.02044880E+00
 -9.84915315E-01 -9.84915315E-01 -9.84915315E-01 -5.95686987E+00 -1.59900683E+00
 -2.40989918E+00 -2.40989918E+00 -1.02044880E+00 -2.40989918E+00 -1.02044880E+00
  2.06276436E+00 -2.95201260E+00  2.51012183E+00  2.76705626E+00  2.86545667E+00
  2.76705626E+00  2.86545667E+00 -1.59900683E+00  2.86545667E+00  2.76705626E+00
 -1.59900683E+00  8.03913209E-01  8.03913209E-01  8.03913209E-01  2.65590022E+00
 -7.92305604E+00 -7.92305604E+00 -2.95201260E+00  2.51012183E+00 -7.92305604E+00
 -2.95201260E+00  2.51012183E+00  2.06094213E+00  2.06094213E+00  2.06094213E+00
  2.06094213E+00  2.65590022E+00  2.06094213E+00  2.06094213E+00  2.65590022E+00
 -2.24932427E+00 -2.24932427E+00 -2.24932427E+00 -2.24932427E+00 -2.24932427E+00
 -2.24932427E+00 -2.24932427E+00 -2.24932427E+00 -2.24932427E+00 -2.24932427E+00
 -2.24932427E+00 -2.24932427E+00 -2.96680911E+00  2.69006704E+00 -2.96680911E+00
  2.69006704E+00  2.69006704E+00 -2.96680911E+00  2.69006704E+00 -2.96680911E+00
 -2.96680911E+00  2.69006704E+00 -2.96680911E+00  2.69006704E+00 -2.96680911E+00
  2.69006704E+00 -2.96680911E+00  2.69006704E+00 -2.96680911E+00  2.69006704E+00
 -2.96680911E+00  2.69006704E+00 -2.96680911E+00  2.69006704E+00 -2.96680911E+00
  2.69006704E+00  1.91971931E+00  2.64678908E+00  2.64678908E+00  1.91971931E+00
  2.64678908E+00  2.64678908E+00  2.64678908E+00  1.91971931E+00  2.64678908E+00
  1.91971931E+00  2.64678908E+00  2.64678908E+00  1.91971931E+00  2.64678908E+00
  2.64678908E+00  1.91971931E+00  2.64678908E+00  2.64678908E+00 -5.95686987E+00
 -5.95686987E+00 -5.95686987E+00 -5.95686987E+00 -5.95686987E+00 -5.95686987E+00
  2.06276436E+00  2.06276436E+00  2.06276436E+00  2.06276436E+00  2.06276436E+00
  2.06276436E+00  8.03913209E-01  8.03913209E-01  8.03913209E-01  8.03913209E-01
  8.03913209E-01  8.03913209E-01  8.03913209E-01  8.03913209E-01  8.03913209E-01
  8.03913209E-01  8.03913209E-01  8.03913209E-01  8.03913209E-01  8.03913209E-01
  8.03913209E-01  8.03913209E-01  8.03913209E-01  8.03913209E-01 -5.95686987E+00
  1.91971931E+00  2.06276436E+00 -2.96680911E+00 -2.96680911E+00  8.03913209E-01
  8.03913209E-01  8.03913209E-01 -2.24932427E+00  2.64678908E+00 -2.24932427E+00
  2.64678908E+00  2.06094213E+00  2.69006704E+00  2.69006704E+00 -7.92305604E+00
  2.76705626E+00  2.06094213E+00 -2.40989918E+00 -2.95201260E+00 -2.24932427E+00
 -2.24932427E+00 -9.84915315E-01  2.86545667E+00 -1.59900683E+00  2.65590022E+00
 -2.96680911E+00  2.69006704E+00 -2.96680911E+00  2.69006704E+00 -1.02044880E+00
  2.46365496E+00  2.51012183E+00  1.91971931E+00  2.64678908E+00  2.64678908E+00
 -1.02044880E+00 -9.84915315E-01 -9.84915315E-01 -9.84915315E-01 -5.95686987E+00
 -1.59900683E+00 -2.40989918E+00 -2.40989918E+00 -1.02044880E+00 -2.40989918E+00
 -1.02044880E+00  2.06276436E+00 -2.95201260E+00  2.51012183E+00  2.76705626E+00
  2.86545667E+00  2.76705626E+00  2.86545667E+00 -1.59900683E+00  2.86545667E+00
  2.76705626E+00 -1.59900683E+00  8.03913209E-01  8.03913209E-01  8.03913209E-01
  2.65590022E+00 -7.92305604E+00 -7.92305604E+00 -2.95201260E+00  2.51012183E+00
 -7.92305604E+00 -2.95201260E+00  2.51012183E+00  2.06094213E+00  2.06094213E+00
  2.06094213E+00  2.06094213E+00  2.65590022E+00  2.06094213E+00  2.06094213E+00
  2.65590022E+00 -2.24932427E+00 -2.24932427E+00 -2.24932427E+00 -2.24932427E+00
 -2.24932427E+00 -2.24932427E+00 -2.24932427E+00 -2.24932427E+00 -2.24932427E+00
 -2.24932427E+00 -2.24932427E+00 -2.24932427E+00 -2.96680911E+00  2.69006704E+00
 -2.96680911E+00  2.69006704E+00  2.69006704E+00 -2.96680911E+00  2.69006704E+00
 -2.96680911E+00 -2.96680911E+00  2.69006704E+00 -2.96680911E+00  2.69006704E+00
 -2.96680911E+00  2.69006704E+00 -2.96680911E+00  2.69006704E+00 -2.96680911E+00
  2.69006704E+00 -2.96680911E+00  2.69006704E+00 -2.96680911E+00  2.69006704E+00
 -2.96680911E+00  2.69006704E+00  1.91971931E+00  2.64678908E+00  2.64678908E+00
  1.91971931E+00  2.64678908E+00  2.64678908E+00  2.64678908E+00  1.91971931E+00
  2.64678908E+00  1.91971931E+00  2.64678908E+00  2.64678908E+00  1.91971931E+00
  2.64678908E+00  2.64678908E+00  1.91971931E+00  2.64678908E+00  2.64678908E+00
 -5.95686987E+00 -5.95686987E+00 -5.95686987E+00 -5.95686987E+00 -5.95686987E+00
 -5.95686987E+00  2.06276436E+00  2.06276436E+00  2.06276436E+00  2.06276436E+00
  2.06276436E+00  2.06276436E+00  8.03913209E-01  8.03913209E-01  8.03913209E-01
  8.03913209E-01  8.03913209E-01  8.03913209E-01  8.03913209E-01  8.03913209E-01
  8.03913209E-01  8.03913209E-01  8.03913209E-01  8.03913209E-01  8.03913209E-01
  8.03913209E-01  8.03913209E-01  8.03913209E-01  8.03913209E-01  8.03913209E-01
 -5.95686987E+00  1.91971931E+00  2.06276436E+00 -2.96680911E+00 -2.96680911E+00
  8.03913209E-01  8.03913209E-01  8.03913209E-01 -2.24932427E+00  2.64678908E+00
 -2.24932427E+00  2.64678908E+00  2.06094213E+00  2.69006704E+00  2.69006704E+00
 -7.92305604E+00  2.76705626E+00  2.06094213E+00 -2.40989918E+00 -2.95201260E+00
 -2.24932427E+00 -2.24932427E+00 -9.84915315E-01  2.86545667E+00 -1.59900683E+00
  2.65590022E+00 -2.96680911E+00  2.69006704E+00 -2.96680911E+00  2.69006704E+00
 -1.02044880E+00  2.46365496E+00  2.51012183E+00  1.91971931E+00  2.64678908E+00
  2.64678908E+00 -1.02044880E+00 -9.84915315E-01 -9.84915315E-01 -9.84915315E-01
 -5.95686987E+00 -1.59900683E+00 -2.40989918E+00 -2.40989918E+00 -1.02044880E+00
 -2.40989918E+00 -1.02044880E+00  2.06276436E+00 -2.95201260E+00  2.51012183E+00
  2.76705626E+00  2.86545667E+00  2.76705626E+00  2.86545667E+00 -1.59900683E+00
  2.86545667E+00  2.76705626E+00 -1.59900683E+00  8.03913209E-01  8.03913209E-01
  8.03913209E-01  2.65590022E+00 -7.92305604E+00 -7.92305604E+00 -2.95201260E+00
  2.51012183E+00 -7.92305604E+00 -2.95201260E+00  2.51012183E+00  2.06094213E+00
  2.06094213E+00  2.06094213E+00  2.06094213E+00  2.65590022E+00  2.06094213E+00
  2.06094213E+00  2.65590022E+00 -2.24932427E+00 -2.24932427E+00 -2.24932427E+00
 -2.24932427E+00 -2.24932427E+00 -2.24932427E+00 -2.24932427E+00 -2.24932427E+00
 -2.24932427E+00 -2.24932427E+00 -2.24932427E+00 -2.24932427E+00 -2.96680911E+00
  2.69006704E+00 -2.96680911E+00  2.69006704E+00  2.69006704E+00 -2.96680911E+00
  2.69006704E+00 -2.96680911E+00 -2.96680911E+00  2.69006704E+00 -2.96680911E+00
  2.69006704E+00 -2.96680911E+00  2.69006704E+00 -2.96680911E+00  2.69006704E+00
 -2.96680911E+00  2.69006704E+00 -2.96680911E+00  2.69006704E+00 -2.96680911E+00
  2.69006704E+00 -2.96680911E+00  2.69006704E+00  1.91971931E+00  2.64678908E+00
  2.64678908E+00  1.91971931E+00  2.64678908E+00  2.64678908E+00  2.64678908E+00
  1.91971931E+00  2.64678908E+00  1.91971931E+00  2.64678908E+00  2.64678908E+00
  1.91971931E+00  2.64678908E+00  2.64678908E+00  1.91971931E+00  2.64678908E+00
  2.64678908E+00 -5.95686987E+00 -5.95686987E+00 -5.95686987E+00 -5.95686987E+00
 -5.95686987E+00 -5.95686987E+00  2.06276436E+00  2.06276436E+00  2.06276436E+00
  2.06276436E+00  2.06276436E+00  2.06276436E+00  8.03913209E-01  8.03913209E-01
  8.03913209E-01  8.03913209E-01  8.03913209E-01  8.03913209E-01  8.03913209E-01
  8.03913209E-01  8.03913209E-01  8.03913209E-01  8.03913209E-01  8.03913209E-01
  8.03913209E-01  8.03913209E-01  8.03913209E-01  8.03913209E-01  8.03913209E-01
  8.03913209E-01 -5.95686987E+00  1.91971931E+00  2.06276436E+00 -2.96680911E+00
 -2.96680911E+00  8.03913209E-01  8.03913209E-01  8.03913209E-01 -2.24932427E+00
  2.64678908E+00 -2.24932427E+00  2.64678908E+00  2.06094213E+00  2.69006704E+00
  2.69006704E+00 -7.92305604E+00  2.76705626E+00  2.06094213E+00 -2.40989918E+00
 -2.95201260E+00 -2.24932427E+00 -2.24932427E+00 -9.84915315E-01  2.86545667E+00
 -1.59900683E+00  2.65590022E+00 -2.96680911E+00  2.69006704E+00 -2.96680911E+00
  2.69006704E+00 -1.02044880E+00  2.46365496E+00  2.51012183E+00  1.91971931E+00
  2.64678908E+00  2.64678908E+00 -1.02044880E+00 -9.84915315E-01 -9.84915315E-01
 -9.84915315E-01 -5.95686987E+00 -1.59900683E+00 -2.40989918E+00 -2.40989918E+00
 -1.02044880E+00 -2.40989918E+00 -1.02044880E+00  2.06276436E+00 -2.95201260E+00
  2.51012183E+00  2.76705626E+00  2.86545667E+00  2.76705626E+00  2.86545667E+00
 -1.59900683E+00  2.86545667E+00  2.76705626E+00 -1.59900683E+00  8.03913209E-01
  8.03913209E-01  8.03913209E-01  2.65590022E+00 -7.92305604E+00 -7.92305604E+00
 -2.95201260E+00  2.51012183E+00 -7.92305604E+00 -2.95201260E+00  2.51012183E+00
  2.06094213E+00  2.06094213E+00  2.06094213E+00  2.06094213E+00  2.65590022E+00
  2.06094213E+00  2.06094213E+00  2.65590022E+00 -2.24932427E+00 -2.24932427E+00
 -2.24932427E+00 -2.24932427E+00 -2.24932427E+00 -2.24932427E+00 -2.24932427E+00
 -2.24932427E+00 -2.24932427E+00 -2.24932427E+00 -2.24932427E+00 -2.24932427E+00
 -2.96680911E+00  2.69006704E+00 -2.96680911E+00  2.69006704E+00  2.69006704E+00
 -2.96680911E+00  2.69006704E+00 -2.96680911E+00 -2.96680911E+00  2.69006704E+00
 -2.96680911E+00  2.69006704E+00 -2.96680911E+00  2.69006704E+00 -2.96680911E+00
  2.69006704E+00 -2.96680911E+00  2.69006704E+00 -2.96680911E+00  2.69006704E+00
 -2.96680911E+00  2.69006704E+00 -2.96680911E+00  2.69006704E+00  1.91971931E+00
  2.64678908E+00  2.64678908E+00  1.91971931E+00  2.64678908E+00  2.64678908E+00
  2.64678908E+00  1.91971931E+00  2.64678908E+00  1.91971931E+00  2.64678908E+00
  2.64678908E+00  1.91971931E+00  2.64678908E+00  2.64678908E+00  1.91971931E+00
  2.64678908E+00  2.64678908E+00 -5.95686987E+00 -5.95686987E+00 -5.95686987E+00
 -5.95686987E+00 -5.95686987E+00 -5.95686987E+00  2.06276436E+00  2.06276436E+00
  2.06276436E+00  2.06276436E+00  2.06276436E+00  2.06276436E+00  8.03913209E-01
  8.03913209E-01  8.03913209E-01  8.03913209E-01  8.03913209E-01  8.03913209E-01
  8.03913209E-01  8.03913209E-01  8.03913209E-01  8.03913209E-01  8.03913209E-01
  8.03913209E-01  8.03913209E-01  8.03913209E-01  8.03913209E-01  8.03913209E-01
  8.03913209E-01  8.03913209E-01 -5.95686987E+00  1.91971931E+00  2.06276436E+00
 -2.96680911E+00 -2.96680911E+00  8.03913209E-01  8.03913209E-01  8.03913209E-01
 -2.24932427E+00  2.64678908E+00 -2.24932427E+00  2.64678908E+00  2.06094213E+00
  2.69006704E+00  2.69006704E+00 -7.92305604E+00  2.76705626E+00  2.06094213E+00
 -2.40989918E+00 -2.95201260E+00 -2.24932427E+00 -2.24932427E+00 -9.84915315E-01
  2.86545667E+00 -1.59900683E+00  2.65590022E+00 -2.96680911E+00  2.69006704E+00
 -2.96680911E+00  2.69006704E+00 -1.02044880E+00  2.46365496E+00  2.51012183E+00
  1.91971931E+00  2.64678908E+00  2.64678908E+00 -1.02044880E+00 -9.84915315E-01
 -9.84915315E-01 -9.84915315E-01 -5.95686987E+00 -1.59900683E+00 -2.40989918E+00
 -2.40989918E+00 -1.02044880E+00 -2.40989918E+00 -1.02044880E+00  2.06276436E+00
 -2.95201260E+00  2.51012183E+00  2.76705626E+00  2.86545667E+00  2.76705626E+00
  2.86545667E+00 -1.59900683E+00  2.86545667E+00  2.76705626E+00 -1.59900683E+00
  8.03913209E-01  8.03913209E-01  8.03913209E-01  2.65590022E+00 -7.92305604E+00
 -7.92305604E+00 -2.95201260E+00  2.51012183E+00 -7.92305604E+00 -2.95201260E+00
  2.51012183E+00  2.06094213E+00  2.06094213E+00  2.06094213E+00  2.06094213E+00
  2.65590022E+00  2.06094213E+00  2.06094213E+00  2.65590022E+00 -2.24932427E+00
 -2.24932427E+00 -2.24932427E+00 -2.24932427E+00 -2.24932427E+00 -2.24932427E+00
 -2.24932427E+00 -2.24932427E+00 -2.24932427E+00 -2.24932427E+00 -2.24932427E+00
 -2.24932427E+00 -2.96680911E+00  2.69006704E+00 -2.96680911E+00  2.69006704E+00
  2.69006704E+00 -2.96680911E+00  2.69006704E+00 -2.96680911E+00 -2.96680911E+00
  2.69006704E+00 -2.96680911E+00  2.69006704E+00 -2.96680911E+00  2.69006704E+00
 -2.96680911E+00  2.69006704E+00 -2.96680911E+00  2.69006704E+00 -2.96680911E+00
  2.69006704E+00 -2.96680911E+00  2.69006704E+00 -2.96680911E+00  2.69006704E+00
  1.91971931E+00  2.64678908E+00  2.64678908E+00  1.91971931E+00  2.64678908E+00
  2.64678908E+00  2.64678908E+00  1.91971931E+00  2.64678908E+00  1.91971931E+00
  2.64678908E+00  2.64678908E+00  1.91971931E+00  2.64678908E+00  2.64678908E+00
  1.91971931E+00  2.64678908E+00  2.64678908E+00 -5.95686987E+00 -5.95686987E+00
 -5.95686987E+00 -5.95686987E+00 -5.95686987E+00 -5.95686987E+00  2.06276436E+00
  2.06276436E+00  2.06276436E+00  2.06276436E+00  2.06276436E+00  2.06276436E+00
  8.03913209E-01  8.03913209E-01  8.03913209E-01  8.03913209E-01  8.03913209E-01
  8.03913209E-01  8.03913209E-01  8.03913209E-01  8.03913209E-01  8.03913209E-01
  8.03913209E-01  8.03913209E-01  8.03913209E-01  8.03913209E-01  8.03913209E-01
  8.03913209E-01  8.03913209E-01  8.03913209E-01 -5.95686987E+00  1.91971931E+00
  2.06276436E+00 -2.96680911E+00 -2.96680911E+00  8.03913209E-01  8.03913209E-01
  8.03913209E-01 -2.24932427E+00  2.64678908E+00 -2.24932427E+00  2.64678908E+00
  2.06094213E+00  2.69006704E+00  2.69006704E+00 -7.92305604E+00  2.76705626E+00
  2.06094213E+00 -2.40989918E+00 -2.95201260E+00 -2.24932427E+00 -2.24932427E+00
 -9.84915315E-01  2.86545667E+00 -1.59900683E+00  2.65590022E+00 -2.96680911E+00
  2.69006704E+00 -2.96680911E+00  2.69006704E+00 -1.02044880E+00  2.46365496E+00
  2.51012183E+00  1.91971931E+00  2.64678908E+00  2.64678908E+00 -1.02044880E+00
 -9.84915315E-01 -9.84915315E-01 -9.84915315E-01 -5.95686987E+00 -1.59900683E+00
 -2.40989918E+00 -2.40989918E+00 -1.02044880E+00 -2.40989918E+00 -1.02044880E+00
  2.06276436E+00 -2.95201260E+00  2.51012183E+00  2.76705626E+00  2.86545667E+00
  2.76705626E+00  2.86545667E+00 -1.59900683E+00  2.86545667E+00  2.76705626E+00
 -1.59900683E+00  8.03913209E-01  8.03913209E-01  8.03913209E-01  2.65590022E+00
 -7.92305604E+00 -7.92305604E+00 -2.95201260E+00  2.51012183E+00 -7.92305604E+00
 -2.95201260E+00  2.51012183E+00  2.06094213E+00  2.06094213E+00  2.06094213E+00
  2.06094213E+00  2.65590022E+00  2.06094213E+00  2.06094213E+00  2.65590022E+00
 -2.24932427E+00 -2.24932427E+00 -2.24932427E+00 -2.24932427E+00 -2.24932427E+00
 -2.24932427E+00 -2.24932427E+00 -2.24932427E+00 -2.24932427E+00 -2.24932427E+00
 -2.24932427E+00 -2.24932427E+00 -2.96680911E+00  2.69006704E+00 -2.96680911E+00
  2.69006704E+00  2.69006704E+00 -2.96680911E+00  2.69006704E+00 -2.96680911E+00
 -2.96680911E+00  2.69006704E+00 -2.96680911E+00  2.69006704E+00 -2.96680911E+00
  2.69006704E+00 -2.96680911E+00  2.69006704E+00 -2.96680911E+00  2.69006704E+00
 -2.96680911E+00  2.69006704E+00 -2.96680911E+00  2.69006704E+00 -2.96680911E+00
  2.69006704E+00  1.91971931E+00  2.64678908E+00  2.64678908E+00  1.91971931E+00
  2.64678908E+00  2.64678908E+00  2.64678908E+00  1.91971931E+00  2.64678908E+00
  1.91971931E+00  2.64678908E+00  2.64678908E+00  1.91971931E+00  2.64678908E+00
  2.64678908E+00  1.91971931E+00  2.64678908E+00  2.64678908E+00 -5.95686987E+00
 -5.95686987E+00 -5.95686987E+00 -5.95686987E+00 -5.95686987E+00 -5.95686987E+00
  2.06276436E+00  2.06276436E+00  2.06276436E+00  2.06276436E+00  2.06276436E+00
  2.06276436E+00  8.03913209E-01  8.03913209E-01  8.03913209E-01  8.03913209E-01
  8.03913209E-01  8.03913209E-01  8.03913209E-01  8.03913209E-01  8.03913209E-01
  8.03913209E-01  8.03913209E-01  8.03913209E-01  8.03913209E-01  8.03913209E-01
  8.03913209E-01  8.03913209E-01  8.03913209E-01  8.03913209E-01 -5.95686987E+00
  1.91971931E+00  2.06276436E+00 -2.96680911E+00 -2.96680911E+00  8.03913209E-01
  8.03913209E-01  8.03913209E-01 -2.24932427E+00  2.64678908E+00 -2.24932427E+00
  2.64678908E+00  2.06094213E+00  2.69006704E+00  2.69006704E+00 -7.92305604E+00
  2.76705626E+00  2.06094213E+00 -2.40989918E+00 -2.95201260E+00 -2.24932427E+00
 -2.24932427E+00 -9.84915315E-01  2.86545667E+00 -1.59900683E+00  2.65590022E+00
 -2.96680911E+00  2.69006704E+00 -2.96680911E+00  2.69006704E+00 -1.02044880E+00
  2.46365496E+00  2.51012183E+00  1.91971931E+00  2.64678908E+00  2.64678908E+00
 -1.02044880E+00 -9.84915315E-01 -9.84915315E-01 -9.84915315E-01 -5.95686987E+00
 -1.59900683E+00 -2.40989918E+00 -2.40989918E+00 -1.02044880E+00 -2.40989918E+00
 -1.02044880E+00  2.06276436E+00 -2.95201260E+00  2.51012183E+00  2.76705626E+00
  2.86545667E+00  2.76705626E+00  2.86545667E+00 -1.59900683E+00  2.86545667E+00
  2.76705626E+00 -1.59900683E+00  8.03913209E-01  8.03913209E-01  8.03913209E-01
  2.65590022E+00 -7.92305604E+00 -7.92305604E+00 -2.95201260E+00  2.51012183E+00
 -7.92305604E+00 -2.95201260E+00  2.51012183E+00  2.06094213E+00  2.06094213E+00
  2.06094213E+00  2.06094213E+00  2.65590022E+00  2.06094213E+00  2.06094213E+00
  2.65590022E+00 -2.24932427E+00 -2.24932427E+00 -2.24932427E+00 -2.24932427E+00
 -2.24932427E+00 -2.24932427E+00 -2.24932427E+00 -2.24932427E+00 -2.24932427E+00
 -2.24932427E+00 -2.24932427E+00 -2.24932427E+00 -2.96680911E+00  2.69006704E+00
 -2.96680911E+00  2.69006704E+00  2.69006704E+00 -2.96680911E+00  2.69006704E+00
 -2.96680911E+00 -2.96680911E+00  2.69006704E+00 -2.96680911E+00  2.69006704E+00
 -2.96680911E+00  2.69006704E+00 -2.96680911E+00  2.69006704E+00 -2.96680911E+00
  2.69006704E+00 -2.96680911E+00  2.69006704E+00 -2.96680911E+00  2.69006704E+00
 -2.96680911E+00  2.69006704E+00  1.91971931E+00  2.64678908E+00  2.64678908E+00
  1.91971931E+00  2.64678908E+00  2.64678908E+00  2.64678908E+00  1.91971931E+00
  2.64678908E+00  1.91971931E+00  2.64678908E+00  2.64678908E+00  1.91971931E+00
  2.64678908E+00  2.64678908E+00  1.91971931E+00  2.64678908E+00  2.64678908E+00
 -5.95686987E+00 -5.95686987E+00 -5.95686987E+00 -5.95686987E+00 -5.95686987E+00
 -5.95686987E+00  2.06276436E+00  2.06276436E+00  2.06276436E+00  2.06276436E+00
  2.06276436E+00  2.06276436E+00  8.03913209E-01  8.03913209E-01  8.03913209E-01
  8.03913209E-01  8.03913209E-01  8.03913209E-01  8.03913209E-01  8.03913209E-01
  8.03913209E-01  8.03913209E-01  8.03913209E-01  8.03913209E-01  8.03913209E-01
  8.03913209E-01  8.03913209E-01  8.03913209E-01  8.03913209E-01  8.03913209E-01
 -5.95686987E+00  1.91971931E+00  2.06276436E+00 -2.96680911E+00 -2.96680911E+00
  8.03913209E-01  8.03913209E-01  8.03913209E-01 -2.24932427E+00  2.64678908E+00
 -2.24932427E+00  2.64678908E+00  2.06094213E+00  2.69006704E+00  2.69006704E+00
 -7.92305604E+00  2.76705626E+00  2.06094213E+00 -2.40989918E+00 -2.95201260E+00
 -2.24932427E+00 -2.24932427E+00 -9.84915315E-01  2.86545667E+00 -1.59900683E+00
  2.65590022E+00 -2.96680911E+00  2.69006704E+00 -2.96680911E+00  2.69006704E+00
 -1.02044880E+00  2.46365496E+00  2.51012183E+00  1.91971931E+00  2.64678908E+00
  2.64678908E+00 -1.02044880E+00 -9.84915315E-01 -9.84915315E-01 -9.84915315E-01
 -5.95686987E+00 -1.59900683E+00 -2.40989918E+00 -2.40989918E+00 -1.02044880E+00
 -2.40989918E+00 -1.02044880E+00  2.06276436E+00 -2.95201260E+00  2.51012183E+00
  2.76705626E+00  2.86545667E+00  2.76705626E+00  2.86545667E+00 -1.59900683E+00
  2.86545667E+00  2.76705626E+00 -1.59900683E+00  8.03913209E-01  8.03913209E-01
  8.03913209E-01  2.65590022E+00 -7.92305604E+00 -7.92305604E+00 -2.95201260E+00
  2.51012183E+00 -7.92305604E+00 -2.95201260E+00  2.51012183E+00  2.06094213E+00
  2.06094213E+00  2.06094213E+00  2.06094213E+00  2.65590022E+00  2.06094213E+00
  2.06094213E+00  2.65590022E+00 -2.24932427E+00 -2.24932427E+00 -2.24932427E+00
 -2.24932427E+00 -2.24932427E+00 -2.24932427E+00 -2.24932427E+00 -2.24932427E+00
 -2.24932427E+00 -2.24932427E+00 -2.24932427E+00 -2.24932427E+00 -2.96680911E+00
  2.69006704E+00 -2.96680911E+00  2.69006704E+00  2.69006704E+00 -2.96680911E+00
  2.69006704E+00 -2.96680911E+00 -2.96680911E+00  2.69006704E+00 -2.96680911E+00
  2.69006704E+00 -2.96680911E+00  2.69006704E+00 -2.96680911E+00  2.69006704E+00
 -2.96680911E+00  2.69006704E+00 -2.96680911E+00  2.69006704E+00 -2.96680911E+00
  2.69006704E+00 -2.96680911E+00  2.69006704E+00  1.91971931E+00  2.64678908E+00
  2.64678908E+00  1.91971931E+00  2.64678908E+00  2.64678908E+00  2.64678908E+00
  1.91971931E+00  2.64678908E+00  1.91971931E+00  2.64678908E+00  2.64678908E+00
  1.91971931E+00  2.64678908E+00  2.64678908E+00  1.91971931E+00  2.64678908E+00
  2.64678908E+00 -5.95686987E+00 -5.95686987E+00 -5.95686987E+00 -5.95686987E+00
 -5.95686987E+00 -5.95686987E+00  2.06276436E+00  2.06276436E+00  2.06276436E+00
  2.06276436E+00  2.06276436E+00  2.06276436E+00  8.03913209E-01  8.03913209E-01
  8.03913209E-01  8.03913209E-01  8.03913209E-01  8.03913209E-01  8.03913209E-01
  8.03913209E-01  8.03913209E-01  8.03913209E-01  8.03913209E-01  8.03913209E-01
  8.03913209E-01  8.03913209E-01  8.03913209E-01  8.03913209E-01  8.03913209E-01
  8.03913209E-01 -5.95686987E+00  1.91971931E+00  2.06276436E+00 -2.96680911E+00
 -2.96680911E+00  8.03913209E-01  8.03913209E-01  8.03913209E-01 -2.24932427E+00
  2.64678908E+00 -2.24932427E+00  2.64678908E+00  2.06094213E+00  2.69006704E+00
  2.69006704E+00 -7.92305604E+00  2.76705626E+00  2.06094213E+00 -2.40989918E+00
 -2.95201260E+00 -2.24932427E+00 -2.24932427E+00 -9.84915315E-01  2.86545667E+00
 -1.59900683E+00  2.65590022E+00 -2.96680911E+00  2.69006704E+00 -2.96680911E+00
  2.69006704E+00 -1.02044880E+00  2.46365496E+00  2.51012183E+00  1.91971931E+00
  2.64678908E+00  2.64678908E+00 -1.02044880E+00 -9.84915315E-01 -9.84915315E-01
 -9.84915315E-01 -5.95686987E+00 -1.59900683E+00 -2.40989918E+00 -2.40989918E+00
 -1.02044880E+00 -2.40989918E+00 -1.02044880E+00  2.06276436E+00 -2.95201260E+00
  2.51012183E+00  2.76705626E+00  2.86545667E+00  2.76705626E+00  2.86545667E+00
 -1.59900683E+00  2.86545667E+00  2.76705626E+00 -1.59900683E+00  8.03913209E-01
  8.03913209E-01  8.03913209E-01  2.65590022E+00 -7.92305604E+00 -7.92305604E+00
 -2.95201260E+00  2.51012183E+00 -7.92305604E+00 -2.95201260E+00  2.51012183E+00
  2.06094213E+00  2.06094213E+00  2.06094213E+00  2.06094213E+00  2.65590022E+00
  2.06094213E+00  2.06094213E+00  2.65590022E+00 -2.24932427E+00 -2.24932427E+00
 -2.24932427E+00 -2.24932427E+00 -2.24932427E+00 -2.24932427E+00 -2.24932427E+00
 -2.24932427E+00 -2.24932427E+00 -2.24932427E+00 -2.24932427E+00 -2.24932427E+00
 -2.96680911E+00  2.69006704E+00 -2.96680911E+00  2.69006704E+00  2.69006704E+00
 -2.96680911E+00  2.69006704E+00 -2.96680911E+00 -2.96680911E+00  2.69006704E+00
 -2.96680911E+00  2.69006704E+00 -2.96680911E+00  2.69006704E+00 -2.96680911E+00
  2.69006704E+00 -2.96680911E+00  2.69006704E+00 -2.96680911E+00  2.69006704E+00
 -2.96680911E+00  2.69006704E+00 -2.96680911E+00  2.69006704E+00  1.91971931E+00
  2.64678908E+00  2.64678908E+00  1.91971931E+00  2.64678908E+00  2.64678908E+00
  2.64678908E+00  1.91971931E+00  2.64678908E+00  1.91971931E+00  2.64678908E+00
  2.64678908E+00  1.91971931E+00  2.64678908E+00  2.64678908E+00  1.91971931E+00
  2.64678908E+00  2.64678908E+00 -5.95686987E+00 -5.95686987E+00 -5.95686987E+00
 -5.95686987E+00 -5.95686987E+00 -5.95686987E+00  2.06276436E+00  2.06276436E+00
  2.06276436E+00  2.06276436E+00  2.06276436E+00  2.06276436E+00  8.03913209E-01
  8.03913209E-01  8.03913209E-01  8.03913209E-01  8.03913209E-01  8.03913209E-01
  8.03913209E-01  8.03913209E-01  8.03913209E-01  8.03913209E-01  8.03913209E-01
  8.03913209E-01  8.03913209E-01  8.03913209E-01  8.03913209E-01  8.03913209E-01
  8.03913209E-01  8.03913209E-01 -5.95686987E+00  1.91971931E+00  2.06276436E+00
 -2.96680911E+00 -2.96680911E+00  8.03913209E-01  8.03913209E-01  8.03913209E-01
 -2.24932427E+00  2.64678908E+00 -2.24932427E+00  2.64678908E+00  2.06094213E+00
  2.69006704E+00  2.69006704E+00 -7.92305604E+00  2.76705626E+00  2.06094213E+00
 -2.40989918E+00 -2.95201260E+00 -2.24932427E+00 -2.24932427E+00 -9.84915315E-01
  2.86545667E+00 -1.59900683E+00  2.65590022E+00 -2.96680911E+00  2.69006704E+00
 -2.96680911E+00  2.69006704E+00 -1.02044880E+00  2.46365496E+00  2.51012183E+00
  1.91971931E+00  2.64678908E+00  2.64678908E+00 -1.02044880E+00 -9.84915315E-01
 -9.84915315E-01 -9.84915315E-01 -5.95686987E+00 -1.59900683E+00 -2.40989918E+00
 -2.40989918E+00 -1.02044880E+00 -2.40989918E+00 -1.02044880E+00  2.06276436E+00
 -2.95201260E+00  2.51012183E+00  2.76705626E+00  2.86545667E+00  2.76705626E+00
  2.86545667E+00 -1.59900683E+00  2.86545667E+00  2.76705626E+00 -1.59900683E+00
  8.03913209E-01  8.03913209E-01  8.03913209E-01  2.65590022E+00 -7.92305604E+00
 -7.92305604E+00 -2.95201260E+00  2.51012183E+00 -7.92305604E+00 -2.95201260E+00
  2.51012183E+00  2.06094213E+00  2.06094213E+00  2.06094213E+00  2.06094213E+00
  2.65590022E+00  2.06094213E+00  2.06094213E+00  2.65590022E+00 -2.24932427E+00
 -2.24932427E+00 -2.24932427E+00 -2.24932427E+00 -2.24932427E+00 -2.24932427E+00
 -2.24932427E+00 -2.24932427E+00 -2.24932427E+00 -2.24932427E+00 -2.24932427E+00
 -2.24932427E+00 -2.96680911E+00  2.69006704E+00 -2.96680911E+00  2.69006704E+00
  2.69006704E+00 -2.96680911E+00  2.69006704E+00 -2.96680911E+00 -2.96680911E+00
  2.69006704E+00 -2.96680911E+00  2.69006704E+00 -2.96680911E+00  2.69006704E+00
 -2.96680911E+00  2.69006704E+00 -2.96680911E+00  2.69006704E+00 -2.96680911E+00
  2.69006704E+00 -2.96680911E+00  2.69006704E+00 -2.96680911E+00  2.69006704E+00
  1.91971931E+00  2.64678908E+00  2.64678908E+00  1.91971931E+00  2.64678908E+00
  2.64678908E+00  2.64678908E+00  1.91971931E+00  2.64678908E+00  1.91971931E+00
  2.64678908E+00  2.64678908E+00  1.91971931E+00  2.64678908E+00  2.64678908E+00
  1.91971931E+00  2.64678908E+00  2.64678908E+00 -5.95686987E+00 -5.95686987E+00
 -5.95686987E+00 -5.95686987E+00 -5.95686987E+00 -5.95686987E+00  2.06276436E+00
  2.06276436E+00  2.06276436E+00  2.06276436E+00  2.06276436E+00  2.06276436E+00
  8.03913209E-01  8.03913209E-01  8.03913209E-01  8.03913209E-01  8.03913209E-01
  8.03913209E-01  8.03913209E-01  8.03913209E-01  8.03913209E-01  8.03913209E-01
  8.03913209E-01  8.03913209E-01  8.03913209E-01  8.03913209E-01  8.03913209E-01
  8.03913209E-01  8.03913209E-01  8.03913209E-01 -5.95686987E+00  1.91971931E+00
  2.06276436E+00 -2.96680911E+00 -2.96680911E+00  8.03913209E-01  8.03913209E-01
  8.03913209E-01 -2.24932427E+00  2.64678908E+00 -2.24932427E+00  2.64678908E+00
  2.06094213E+00  2.69006704E+00  2.69006704E+00 -7.92305604E+00  2.76705626E+00
  2.06094213E+00 -2.40989918E+00 -2.95201260E+00 -2.24932427E+00 -2.24932427E+00
 -9.84915315E-01  2.86545667E+00 -1.59900683E+00  2.65590022E+00 -2.96680911E+00
  2.69006704E+00 -2.96680911E+00  2.69006704E+00 -1.02044880E+00  2.46365496E+00
  2.51012183E+00  1.91971931E+00  2.64678908E+00  2.64678908E+00 -1.02044880E+00
 -9.84915315E-01 -9.84915315E-01 -9.84915315E-01 -5.95686987E+00 -1.59900683E+00
 -2.40989918E+00 -2.40989918E+00 -1.02044880E+00 -2.40989918E+00 -1.02044880E+00
  2.06276436E+00 -2.95201260E+00  2.51012183E+00  2.76705626E+00  2.86545667E+00
  2.76705626E+00  2.86545667E+00 -1.59900683E+00  2.86545667E+00  2.76705626E+00
 -1.59900683E+00  8.03913209E-01  8.03913209E-01  8.03913209E-01  2.65590022E+00
 -7.92305604E+00 -7.92305604E+00 -2.95201260E+00  2.51012183E+00 -7.92305604E+00
 -2.95201260E+00  2.51012183E+00  2.06094213E+00  2.06094213E+00  2.06094213E+00
  2.06094213E+00  2.65590022E+00  2.06094213E+00  2.06094213E+00  2.65590022E+00
 -2.24932427E+00 -2.24932427E+00 -2.24932427E+00 -2.24932427E+00 -2.24932427E+00
 -2.24932427E+00 -2.24932427E+00 -2.24932427E+00 -2.24932427E+00 -2.24932427E+00
 -2.24932427E+00 -2.24932427E+00 -2.96680911E+00  2.69006704E+00 -2.96680911E+00
  2.69006704E+00  2.69006704E+00 -2.96680911E+00  2.69006704E+00 -2.96680911E+00
 -2.96680911E+00  2.69006704E+00 -2.96680911E+00  2.69006704E+00 -2.96680911E+00
  2.69006704E+00 -2.96680911E+00  2.69006704E+00 -2.96680911E+00  2.69006704E+00
 -2.96680911E+00  2.69006704E+00 -2.96680911E+00  2.69006704E+00 -2.96680911E+00
  2.69006704E+00  1.91971931E+00  2.64678908E+00  2.64678908E+00  1.91971931E+00
  2.64678908E+00  2.64678908E+00  2.64678908E+00  1.91971931E+00  2.64678908E+00
  1.91971931E+00  2.64678908E+00  2.64678908E+00  1.91971931E+00  2.64678908E+00
  2.64678908E+00  1.91971931E+00  2.64678908E+00  2.64678908E+00 -5.95686987E+00
 -5.95686987E+00 -5.95686987E+00 -5.95686987E+00 -5.95686987E+00 -5.95686987E+00
  2.06276436E+00  2.06276436E+00  2.06276436E+00  2.06276436E+00  2.06276436E+00
  2.06276436E+00  8.03913209E-01  8.03913209E-01  8.03913209E-01  8.03913209E-01
  8.03913209E-01  8.03913209E-01  8.03913209E-01  8.03913209E-01  8.03913209E-01
  8.03913209E-01  8.03913209E-01  8.03913209E-01  8.03913209E-01  8.03913209E-01
  8.03913209E-01  8.03913209E-01  8.03913209E-01  8.03913209E-01 -5.95686987E+00
  1.91971931E+00  2.06276436E+00 -2.96680911E+00 -2.96680911E+00  8.03913209E-01
  8.03913209E-01  8.03913209E-01 -2.24932427E+00  2.64678908E+00 -2.24932427E+00
  2.64678908E+00  2.06094213E+00  2.69006704E+00  2.69006704E+00 -7.92305604E+00
  2.76705626E+00  2.06094213E+00 -2.40989918E+00 -2.95201260E+00 -2.24932427E+00
 -2.24932427E+00 -9.84915315E-01  2.86545667E+00 -1.59900683E+00  2.65590022E+00
 -2.96680911E+00  2.69006704E+00 -2.96680911E+00  2.69006704E+00 -1.02044880E+00
  2.46365496E+00  2.51012183E+00  1.91971931E+00  2.64678908E+00  2.64678908E+00
 -1.02044880E+00 -9.84915315E-01 -9.84915315E-01 -9.84915315E-01 -5.95686987E+00
 -1.59900683E+00 -2.40989918E+00 -2.40989918E+00 -1.02044880E+00 -2.40989918E+00
 -1.02044880E+00  2.06276436E+00 -2.95201260E+00  2.51012183E+00  2.76705626E+00
  2.86545667E+00  2.76705626E+00  2.86545667E+00 -1.59900683E+00  2.86545667E+00
  2.76705626E+00 -1.59900683E+00  8.03913209E-01  8.03913209E-01  8.03913209E-01
  2.65590022E+00 -7.92305604E+00 -7.92305604E+00 -2.95201260E+00  2.51012183E+00
 -7.92305604E+00 -2.95201260E+00  2.51012183E+00  2.06094213E+00  2.06094213E+00
  2.06094213E+00  2.06094213E+00  2.65590022E+00  2.06094213E+00  2.06094213E+00
  2.65590022E+00 -2.24932427E+00 -2.24932427E+00 -2.24932427E+00 -2.24932427E+00
 -2.24932427E+00 -2.24932427E+00 -2.24932427E+00 -2.24932427E+00 -2.24932427E+00
 -2.24932427E+00 -2.24932427E+00 -2.24932427E+00 -2.96680911E+00  2.69006704E+00
 -2.96680911E+00  2.69006704E+00  2.69006704E+00 -2.96680911E+00  2.69006704E+00
 -2.96680911E+00 -2.96680911E+00  2.69006704E+00 -2.96680911E+00  2.69006704E+00
 -2.96680911E+00  2.69006704E+00 -2.96680911E+00  2.69006704E+00 -2.96680911E+00
  2.69006704E+00 -2.96680911E+00  2.69006704E+00 -2.96680911E+00  2.69006704E+00
 -2.96680911E+00  2.69006704E+00  1.91971931E+00  2.64678908E+00  2.64678908E+00
  1.91971931E+00  2.64678908E+00  2.64678908E+00  2.64678908E+00  1.91971931E+00
  2.64678908E+00  1.91971931E+00  2.64678908E+00  2.64678908E+00  1.91971931E+00
  2.64678908E+00  2.64678908E+00  1.91971931E+00  2.64678908E+00  2.64678908E+00
 -5.95686987E+00 -5.95686987E+00 -5.95686987E+00 -5.95686987E+00 -5.95686987E+00
 -5.95686987E+00  2.06276436E+00  2.06276436E+00  2.06276436E+00  2.06276436E+00
  2.06276436E+00  2.06276436E+00  8.03913209E-01  8.03913209E-01  8.03913209E-01
  8.03913209E-01  8.03913209E-01  8.03913209E-01  8.03913209E-01  8.03913209E-01
  8.03913209E-01  8.03913209E-01  8.03913209E-01  8.03913209E-01  8.03913209E-01
  8.03913209E-01  8.03913209E-01  8.03913209E-01  8.03913209E-01  8.03913209E-01
 -5.95686987E+00  1.91971931E+00  2.06276436E+00 -2.96680911E+00 -2.96680911E+00
  8.03913209E-01  8.03913209E-01  8.03913209E-01 -2.24932427E+00  2.64678908E+00
 -2.24932427E+00  2.64678908E+00  2.06094213E+00  2.69006704E+00  2.69006704E+00
 -7.92305604E+00  2.76705626E+00  2.06094213E+00 -2.40989918E+00 -2.95201260E+00
 -2.24932427E+00 -2.24932427E+00 -9.84915315E-01  2.86545667E+00 -1.59900683E+00
  2.65590022E+00 -2.96680911E+00  2.69006704E+00 -2.96680911E+00  2.69006704E+00
 -1.02044880E+00  2.46365496E+00  2.51012183E+00  1.91971931E+00  2.64678908E+00
  2.64678908E+00 -1.02044880E+00 -9.84915315E-01 -9.84915315E-01 -9.84915315E-01
 -5.95686987E+00 -1.59900683E+00 -2.40989918E+00 -2.40989918E+00 -1.02044880E+00
 -2.40989918E+00 -1.02044880E+00  2.06276436E+00 -2.95201260E+00  2.51012183E+00
  2.76705626E+00  2.86545667E+00  2.76705626E+00  2.86545667E+00 -1.59900683E+00
  2.86545667E+00  2.76705626E+00 -1.59900683E+00  8.03913209E-01  8.03913209E-01
  8.03913209E-01  2.65590022E+00 -7.92305604E+00 -7.92305604E+00 -2.95201260E+00
  2.51012183E+00 -7.92305604E+00 -2.95201260E+00  2.51012183E+00  2.06094213E+00
  2.06094213E+00  2.06094213E+00  2.06094213E+00  2.65590022E+00  2.06094213E+00
  2.06094213E+00  2.65590022E+00 -2.24932427E+00 -2.24932427E+00 -2.24932427E+00
 -2.24932427E+00 -2.24932427E+00 -2.24932427E+00 -2.24932427E+00 -2.24932427E+00
 -2.24932427E+00 -2.24932427E+00 -2.24932427E+00 -2.24932427E+00 -2.96680911E+00
  2.69006704E+00 -2.96680911E+00  2.69006704E+00  2.69006704E+00 -2.96680911E+00
  2.69006704E+00 -2.96680911E+00 -2.96680911E+00  2.69006704E+00 -2.96680911E+00
  2.69006704E+00 -2.96680911E+00  2.69006704E+00 -2.96680911E+00  2.69006704E+00
 -2.96680911E+00  2.69006704E+00 -2.96680911E+00  2.69006704E+00 -2.96680911E+00
  2.69006704E+00 -2.96680911E+00  2.69006704E+00  1.91971931E+00  2.64678908E+00
  2.64678908E+00  1.91971931E+00  2.64678908E+00  2.64678908E+00  2.64678908E+00
  1.91971931E+00  2.64678908E+00  1.91971931E+00  2.64678908E+00  2.64678908E+00
  1.91971931E+00  2.64678908E+00  2.64678908E+00  1.91971931E+00  2.64678908E+00
  2.64678908E+00 -5.95686987E+00 -5.95686987E+00 -5.95686987E+00 -5.95686987E+00
 -5.95686987E+00 -5.95686987E+00  2.06276436E+00  2.06276436E+00  2.06276436E+00
  2.06276436E+00  2.06276436E+00  2.06276436E+00  8.03913209E-01  8.03913209E-01
  8.03913209E-01  8.03913209E-01  8.03913209E-01  8.03913209E-01  8.03913209E-01
  8.03913209E-01  8.03913209E-01  8.03913209E-01  8.03913209E-01  8.03913209E-01
  8.03913209E-01  8.03913209E-01  8.03913209E-01  8.03913209E-01  8.03913209E-01
  8.03913209E-01 -5.95686987E+00  1.91971931E+00  2.06276436E+00 -2.96680911E+00
 -2.96680911E+00  8.03913209E-01  8.03913209E-01  8.03913209E-01 -2.24932427E+00
  2.64678908E+00 -2.24932427E+00  2.64678908E+00  2.06094213E+00  2.69006704E+00
  2.69006704E+00 -7.92305604E+00  2.76705626E+00  2.06094213E+00 -2.40989918E+00
 -2.95201260E+00 -2.24932427E+00 -2.24932427E+00 -9.84915315E-01  2.86545667E+00
 -1.59900683E+00  2.65590022E+00 -2.96680911E+00  2.69006704E+00 -2.96680911E+00
  2.69006704E+00 -1.02044880E+00  2.46365496E+00  2.51012183E+00  1.91971931E+00
  2.64678908E+00  2.64678908E+00 -1.02044880E+00 -9.84915315E-01 -9.84915315E-01
 -9.84915315E-01 -5.95686987E+00 -1.59900683E+00 -2.40989918E+00 -2.40989918E+00
 -1.02044880E+00 -2.40989918E+00 -1.02044880E+00  2.06276436E+00 -2.95201260E+00
  2.51012183E+00  2.76705626E+00  2.86545667E+00  2.76705626E+00  2.86545667E+00
 -1.59900683E+00  2.86545667E+00  2.76705626E+00 -1.59900683E+00  8.03913209E-01
  8.03913209E-01  8.03913209E-01  2.65590022E+00 -7.92305604E+00 -7.92305604E+00
 -2.95201260E+00  2.51012183E+00 -7.92305604E+00 -2.95201260E+00  2.51012183E+00
  2.06094213E+00  2.06094213E+00  2.06094213E+00  2.06094213E+00  2.65590022E+00
  2.06094213E+00  2.06094213E+00  2.65590022E+00 -2.24932427E+00 -2.24932427E+00
 -2.24932427E+00 -2.24932427E+00 -2.24932427E+00 -2.24932427E+00 -2.24932427E+00
 -2.24932427E+00 -2.24932427E+00 -2.24932427E+00 -2.24932427E+00 -2.24932427E+00
 -2.96680911E+00  2.69006704E+00 -2.96680911E+00  2.69006704E+00  2.69006704E+00
 -2.96680911E+00  2.69006704E+00 -2.96680911E+00 -2.96680911E+00  2.69006704E+00
 -2.96680911E+00  2.69006704E+00 -2.96680911E+00  2.69006704E+00 -2.96680911E+00
  2.69006704E+00 -2.96680911E+00  2.69006704E+00 -2.96680911E+00  2.69006704E+00
 -2.96680911E+00  2.69006704E+00 -2.96680911E+00  2.69006704E+00  1.91971931E+00
  2.64678908E+00  2.64678908E+00  1.91971931E+00  2.64678908E+00  2.64678908E+00
  2.64678908E+00  1.91971931E+00  2.64678908E+00  1.91971931E+00  2.64678908E+00
  2.64678908E+00  1.91971931E+00  2.64678908E+00  2.64678908E+00  1.91971931E+00
  2.64678908E+00  2.64678908E+00 -5.95686987E+00 -5.95686987E+00 -5.95686987E+00
 -5.95686987E+00 -5.95686987E+00 -5.95686987E+00  2.06276436E+00  2.06276436E+00
  2.06276436E+00  2.06276436E+00  2.06276436E+00  2.06276436E+00  8.03913209E-01
  8.03913209E-01  8.03913209E-01  8.03913209E-01  8.03913209E-01  8.03913209E-01
  8.03913209E-01  8.03913209E-01  8.03913209E-01  8.03913209E-01  8.03913209E-01
  8.03913209E-01  8.03913209E-01  8.03913209E-01  8.03913209E-01  8.03913209E-01
  8.03913209E-01  8.03913209E-01 -5.95686987E+00  1.91971931E+00  2.06276436E+00
 -2.96680911E+00 -2.96680911E+00  8.03913209E-01  8.03913209E-01  8.03913209E-01
 -2.24932427E+00  2.64678908E+00 -2.24932427E+00  2.64678908E+00  2.06094213E+00
  2.69006704E+00  2.69006704E+00 -7.92305604E+00  2.76705626E+00  2.06094213E+00
 -2.40989918E+00 -2.95201260E+00 -2.24932427E+00 -2.24932427E+00 -9.84915315E-01
  2.86545667E+00 -1.59900683E+00  2.65590022E+00 -2.96680911E+00  2.69006704E+00
 -2.96680911E+00  2.69006704E+00 -1.02044880E+00  2.46365496E+00  2.51012183E+00
  1.91971931E+00  2.64678908E+00  2.64678908E+00 -1.02044880E+00 -9.84915315E-01
 -9.84915315E-01 -9.84915315E-01 -5.95686987E+00 -1.59900683E+00 -2.40989918E+00
 -2.40989918E+00 -1.02044880E+00 -2.40989918E+00 -1.02044880E+00  2.06276436E+00
 -2.95201260E+00  2.51012183E+00  2.76705626E+00  2.86545667E+00  2.76705626E+00
  2.86545667E+00 -1.59900683E+00  2.86545667E+00  2.76705626E+00 -1.59900683E+00
  8.03913209E-01  8.03913209E-01  8.03913209E-01  2.65590022E+00 -7.92305604E+00
 -7.92305604E+00 -2.95201260E+00  2.51012183E+00 -7.92305604E+00 -2.95201260E+00
  2.51012183E+00  2.06094213E+00  2.06094213E+00  2.06094213E+00  2.06094213E+00
  2.65590022E+00  2.06094213E+00  2.06094213E+00  2.65590022E+00 -2.24932427E+00
 -2.24932427E+00 -2.24932427E+00 -2.24932427E+00 -2.24932427E+00 -2.24932427E+00
 -2.24932427E+00 -2.24932427E+00 -2.24932427E+00 -2.24932427E+00 -2.24932427E+00
 -2.24932427E+00 -2.96680911E+00  2.69006704E+00 -2.96680911E+00  2.69006704E+00
  2.69006704E+00 -2.96680911E+00  2.69006704E+00 -2.96680911E+00 -2.96680911E+00
  2.69006704E+00 -2.96680911E+00  2.69006704E+00 -2.96680911E+00  2.69006704E+00
 -2.96680911E+00  2.69006704E+00 -2.96680911E+00  2.69006704E+00 -2.96680911E+00
  2.69006704E+00 -2.96680911E+00  2.69006704E+00 -2.96680911E+00  2.69006704E+00
  1.91971931E+00  2.64678908E+00  2.64678908E+00  1.91971931E+00  2.64678908E+00
  2.64678908E+00  2.64678908E+00  1.91971931E+00  2.64678908E+00  1.91971931E+00
  2.64678908E+00  2.64678908E+00  1.91971931E+00  2.64678908E+00  2.64678908E+00
  1.91971931E+00  2.64678908E+00  2.64678908E+00 -5.95686987E+00 -5.95686987E+00
 -5.95686987E+00 -5.95686987E+00 -5.95686987E+00 -5.95686987E+00  2.06276436E+00
  2.06276436E+00  2.06276436E+00  2.06276436E+00  2.06276436E+00  2.06276436E+00
  8.03913209E-01  8.03913209E-01  8.03913209E-01  8.03913209E-01  8.03913209E-01
  8.03913209E-01  8.03913209E-01  8.03913209E-01  8.03913209E-01  8.03913209E-01
  8.03913209E-01  8.03913209E-01  8.03913209E-01  8.03913209E-01  8.03913209E-01
  8.03913209E-01  8.03913209E-01  8.03913209E-01 -5.95686987E+00  1.91971931E+00
  2.06276436E+00 -2.96680911E+00 -2.96680911E+00  8.03913209E-01  8.03913209E-01
  8.03913209E-01 -2.24932427E+00  2.64678908E+00 -2.24932427E+00  2.64678908E+00
  2.06094213E+00  2.69006704E+00  2.69006704E+00 -7.92305604E+00  2.76705626E+00
  2.06094213E+00 -2.40989918E+00 -2.95201260E+00 -2.24932427E+00 -2.24932427E+00
 -9.84915315E-01  2.86545667E+00 -1.59900683E+00  2.65590022E+00 -2.96680911E+00
  2.69006704E+00 -2.96680911E+00  2.69006704E+00 -1.02044880E+00  2.46365496E+00
  2.51012183E+00  1.91971931E+00  2.64678908E+00  2.64678908E+00 -1.02044880E+00
 -9.84915315E-01 -9.84915315E-01 -9.84915315E-01 -5.95686987E+00 -1.59900683E+00
 -2.40989918E+00 -2.40989918E+00 -1.02044880E+00 -2.40989918E+00 -1.02044880E+00
  2.06276436E+00 -2.95201260E+00  2.51012183E+00  2.76705626E+00  2.86545667E+00
  2.76705626E+00  2.86545667E+00 -1.59900683E+00  2.86545667E+00  2.76705626E+00
 -1.59900683E+00  8.03913209E-01  8.03913209E-01  8.03913209E-01  2.65590022E+00
 -7.92305604E+00 -7.92305604E+00 -2.95201260E+00  2.51012183E+00 -7.92305604E+00
 -2.95201260E+00  2.51012183E+00  2.06094213E+00  2.06094213E+00  2.06094213E+00
  2.06094213E+00  2.65590022E+00  2.06094213E+00  2.06094213E+00  2.65590022E+00
 -2.24932427E+00 -2.24932427E+00 -2.24932427E+00 -2.24932427E+00 -2.24932427E+00
 -2.24932427E+00 -2.24932427E+00 -2.24932427E+00 -2.24932427E+00 -2.24932427E+00
 -2.24932427E+00 -2.24932427E+00 -2.96680911E+00  2.69006704E+00 -2.96680911E+00
  2.69006704E+00  2.69006704E+00 -2.96680911E+00  2.69006704E+00 -2.96680911E+00
 -2.96680911E+00  2.69006704E+00 -2.96680911E+00  2.69006704E+00 -2.96680911E+00
  2.69006704E+00 -2.96680911E+00  2.69006704E+00 -2.96680911E+00  2.69006704E+00
 -2.96680911E+00  2.69006704E+00 -2.96680911E+00  2.69006704E+00 -2.96680911E+00
  2.69006704E+00  1.91971931E+00  2.64678908E+00  2.64678908E+00  1.91971931E+00
  2.64678908E+00  2.64678908E+00  2.64678908E+00  1.91971931E+00  2.64678908E+00
  1.91971931E+00  2.64678908E+00  2.64678908E+00  1.91971931E+00  2.64678908E+00
  2.64678908E+00  1.91971931E+00  2.64678908E+00  2.64678908E+00 -5.95686987E+00
 -5.95686987E+00 -5.95686987E+00 -5.95686987E+00 -5.95686987E+00 -5.95686987E+00
  2.06276436E+00  2.06276436E+00  2.06276436E+00  2.06276436E+00  2.06276436E+00
  2.06276436E+00  8.03913209E-01  8.03913209E-01  8.03913209E-01  8.03913209E-01
  8.03913209E-01  8.03913209E-01  8.03913209E-01  8.03913209E-01  8.03913209E-01
  8.03913209E-01  8.03913209E-01  8.03913209E-01  8.03913209E-01  8.03913209E-01
  8.03913209E-01  8.03913209E-01  8.03913209E-01  8.03913209E-01 -5.95686987E+00
  1.91971931E+00  2.06276436E+00 -2.96680911E+00 -2.96680911E+00  8.03913209E-01
  8.03913209E-01  8.03913209E-01 -2.24932427E+00  2.64678908E+00 -2.24932427E+00
  2.64678908E+00  2.06094213E+00  2.69006704E+00  2.69006704E+00 -7.92305604E+00
  2.76705626E+00  2.06094213E+00 -2.40989918E+00 -2.95201260E+00 -2.24932427E+00
 -2.24932427E+00 -9.84915315E-01  2.86545667E+00 -1.59900683E+00  2.65590022E+00
 -2.96680911E+00  2.69006704E+00 -2.96680911E+00  2.69006704E+00 -1.02044880E+00
  2.46365496E+00  2.51012183E+00  1.91971931E+00  2.64678908E+00  2.64678908E+00
 -1.02044880E+00 -9.84915315E-01 -9.84915315E-01 -9.84915315E-01 -5.95686987E+00
 -1.59900683E+00 -2.40989918E+00 -2.40989918E+00 -1.02044880E+00 -2.40989918E+00
 -1.02044880E+00  2.06276436E+00 -2.95201260E+00  2.51012183E+00  2.76705626E+00
  2.86545667E+00  2.76705626E+00  2.86545667E+00 -1.59900683E+00  2.86545667E+00
  2.76705626E+00 -1.59900683E+00  8.03913209E-01  8.03913209E-01  8.03913209E-01
  2.65590022E+00 -7.92305604E+00 -7.92305604E+00 -2.95201260E+00  2.51012183E+00
 -7.92305604E+00 -2.95201260E+00  2.51012183E+00  2.06094213E+00  2.06094213E+00
  2.06094213E+00  2.06094213E+00  2.65590022E+00  2.06094213E+00  2.06094213E+00
  2.65590022E+00 -2.24932427E+00 -2.24932427E+00 -2.24932427E+00 -2.24932427E+00
 -2.24932427E+00 -2.24932427E+00 -2.24932427E+00 -2.24932427E+00 -2.24932427E+00
 -2.24932427E+00 -2.24932427E+00 -2.24932427E+00 -2.96680911E+00  2.69006704E+00
 -2.96680911E+00  2.69006704E+00  2.69006704E+00 -2.96680911E+00  2.69006704E+00
 -2.96680911E+00 -2.96680911E+00  2.69006704E+00 -2.96680911E+00  2.69006704E+00
 -2.96680911E+00  2.69006704E+00 -2.96680911E+00  2.69006704E+00 -2.96680911E+00
  2.69006704E+00 -2.96680911E+00  2.69006704E+00 -2.96680911E+00  2.69006704E+00
 -2.96680911E+00  2.69006704E+00  1.91971931E+00  2.64678908E+00  2.64678908E+00
  1.91971931E+00  2.64678908E+00  2.64678908E+00  2.64678908E+00  1.91971931E+00
  2.64678908E+00  1.91971931E+00  2.64678908E+00  2.64678908E+00  1.91971931E+00
  2.64678908E+00  2.64678908E+00  1.91971931E+00  2.64678908E+00  2.64678908E+00
 -5.95686987E+00 -5.95686987E+00 -5.95686987E+00 -5.95686987E+00 -5.95686987E+00
 -5.95686987E+00  2.06276436E+00  2.06276436E+00  2.06276436E+00  2.06276436E+00
  2.06276436E+00  2.06276436E+00  8.03913209E-01  8.03913209E-01  8.03913209E-01
  8.03913209E-01  8.03913209E-01  8.03913209E-01  8.03913209E-01  8.03913209E-01
  8.03913209E-01  8.03913209E-01  8.03913209E-01  8.03913209E-01  8.03913209E-01
  8.03913209E-01  8.03913209E-01  8.03913209E-01  8.03913209E-01  8.03913209E-01
 -5.95686987E+00  1.91971931E+00  2.06276436E+00 -2.96680911E+00 -2.96680911E+00
  8.03913209E-01  8.03913209E-01  8.03913209E-01 -2.24932427E+00  2.64678908E+00
 -2.24932427E+00  2.64678908E+00  2.06094213E+00  2.69006704E+00  2.69006704E+00
 -7.92305604E+00  2.76705626E+00  2.06094213E+00 -2.40989918E+00 -2.95201260E+00
 -2.24932427E+00 -2.24932427E+00 -9.84915315E-01  2.86545667E+00 -1.59900683E+00
  2.65590022E+00 -2.96680911E+00  2.69006704E+00 -2.96680911E+00  2.69006704E+00
 -1.02044880E+00  2.46365496E+00  2.51012183E+00  1.91971931E+00  2.64678908E+00
  2.64678908E+00 -1.02044880E+00 -9.84915315E-01 -9.84915315E-01 -9.84915315E-01
 -5.95686987E+00 -1.59900683E+00 -2.40989918E+00 -2.40989918E+00 -1.02044880E+00
 -2.40989918E+00 -1.02044880E+00  2.06276436E+00 -2.95201260E+00  2.51012183E+00
  2.76705626E+00  2.86545667E+00  2.76705626E+00  2.86545667E+00 -1.59900683E+00
  2.86545667E+00  2.76705626E+00 -1.59900683E+00  8.03913209E-01  8.03913209E-01
  8.03913209E-01  2.65590022E+00 -7.92305604E+00 -7.92305604E+00 -2.95201260E+00
  2.51012183E+00 -7.92305604E+00 -2.95201260E+00  2.51012183E+00  2.06094213E+00
  2.06094213E+00  2.06094213E+00  2.06094213E+00  2.65590022E+00  2.06094213E+00
  2.06094213E+00  2.65590022E+00 -2.24932427E+00 -2.24932427E+00 -2.24932427E+00
 -2.24932427E+00 -2.24932427E+00 -2.24932427E+00 -2.24932427E+00 -2.24932427E+00
 -2.24932427E+00 -2.24932427E+00 -2.24932427E+00 -2.24932427E+00 -2.96680911E+00
  2.69006704E+00 -2.96680911E+00  2.69006704E+00  2.69006704E+00 -2.96680911E+00
  2.69006704E+00 -2.96680911E+00 -2.96680911E+00  2.69006704E+00 -2.96680911E+00
  2.69006704E+00 -2.96680911E+00  2.69006704E+00 -2.96680911E+00  2.69006704E+00
 -2.96680911E+00  2.69006704E+00 -2.96680911E+00  2.69006704E+00 -2.96680911E+00
  2.69006704E+00 -2.96680911E+00  2.69006704E+00  1.91971931E+00  2.64678908E+00
  2.64678908E+00  1.91971931E+00  2.64678908E+00  2.64678908E+00  2.64678908E+00
  1.91971931E+00  2.64678908E+00  1.91971931E+00  2.64678908E+00  2.64678908E+00
  1.91971931E+00  2.64678908E+00  2.64678908E+00  1.91971931E+00  2.64678908E+00
  2.64678908E+00 -5.95686987E+00 -5.95686987E+00 -5.95686987E+00 -5.95686987E+00
 -5.95686987E+00 -5.95686987E+00  2.06276436E+00  2.06276436E+00  2.06276436E+00
  2.06276436E+00  2.06276436E+00  2.06276436E+00  8.03913209E-01  8.03913209E-01
  8.03913209E-01  8.03913209E-01  8.03913209E-01  8.03913209E-01  8.03913209E-01
  8.03913209E-01  8.03913209E-01  8.03913209E-01  8.03913209E-01  8.03913209E-01
  8.03913209E-01  8.03913209E-01  8.03913209E-01  8.03913209E-01  8.03913209E-01
  8.03913209E-01 -5.95686987E+00  1.91971931E+00  2.06276436E+00 -2.96680911E+00
 -2.96680911E+00  8.03913209E-01  8.03913209E-01  8.03913209E-01 -2.24932427E+00
  2.64678908E+00 -2.24932427E+00  2.64678908E+00  2.06094213E+00  2.69006704E+00
  2.69006704E+00 -7.92305604E+00  2.76705626E+00  2.06094213E+00 -2.40989918E+00
 -2.95201260E+00 -2.24932427E+00 -2.24932427E+00 -9.84915315E-01  2.86545667E+00
 -1.59900683E+00  2.65590022E+00 -2.96680911E+00  2.69006704E+00 -2.96680911E+00
  2.69006704E+00 -1.02044880E+00  2.46365496E+00  2.51012183E+00  1.91971931E+00
  2.64678908E+00  2.64678908E+00 -1.02044880E+00 -9.84915315E-01 -9.84915315E-01
 -9.84915315E-01 -5.95686987E+00 -1.59900683E+00 -2.40989918E+00 -2.40989918E+00
 -1.02044880E+00 -2.40989918E+00 -1.02044880E+00  2.06276436E+00 -2.95201260E+00
  2.51012183E+00  2.76705626E+00  2.86545667E+00  2.76705626E+00  2.86545667E+00
 -1.59900683E+00  2.86545667E+00  2.76705626E+00 -1.59900683E+00  8.03913209E-01
  8.03913209E-01  8.03913209E-01  2.65590022E+00 -7.92305604E+00 -7.92305604E+00
 -2.95201260E+00  2.51012183E+00 -7.92305604E+00 -2.95201260E+00  2.51012183E+00
  2.06094213E+00  2.06094213E+00  2.06094213E+00  2.06094213E+00  2.65590022E+00
  2.06094213E+00  2.06094213E+00  2.65590022E+00 -2.24932427E+00 -2.24932427E+00
 -2.24932427E+00 -2.24932427E+00 -2.24932427E+00 -2.24932427E+00 -2.24932427E+00
 -2.24932427E+00 -2.24932427E+00 -2.24932427E+00 -2.24932427E+00 -2.24932427E+00
 -2.96680911E+00  2.69006704E+00 -2.96680911E+00  2.69006704E+00  2.69006704E+00
 -2.96680911E+00  2.69006704E+00 -2.96680911E+00 -2.96680911E+00  2.69006704E+00
 -2.96680911E+00  2.69006704E+00 -2.96680911E+00  2.69006704E+00 -2.96680911E+00
  2.69006704E+00 -2.96680911E+00  2.69006704E+00 -2.96680911E+00  2.69006704E+00
 -2.96680911E+00  2.69006704E+00 -2.96680911E+00  2.69006704E+00  1.91971931E+00
  2.64678908E+00  2.64678908E+00  1.91971931E+00  2.64678908E+00  2.64678908E+00
  2.64678908E+00  1.91971931E+00  2.64678908E+00  1.91971931E+00  2.64678908E+00
  2.64678908E+00  1.91971931E+00  2.64678908E+00  2.64678908E+00  1.91971931E+00
  2.64678908E+00  2.64678908E+00 -5.95686987E+00 -5.95686987E+00 -5.95686987E+00
 -5.95686987E+00 -5.95686987E+00 -5.95686987E+00  2.06276436E+00  2.06276436E+00
  2.06276436E+00  2.06276436E+00  2.06276436E+00  2.06276436E+00  8.03913209E-01
  8.03913209E-01  8.03913209E-01  8.03913209E-01  8.03913209E-01  8.03913209E-01
  8.03913209E-01  8.03913209E-01  8.03913209E-01  8.03913209E-01  8.03913209E-01
  8.03913209E-01  8.03913209E-01  8.03913209E-01  8.03913209E-01  8.03913209E-01
  8.03913209E-01  8.03913209E-01 -5.95686987E+00  1.91971931E+00  2.06276436E+00
 -2.96680911E+00 -2.96680911E+00  8.03913209E-01  8.03913209E-01  8.03913209E-01
 -2.24932427E+00  2.64678908E+00 -2.24932427E+00  2.64678908E+00  2.06094213E+00
  2.69006704E+00  2.69006704E+00 -7.92305604E+00  2.76705626E+00  2.06094213E+00
 -2.40989918E+00 -2.95201260E+00 -2.24932427E+00 -2.24932427E+00 -9.84915315E-01
  2.86545667E+00 -1.59900683E+00  2.65590022E+00 -2.96680911E+00  2.69006704E+00
 -2.96680911E+00  2.69006704E+00 -1.02044880E+00  2.46365496E+00  2.51012183E+00
  1.91971931E+00  2.64678908E+00  2.64678908E+00 -1.02044880E+00 -9.84915315E-01
 -9.84915315E-01 -9.84915315E-01 -5.95686987E+00 -1.59900683E+00 -2.40989918E+00
 -2.40989918E+00 -1.02044880E+00 -2.40989918E+00 -1.02044880E+00  2.06276436E+00
 -2.95201260E+00  2.51012183E+00  2.76705626E+00  2.86545667E+00  2.76705626E+00
  2.86545667E+00 -1.59900683E+00  2.86545667E+00  2.76705626E+00 -1.59900683E+00
  8.03913209E-01  8.03913209E-01  8.03913209E-01  2.65590022E+00 -7.92305604E+00
 -7.92305604E+00 -2.95201260E+00  2.51012183E+00 -7.92305604E+00 -2.95201260E+00
  2.51012183E+00  2.06094213E+00  2.06094213E+00  2.06094213E+00  2.06094213E+00
  2.65590022E+00  2.06094213E+00  2.06094213E+00  2.65590022E+00 -2.24932427E+00
 -2.24932427E+00 -2.24932427E+00 -2.24932427E+00 -2.24932427E+00 -2.24932427E+00
 -2.24932427E+00 -2.24932427E+00 -2.24932427E+00 -2.24932427E+00 -2.24932427E+00
 -2.24932427E+00 -2.96680911E+00  2.69006704E+00 -2.96680911E+00  2.69006704E+00
  2.69006704E+00 -2.96680911E+00  2.69006704E+00 -2.96680911E+00 -2.96680911E+00
  2.69006704E+00 -2.96680911E+00  2.69006704E+00 -2.96680911E+00  2.69006704E+00
 -2.96680911E+00  2.69006704E+00 -2.96680911E+00  2.69006704E+00 -2.96680911E+00
  2.69006704E+00 -2.96680911E+00  2.69006704E+00 -2.96680911E+00  2.69006704E+00
  1.91971931E+00  2.64678908E+00  2.64678908E+00  1.91971931E+00  2.64678908E+00
  2.64678908E+00  2.64678908E+00  1.91971931E+00  2.64678908E+00  1.91971931E+00
  2.64678908E+00  2.64678908E+00  1.91971931E+00  2.64678908E+00  2.64678908E+00
  1.91971931E+00  2.64678908E+00  2.64678908E+00 -5.95686987E+00 -5.95686987E+00
 -5.95686987E+00 -5.95686987E+00 -5.95686987E+00 -5.95686987E+00  2.06276436E+00
  2.06276436E+00  2.06276436E+00  2.06276436E+00  2.06276436E+00  2.06276436E+00
  8.03913209E-01  8.03913209E-01  8.03913209E-01  8.03913209E-01  8.03913209E-01
  8.03913209E-01  8.03913209E-01  8.03913209E-01  8.03913209E-01  8.03913209E-01
  8.03913209E-01  8.03913209E-01  8.03913209E-01  8.03913209E-01  8.03913209E-01
  8.03913209E-01  8.03913209E-01  8.03913209E-01 -5.95686987E+00  1.91971931E+00
  2.06276436E+00 -2.96680911E+00 -2.96680911E+00  8.03913209E-01  8.03913209E-01
  8.03913209E-01 -2.24932427E+00  2.64678908E+00 -2.24932427E+00  2.64678908E+00
  2.06094213E+00  2.69006704E+00  2.69006704E+00 -7.92305604E+00  2.76705626E+00
  2.06094213E+00 -2.40989918E+00 -2.95201260E+00 -2.24932427E+00 -2.24932427E+00
 -9.84915315E-01  2.86545667E+00 -1.59900683E+00  2.65590022E+00 -2.96680911E+00
  2.69006704E+00 -2.96680911E+00  2.69006704E+00 -1.02044880E+00  2.46365496E+00
  2.51012183E+00  1.91971931E+00  2.64678908E+00  2.64678908E+00 -1.02044880E+00
 -9.84915315E-01 -9.84915315E-01 -9.84915315E-01 -5.95686987E+00 -1.59900683E+00
 -2.40989918E+00 -2.40989918E+00 -1.02044880E+00 -2.40989918E+00 -1.02044880E+00
  2.06276436E+00 -2.95201260E+00  2.51012183E+00  2.76705626E+00  2.86545667E+00
  2.76705626E+00  2.86545667E+00 -1.59900683E+00  2.86545667E+00  2.76705626E+00
 -1.59900683E+00  8.03913209E-01  8.03913209E-01  8.03913209E-01  2.65590022E+00
 -7.92305604E+00 -7.92305604E+00 -2.95201260E+00  2.51012183E+00 -7.92305604E+00
 -2.95201260E+00  2.51012183E+00  2.06094213E+00  2.06094213E+00  2.06094213E+00
  2.06094213E+00  2.65590022E+00  2.06094213E+00  2.06094213E+00  2.65590022E+00
 -2.24932427E+00 -2.24932427E+00 -2.24932427E+00 -2.24932427E+00 -2.24932427E+00
 -2.24932427E+00 -2.24932427E+00 -2.24932427E+00 -2.24932427E+00 -2.24932427E+00
 -2.24932427E+00 -2.24932427E+00 -2.96680911E+00  2.69006704E+00 -2.96680911E+00
  2.69006704E+00  2.69006704E+00 -2.96680911E+00  2.69006704E+00 -2.96680911E+00
 -2.96680911E+00  2.69006704E+00 -2.96680911E+00  2.69006704E+00 -2.96680911E+00
  2.69006704E+00 -2.96680911E+00  2.69006704E+00 -2.96680911E+00  2.69006704E+00
 -2.96680911E+00  2.69006704E+00 -2.96680911E+00  2.69006704E+00 -2.96680911E+00
  2.69006704E+00  1.91971931E+00  2.64678908E+00  2.64678908E+00  1.91971931E+00
  2.64678908E+00  2.64678908E+00  2.64678908E+00  1.91971931E+00  2.64678908E+00
  1.91971931E+00  2.64678908E+00  2.64678908E+00  1.91971931E+00  2.64678908E+00
  2.64678908E+00  1.91971931E+00  2.64678908E+00  2.64678908E+00 -5.95686987E+00
 -5.95686987E+00 -5.95686987E+00 -5.95686987E+00 -5.95686987E+00 -5.95686987E+00
  2.06276436E+00  2.06276436E+00  2.06276436E+00  2.06276436E+00  2.06276436E+00
  2.06276436E+00  8.03913209E-01  8.03913209E-01  8.03913209E-01  8.03913209E-01
  8.03913209E-01  8.03913209E-01  8.03913209E-01  8.03913209E-01  8.03913209E-01
  8.03913209E-01  8.03913209E-01  8.03913209E-01  8.03913209E-01  8.03913209E-01
  8.03913209E-01  8.03913209E-01  8.03913209E-01  8.03913209E-01 -5.95686987E+00
  1.91971931E+00  2.06276436E+00 -2.96680911E+00 -2.96680911E+00  8.03913209E-01
  8.03913209E-01  8.03913209E-01 -2.24932427E+00  2.64678908E+00 -2.24932427E+00
  2.64678908E+00  2.06094213E+00  2.69006704E+00  2.69006704E+00 -7.92305604E+00
  2.76705626E+00  2.06094213E+00 -2.40989918E+00 -2.95201260E+00 -2.24932427E+00
 -2.24932427E+00 -9.84915315E-01  2.86545667E+00 -1.59900683E+00  2.65590022E+00
 -2.96680911E+00  2.69006704E+00 -2.96680911E+00  2.69006704E+00 -1.02044880E+00
  2.46365496E+00  2.51012183E+00  1.91971931E+00  2.64678908E+00  2.64678908E+00
 -1.02044880E+00 -9.84915315E-01 -9.84915315E-01 -9.84915315E-01 -5.95686987E+00
 -1.59900683E+00 -2.40989918E+00 -2.40989918E+00 -1.02044880E+00 -2.40989918E+00
 -1.02044880E+00  2.06276436E+00 -2.95201260E+00  2.51012183E+00  2.76705626E+00
  2.86545667E+00  2.76705626E+00  2.86545667E+00 -1.59900683E+00  2.86545667E+00
  2.76705626E+00 -1.59900683E+00  8.03913209E-01  8.03913209E-01  8.03913209E-01
  2.65590022E+00 -7.92305604E+00 -7.92305604E+00 -2.95201260E+00  2.51012183E+00
 -7.92305604E+00 -2.95201260E+00  2.51012183E+00  2.06094213E+00  2.06094213E+00
  2.06094213E+00  2.06094213E+00  2.65590022E+00  2.06094213E+00  2.06094213E+00
  2.65590022E+00 -2.24932427E+00 -2.24932427E+00 -2.24932427E+00 -2.24932427E+00
 -2.24932427E+00 -2.24932427E+00 -2.24932427E+00 -2.24932427E+00 -2.24932427E+00
 -2.24932427E+00 -2.24932427E+00 -2.24932427E+00 -2.96680911E+00  2.69006704E+00
 -2.96680911E+00  2.69006704E+00  2.69006704E+00 -2.96680911E+00  2.69006704E+00
 -2.96680911E+00 -2.96680911E+00  2.69006704E+00 -2.96680911E+00  2.69006704E+00
 -2.96680911E+00  2.69006704E+00 -2.96680911E+00  2.69006704E+00 -2.96680911E+00
  2.69006704E+00 -2.96680911E+00  2.69006704E+00 -2.96680911E+00  2.69006704E+00
 -2.96680911E+00  2.69006704E+00  1.91971931E+00  2.64678908E+00  2.64678908E+00
  1.91971931E+00  2.64678908E+00  2.64678908E+00  2.64678908E+00  1.91971931E+00
  2.64678908E+00  1.91971931E+00  2.64678908E+00  2.64678908E+00  1.91971931E+00
  2.64678908E+00  2.64678908E+00  1.91971931E+00  2.64678908E+00  2.64678908E+00
 -5.95686987E+00 -5.95686987E+00 -5.95686987E+00 -5.95686987E+00 -5.95686987E+00
 -5.95686987E+00  2.06276436E+00  2.06276436E+00  2.06276436E+00  2.06276436E+00
  2.06276436E+00  2.06276436E+00  8.03913209E-01  8.03913209E-01  8.03913209E-01
  8.03913209E-01  8.03913209E-01  8.03913209E-01  8.03913209E-01  8.03913209E-01
  8.03913209E-01  8.03913209E-01  8.03913209E-01  8.03913209E-01  8.03913209E-01
  8.03913209E-01  8.03913209E-01  8.03913209E-01  8.03913209E-01  8.03913209E-01
 -5.95686987E+00  1.91971931E+00  2.06276436E+00 -2.96680911E+00 -2.96680911E+00
  8.03913209E-01  8.03913209E-01  8.03913209E-01 -2.24932427E+00  2.64678908E+00
 -2.24932427E+00  2.64678908E+00  2.06094213E+00  2.69006704E+00  2.69006704E+00
 -7.92305604E+00  2.76705626E+00  2.06094213E+00 -2.40989918E+00 -2.95201260E+00
 -2.24932427E+00 -2.24932427E+00 -9.84915315E-01  2.86545667E+00 -1.59900683E+00
  2.65590022E+00 -2.96680911E+00  2.69006704E+00 -2.96680911E+00  2.69006704E+00
 -1.02044880E+00  2.46365496E+00  2.51012183E+00  1.91971931E+00  2.64678908E+00
  2.64678908E+00 -1.02044880E+00 -9.84915315E-01 -9.84915315E-01 -9.84915315E-01
 -5.95686987E+00 -1.59900683E+00 -2.40989918E+00 -2.40989918E+00 -1.02044880E+00
 -2.40989918E+00 -1.02044880E+00  2.06276436E+00 -2.95201260E+00  2.51012183E+00
  2.76705626E+00  2.86545667E+00  2.76705626E+00  2.86545667E+00 -1.59900683E+00
  2.86545667E+00  2.76705626E+00 -1.59900683E+00  8.03913209E-01  8.03913209E-01
  8.03913209E-01  2.65590022E+00 -7.92305604E+00 -7.92305604E+00 -2.95201260E+00
  2.51012183E+00 -7.92305604E+00 -2.95201260E+00  2.51012183E+00  2.06094213E+00
  2.06094213E+00  2.06094213E+00  2.06094213E+00  2.65590022E+00  2.06094213E+00
  2.06094213E+00  2.65590022E+00 -2.24932427E+00 -2.24932427E+00 -2.24932427E+00
 -2.24932427E+00 -2.24932427E+00 -2.24932427E+00 -2.24932427E+00 -2.24932427E+00
 -2.24932427E+00 -2.24932427E+00 -2.24932427E+00 -2.24932427E+00 -2.96680911E+00
  2.69006704E+00 -2.96680911E+00  2.69006704E+00  2.69006704E+00 -2.96680911E+00
  2.69006704E+00 -2.96680911E+00 -2.96680911E+00  2.69006704E+00 -2.96680911E+00
  2.69006704E+00 -2.96680911E+00  2.69006704E+00 -2.96680911E+00  2.69006704E+00
 -2.96680911E+00  2.69006704E+00 -2.96680911E+00  2.69006704E+00 -2.96680911E+00
  2.69006704E+00 -2.96680911E+00  2.69006704E+00  1.91971931E+00  2.64678908E+00
  2.64678908E+00  1.91971931E+00  2.64678908E+00  2.64678908E+00  2.64678908E+00
  1.91971931E+00  2.64678908E+00  1.91971931E+00  2.64678908E+00  2.64678908E+00
  1.91971931E+00  2.64678908E+00  2.64678908E+00  1.91971931E+00  2.64678908E+00
  2.64678908E+00 -5.95686987E+00 -5.95686987E+00 -5.95686987E+00 -5.95686987E+00
 -5.95686987E+00 -5.95686987E+00  2.06276436E+00  2.06276436E+00  2.06276436E+00
  2.06276436E+00  2.06276436E+00  2.06276436E+00  8.03913209E-01  8.03913209E-01
  8.03913209E-01  8.03913209E-01  8.03913209E-01  8.03913209E-01  8.03913209E-01
  8.03913209E-01  8.03913209E-01  8.03913209E-01  8.03913209E-01  8.03913209E-01
  8.03913209E-01  8.03913209E-01  8.03913209E-01  8.03913209E-01  8.03913209E-01
  8.03913209E-01 -5.95686987E+00  1.91971931E+00  2.06276436E+00 -2.96680911E+00
 -2.96680911E+00  8.03913209E-01  8.03913209E-01  8.03913209E-01 -2.24932427E+00
  2.64678908E+00 -2.24932427E+00  2.64678908E+00  2.06094213E+00  2.69006704E+00
  2.69006704E+00 -7.92305604E+00  2.76705626E+00  2.06094213E+00 -2.40989918E+00
 -2.95201260E+00 -2.24932427E+00 -2.24932427E+00 -9.84915315E-01  2.86545667E+00
 -1.59900683E+00  2.65590022E+00 -2.96680911E+00  2.69006704E+00 -2.96680911E+00
  2.69006704E+00 -1.02044880E+00  2.46365496E+00  2.51012183E+00  1.91971931E+00
  2.64678908E+00  2.64678908E+00 -1.02044880E+00 -9.84915315E-01 -9.84915315E-01
 -9.84915315E-01 -5.95686987E+00 -1.59900683E+00 -2.40989918E+00 -2.40989918E+00
 -1.02044880E+00 -2.40989918E+00 -1.02044880E+00  2.06276436E+00 -2.95201260E+00
  2.51012183E+00  2.76705626E+00  2.86545667E+00  2.76705626E+00  2.86545667E+00
 -1.59900683E+00  2.86545667E+00  2.76705626E+00 -1.59900683E+00  8.03913209E-01
  8.03913209E-01  8.03913209E-01  2.65590022E+00 -7.92305604E+00 -7.92305604E+00
 -2.95201260E+00  2.51012183E+00 -7.92305604E+00 -2.95201260E+00  2.51012183E+00
  2.06094213E+00  2.06094213E+00  2.06094213E+00  2.06094213E+00  2.65590022E+00
  2.06094213E+00  2.06094213E+00  2.65590022E+00 -2.24932427E+00 -2.24932427E+00
 -2.24932427E+00 -2.24932427E+00 -2.24932427E+00 -2.24932427E+00 -2.24932427E+00
 -2.24932427E+00 -2.24932427E+00 -2.24932427E+00 -2.24932427E+00 -2.24932427E+00
 -2.96680911E+00  2.69006704E+00 -2.96680911E+00  2.69006704E+00  2.69006704E+00
 -2.96680911E+00  2.69006704E+00 -2.96680911E+00 -2.96680911E+00  2.69006704E+00
 -2.96680911E+00  2.69006704E+00 -2.96680911E+00  2.69006704E+00 -2.96680911E+00
  2.69006704E+00 -2.96680911E+00  2.69006704E+00 -2.96680911E+00  2.69006704E+00
 -2.96680911E+00  2.69006704E+00 -2.96680911E+00  2.69006704E+00  1.91971931E+00
  2.64678908E+00  2.64678908E+00  1.91971931E+00  2.64678908E+00  2.64678908E+00
  2.64678908E+00  1.91971931E+00  2.64678908E+00  1.91971931E+00  2.64678908E+00
  2.64678908E+00  1.91971931E+00  2.64678908E+00  2.64678908E+00  1.91971931E+00
  2.64678908E+00  2.64678908E+00 -5.95686987E+00 -5.95686987E+00 -5.95686987E+00
 -5.95686987E+00 -5.95686987E+00 -5.95686987E+00  2.06276436E+00  2.06276436E+00
  2.06276436E+00  2.06276436E+00  2.06276436E+00  2.06276436E+00  8.03913209E-01
  8.03913209E-01  8.03913209E-01  8.03913209E-01  8.03913209E-01  8.03913209E-01
  8.03913209E-01  8.03913209E-01  8.03913209E-01  8.03913209E-01  8.03913209E-01
  8.03913209E-01  8.03913209E-01  8.03913209E-01  8.03913209E-01  8.03913209E-01
  8.03913209E-01  8.03913209E-01 -5.95686987E+00  1.91971931E+00  2.06276436E+00
 -2.96680911E+00 -2.96680911E+00  8.03913209E-01  8.03913209E-01  8.03913209E-01
 -2.24932427E+00  2.64678908E+00 -2.24932427E+00  2.64678908E+00  2.06094213E+00
  2.69006704E+00  2.69006704E+00 -7.92305604E+00  2.76705626E+00  2.06094213E+00
 -2.40989918E+00 -2.95201260E+00 -2.24932427E+00 -2.24932427E+00 -9.84915315E-01
  2.86545667E+00 -1.59900683E+00  2.65590022E+00 -2.96680911E+00  2.69006704E+00
 -2.96680911E+00  2.69006704E+00 -1.02044880E+00  2.46365496E+00  2.51012183E+00
  1.91971931E+00  2.64678908E+00  2.64678908E+00 -1.02044880E+00 -9.84915315E-01
 -9.84915315E-01 -9.84915315E-01 -5.95686987E+00 -1.59900683E+00 -2.40989918E+00
 -2.40989918E+00 -1.02044880E+00 -2.40989918E+00 -1.02044880E+00  2.06276436E+00
 -2.95201260E+00  2.51012183E+00  2.76705626E+00  2.86545667E+00  2.76705626E+00
  2.86545667E+00 -1.59900683E+00  2.86545667E+00  2.76705626E+00 -1.59900683E+00
  8.03913209E-01  8.03913209E-01  8.03913209E-01  2.65590022E+00 -7.92305604E+00
 -7.92305604E+00 -2.95201260E+00  2.51012183E+00 -7.92305604E+00 -2.95201260E+00
  2.51012183E+00  2.06094213E+00  2.06094213E+00  2.06094213E+00  2.06094213E+00
  2.65590022E+00  2.06094213E+00  2.06094213E+00  2.65590022E+00 -2.24932427E+00
 -2.24932427E+00 -2.24932427E+00 -2.24932427E+00 -2.24932427E+00 -2.24932427E+00
 -2.24932427E+00 -2.24932427E+00 -2.24932427E+00 -2.24932427E+00 -2.24932427E+00
 -2.24932427E+00 -2.96680911E+00  2.69006704E+00 -2.96680911E+00  2.69006704E+00
  2.69006704E+00 -2.96680911E+00  2.69006704E+00 -2.96680911E+00 -2.96680911E+00
  2.69006704E+00 -2.96680911E+00  2.69006704E+00 -2.96680911E+00  2.69006704E+00
 -2.96680911E+00  2.69006704E+00 -2.96680911E+00  2.69006704E+00 -2.96680911E+00
  2.69006704E+00 -2.96680911E+00  2.69006704E+00 -2.96680911E+00  2.69006704E+00
  1.91971931E+00  2.64678908E+00  2.64678908E+00  1.91971931E+00  2.64678908E+00
  2.64678908E+00  2.64678908E+00  1.91971931E+00  2.64678908E+00  1.91971931E+00
  2.64678908E+00  2.64678908E+00  1.91971931E+00  2.64678908E+00  2.64678908E+00
  1.91971931E+00  2.64678908E+00  2.64678908E+00 -5.95686987E+00 -5.95686987E+00
 -5.95686987E+00 -5.95686987E+00 -5.95686987E+00 -5.95686987E+00  2.06276436E+00
  2.06276436E+00  2.06276436E+00  2.06276436E+00  2.06276436E+00  2.06276436E+00
  8.03913209E-01  8.03913209E-01  8.03913209E-01  8.03913209E-01  8.03913209E-01
  8.03913209E-01  8.03913209E-01  8.03913209E-01  8.03913209E-01  8.03913209E-01
  8.03913209E-01  8.03913209E-01  8.03913209E-01  8.03913209E-01  8.03913209E-01
  8.03913209E-01  8.03913209E-01  8.03913209E-01 -5.95686987E+00  1.91971931E+00
  2.06276436E+00 -2.96680911E+00 -2.96680911E+00  8.03913209E-01  8.03913209E-01
  8.03913209E-01 -2.24932427E+00  2.64678908E+00 -2.24932427E+00  2.64678908E+00
  2.06094213E+00  2.69006704E+00  2.69006704E+00 -7.92305604E+00  2.76705626E+00
  2.06094213E+00 -2.40989918E+00 -2.95201260E+00 -2.24932427E+00 -2.24932427E+00
 -9.84915315E-01  2.86545667E+00 -1.59900683E+00  2.65590022E+00 -2.96680911E+00
  2.69006704E+00 -2.96680911E+00  2.69006704E+00 -1.02044880E+00  2.46365496E+00
  2.51012183E+00  1.91971931E+00  2.64678908E+00  2.64678908E+00 -1.02044880E+00
 -9.84915315E-01 -9.84915315E-01 -9.84915315E-01 -5.95686987E+00 -1.59900683E+00
 -2.40989918E+00 -2.40989918E+00 -1.02044880E+00 -2.40989918E+00 -1.02044880E+00
  2.06276436E+00 -2.95201260E+00  2.51012183E+00  2.76705626E+00  2.86545667E+00
  2.76705626E+00  2.86545667E+00 -1.59900683E+00  2.86545667E+00  2.76705626E+00
 -1.59900683E+00  8.03913209E-01  8.03913209E-01  8.03913209E-01  2.65590022E+00
 -7.92305604E+00 -7.92305604E+00 -2.95201260E+00  2.51012183E+00 -7.92305604E+00
 -2.95201260E+00  2.51012183E+00  2.06094213E+00  2.06094213E+00  2.06094213E+00
  2.06094213E+00  2.65590022E+00  2.06094213E+00  2.06094213E+00  2.65590022E+00
 -2.24932427E+00 -2.24932427E+00 -2.24932427E+00 -2.24932427E+00 -2.24932427E+00
 -2.24932427E+00 -2.24932427E+00 -2.24932427E+00 -2.24932427E+00 -2.24932427E+00
 -2.24932427E+00 -2.24932427E+00 -2.96680911E+00  2.69006704E+00 -2.96680911E+00
  2.69006704E+00  2.69006704E+00 -2.96680911E+00  2.69006704E+00 -2.96680911E+00
 -2.96680911E+00  2.69006704E+00 -2.96680911E+00  2.69006704E+00 -2.96680911E+00
  2.69006704E+00 -2.96680911E+00  2.69006704E+00 -2.96680911E+00  2.69006704E+00
 -2.96680911E+00  2.69006704E+00 -2.96680911E+00  2.69006704E+00 -2.96680911E+00
  2.69006704E+00  1.91971931E+00  2.64678908E+00  2.64678908E+00  1.91971931E+00
  2.64678908E+00  2.64678908E+00  2.64678908E+00  1.91971931E+00  2.64678908E+00
  1.91971931E+00  2.64678908E+00  2.64678908E+00  1.91971931E+00  2.64678908E+00
  2.64678908E+00  1.91971931E+00  2.64678908E+00  2.64678908E+00 -5.95686987E+00
 -5.95686987E+00 -5.95686987E+00 -5.95686987E+00 -5.95686987E+00 -5.95686987E+00
  2.06276436E+00  2.06276436E+00  2.06276436E+00  2.06276436E+00  2.06276436E+00
  2.06276436E+00  8.03913209E-01  8.03913209E-01  8.03913209E-01  8.03913209E-01
  8.03913209E-01  8.03913209E-01  8.03913209E-01  8.03913209E-01  8.03913209E-01
  8.03913209E-01  8.03913209E-01  8.03913209E-01  8.03913209E-01  8.03913209E-01
  8.03913209E-01  8.03913209E-01  8.03913209E-01  8.03913209E-01 -5.95686987E+00
  1.91971931E+00  2.06276436E+00 -2.96680911E+00 -2.96680911E+00  8.03913209E-01
  8.03913209E-01  8.03913209E-01 -2.24932427E+00  2.64678908E+00 -2.24932427E+00
  2.64678908E+00  2.06094213E+00  2.69006704E+00  2.69006704E+00 -7.92305604E+00
  2.76705626E+00  2.06094213E+00 -2.40989918E+00 -2.95201260E+00 -2.24932427E+00
 -2.24932427E+00 -9.84915315E-01  2.86545667E+00 -1.59900683E+00  2.65590022E+00
 -2.96680911E+00  2.69006704E+00 -2.96680911E+00  2.69006704E+00 -1.02044880E+00
  2.46365496E+00  2.51012183E+00  1.91971931E+00  2.64678908E+00  2.64678908E+00
 -1.02044880E+00 -9.84915315E-01 -9.84915315E-01 -9.84915315E-01 -5.95686987E+00
 -1.59900683E+00 -2.40989918E+00 -2.40989918E+00 -1.02044880E+00 -2.40989918E+00
 -1.02044880E+00  2.06276436E+00 -2.95201260E+00  2.51012183E+00  2.76705626E+00
  2.86545667E+00  2.76705626E+00  2.86545667E+00 -1.59900683E+00  2.86545667E+00
  2.76705626E+00 -1.59900683E+00  8.03913209E-01  8.03913209E-01  8.03913209E-01
  2.65590022E+00 -7.92305604E+00 -7.92305604E+00 -2.95201260E+00  2.51012183E+00
 -7.92305604E+00 -2.95201260E+00  2.51012183E+00  2.06094213E+00  2.06094213E+00
  2.06094213E+00  2.06094213E+00  2.65590022E+00  2.06094213E+00  2.06094213E+00
  2.65590022E+00 -2.24932427E+00 -2.24932427E+00 -2.24932427E+00 -2.24932427E+00
 -2.24932427E+00 -2.24932427E+00 -2.24932427E+00 -2.24932427E+00 -2.24932427E+00
 -2.24932427E+00 -2.24932427E+00 -2.24932427E+00 -2.96680911E+00  2.69006704E+00
 -2.96680911E+00  2.69006704E+00  2.69006704E+00 -2.96680911E+00  2.69006704E+00
 -2.96680911E+00 -2.96680911E+00  2.69006704E+00 -2.96680911E+00  2.69006704E+00
 -2.96680911E+00  2.69006704E+00 -2.96680911E+00  2.69006704E+00 -2.96680911E+00
  2.69006704E+00 -2.96680911E+00  2.69006704E+00 -2.96680911E+00  2.69006704E+00
 -2.96680911E+00  2.69006704E+00  1.91971931E+00  2.64678908E+00  2.64678908E+00
  1.91971931E+00  2.64678908E+00  2.64678908E+00  2.64678908E+00  1.91971931E+00
  2.64678908E+00  1.91971931E+00  2.64678908E+00  2.64678908E+00  1.91971931E+00
  2.64678908E+00  2.64678908E+00  1.91971931E+00  2.64678908E+00  2.64678908E+00
 -5.95686987E+00 -5.95686987E+00 -5.95686987E+00 -5.95686987E+00 -5.95686987E+00
 -5.95686987E+00  2.06276436E+00  2.06276436E+00  2.06276436E+00  2.06276436E+00
  2.06276436E+00  2.06276436E+00  8.03913209E-01  8.03913209E-01  8.03913209E-01
  8.03913209E-01  8.03913209E-01  8.03913209E-01  8.03913209E-01  8.03913209E-01
  8.03913209E-01  8.03913209E-01  8.03913209E-01  8.03913209E-01  8.03913209E-01
  8.03913209E-01  8.03913209E-01  8.03913209E-01  8.03913209E-01  8.03913209E-01
 -5.95686987E+00  1.91971931E+00  2.06276436E+00 -2.96680911E+00 -2.96680911E+00
  8.03913209E-01  8.03913209E-01  8.03913209E-01 -2.24932427E+00  2.64678908E+00
 -2.24932427E+00  2.64678908E+00  2.06094213E+00  2.69006704E+00  2.69006704E+00
 -7.92305604E+00  2.76705626E+00  2.06094213E+00 -2.40989918E+00 -2.95201260E+00
 -2.24932427E+00 -2.24932427E+00 -9.84915315E-01  2.86545667E+00 -1.59900683E+00
  2.65590022E+00 -2.96680911E+00  2.69006704E+00 -2.96680911E+00  2.69006704E+00
 -1.02044880E+00  2.46365496E+00  2.51012183E+00  1.91971931E+00  2.64678908E+00
  2.64678908E+00 -1.02044880E+00 -9.84915315E-01 -9.84915315E-01 -9.84915315E-01
 -5.95686987E+00 -1.59900683E+00 -2.40989918E+00 -2.40989918E+00 -1.02044880E+00
 -2.40989918E+00 -1.02044880E+00  2.06276436E+00 -2.95201260E+00  2.51012183E+00
  2.76705626E+00  2.86545667E+00  2.76705626E+00  2.86545667E+00 -1.59900683E+00
  2.86545667E+00  2.76705626E+00 -1.59900683E+00  8.03913209E-01  8.03913209E-01
  8.03913209E-01  2.65590022E+00 -7.92305604E+00 -7.92305604E+00 -2.95201260E+00
  2.51012183E+00 -7.92305604E+00 -2.95201260E+00  2.51012183E+00  2.06094213E+00
  2.06094213E+00  2.06094213E+00  2.06094213E+00  2.65590022E+00  2.06094213E+00
  2.06094213E+00  2.65590022E+00 -2.24932427E+00 -2.24932427E+00 -2.24932427E+00
 -2.24932427E+00 -2.24932427E+00 -2.24932427E+00 -2.24932427E+00 -2.24932427E+00
 -2.24932427E+00 -2.24932427E+00 -2.24932427E+00 -2.24932427E+00 -2.96680911E+00
  2.69006704E+00 -2.96680911E+00  2.69006704E+00  2.69006704E+00 -2.96680911E+00
  2.69006704E+00 -2.96680911E+00 -2.96680911E+00  2.69006704E+00 -2.96680911E+00
  2.69006704E+00 -2.96680911E+00  2.69006704E+00 -2.96680911E+00  2.69006704E+00
 -2.96680911E+00  2.69006704E+00 -2.96680911E+00  2.69006704E+00 -2.96680911E+00
  2.69006704E+00 -2.96680911E+00  2.69006704E+00  1.91971931E+00  2.64678908E+00
  2.64678908E+00  1.91971931E+00  2.64678908E+00  2.64678908E+00  2.64678908E+00
  1.91971931E+00  2.64678908E+00  1.91971931E+00  2.64678908E+00  2.64678908E+00
  1.91971931E+00  2.64678908E+00  2.64678908E+00  1.91971931E+00  2.64678908E+00
  2.64678908E+00 -5.95686987E+00 -5.95686987E+00 -5.95686987E+00 -5.95686987E+00
 -5.95686987E+00 -5.95686987E+00  2.06276436E+00  2.06276436E+00  2.06276436E+00
  2.06276436E+00  2.06276436E+00  2.06276436E+00  8.03913209E-01  8.03913209E-01
  8.03913209E-01  8.03913209E-01  8.03913209E-01  8.03913209E-01  8.03913209E-01
  8.03913209E-01  8.03913209E-01  8.03913209E-01  8.03913209E-01  8.03913209E-01
  8.03913209E-01  8.03913209E-01  8.03913209E-01  8.03913209E-01  8.03913209E-01
  8.03913209E-01 -5.95686987E+00  1.91971931E+00  2.06276436E+00 -2.96680911E+00
 -2.96680911E+00  8.03913209E-01  8.03913209E-01  8.03913209E-01 -2.24932427E+00
  2.64678908E+00 -2.24932427E+00  2.64678908E+00  2.06094213E+00  2.69006704E+00
  2.69006704E+00 -7.92305604E+00  2.76705626E+00  2.06094213E+00 -2.40989918E+00
 -2.95201260E+00 -2.24932427E+00 -2.24932427E+00 -9.84915315E-01  2.86545667E+00
 -1.59900683E+00  2.65590022E+00 -2.96680911E+00  2.69006704E+00 -2.96680911E+00
  2.69006704E+00 -1.02044880E+00  2.46365496E+00  2.51012183E+00  1.91971931E+00
  2.64678908E+00  2.64678908E+00 -1.02044880E+00 -9.84915315E-01 -9.84915315E-01
 -9.84915315E-01 -5.95686987E+00 -1.59900683E+00 -2.40989918E+00 -2.40989918E+00
 -1.02044880E+00 -2.40989918E+00 -1.02044880E+00  2.06276436E+00 -2.95201260E+00
  2.51012183E+00  2.76705626E+00  2.86545667E+00  2.76705626E+00  2.86545667E+00
 -1.59900683E+00  2.86545667E+00  2.76705626E+00 -1.59900683E+00  8.03913209E-01
  8.03913209E-01  8.03913209E-01  2.65590022E+00 -7.92305604E+00 -7.92305604E+00
 -2.95201260E+00  2.51012183E+00 -7.92305604E+00 -2.95201260E+00  2.51012183E+00
  2.06094213E+00  2.06094213E+00  2.06094213E+00  2.06094213E+00  2.65590022E+00
  2.06094213E+00  2.06094213E+00  2.65590022E+00 -2.24932427E+00 -2.24932427E+00
 -2.24932427E+00 -2.24932427E+00 -2.24932427E+00 -2.24932427E+00 -2.24932427E+00
 -2.24932427E+00 -2.24932427E+00 -2.24932427E+00 -2.24932427E+00 -2.24932427E+00
 -2.96680911E+00  2.69006704E+00 -2.96680911E+00  2.69006704E+00  2.69006704E+00
 -2.96680911E+00  2.69006704E+00 -2.96680911E+00 -2.96680911E+00  2.69006704E+00
 -2.96680911E+00  2.69006704E+00 -2.96680911E+00  2.69006704E+00 -2.96680911E+00
  2.69006704E+00 -2.96680911E+00  2.69006704E+00 -2.96680911E+00  2.69006704E+00
 -2.96680911E+00  2.69006704E+00 -2.96680911E+00  2.69006704E+00  1.91971931E+00
  2.64678908E+00  2.64678908E+00  1.91971931E+00  2.64678908E+00  2.64678908E+00
  2.64678908E+00  1.91971931E+00  2.64678908E+00  1.91971931E+00  2.64678908E+00
  2.64678908E+00  1.91971931E+00  2.64678908E+00  2.64678908E+00  1.91971931E+00
  2.64678908E+00  2.64678908E+00 -5.95686987E+00 -5.95686987E+00 -5.95686987E+00
 -5.95686987E+00 -5.95686987E+00 -5.95686987E+00  2.06276436E+00  2.06276436E+00
  2.06276436E+00  2.06276436E+00  2.06276436E+00  2.06276436E+00  8.03913209E-01
  8.03913209E-01  8.03913209E-01  8.03913209E-01  8.03913209E-01  8.03913209E-01
  8.03913209E-01  8.03913209E-01  8.03913209E-01  8.03913209E-01  8.03913209E-01
  8.03913209E-01  8.03913209E-01  8.03913209E-01  8.03913209E-01  8.03913209E-01
  8.03913209E-01  8.03913209E-01 -5.95686987E+00  1.91971931E+00  2.06276436E+00
 -2.96680911E+00 -2.96680911E+00  8.03913209E-01  8.03913209E-01  8.03913209E-01
 -2.24932427E+00  2.64678908E+00 -2.24932427E+00  2.64678908E+00  2.06094213E+00
  2.69006704E+00  2.69006704E+00 -7.92305604E+00  2.76705626E+00  2.06094213E+00
 -2.40989918E+00 -2.95201260E+00 -2.24932427E+00 -2.24932427E+00 -9.84915315E-01
  2.86545667E+00 -1.59900683E+00  2.65590022E+00 -2.96680911E+00  2.69006704E+00
 -2.96680911E+00  2.69006704E+00 -1.02044880E+00  2.46365496E+00  2.51012183E+00
  1.91971931E+00  2.64678908E+00  2.64678908E+00 -1.02044880E+00 -9.84915315E-01
 -9.84915315E-01 -9.84915315E-01 -5.95686987E+00 -1.59900683E+00 -2.40989918E+00
 -2.40989918E+00 -1.02044880E+00 -2.40989918E+00 -1.02044880E+00  2.06276436E+00
 -2.95201260E+00  2.51012183E+00  2.76705626E+00  2.86545667E+00  2.76705626E+00
  2.86545667E+00 -1.59900683E+00  2.86545667E+00  2.76705626E+00 -1.59900683E+00
  8.03913209E-01  8.03913209E-01  8.03913209E-01  2.65590022E+00 -7.92305604E+00
 -7.92305604E+00 -2.95201260E+00  2.51012183E+00 -7.92305604E+00 -2.95201260E+00
  2.51012183E+00  2.06094213E+00  2.06094213E+00  2.06094213E+00  2.06094213E+00
  2.65590022E+00  2.06094213E+00  2.06094213E+00  2.65590022E+00 -2.24932427E+00
 -2.24932427E+00 -2.24932427E+00 -2.24932427E+00 -2.24932427E+00 -2.24932427E+00
 -2.24932427E+00 -2.24932427E+00 -2.24932427E+00 -2.24932427E+00 -2.24932427E+00
 -2.24932427E+00 -2.96680911E+00  2.69006704E+00 -2.96680911E+00  2.69006704E+00
  2.69006704E+00 -2.96680911E+00  2.69006704E+00 -2.96680911E+00 -2.96680911E+00
  2.69006704E+00 -2.96680911E+00  2.69006704E+00 -2.96680911E+00  2.69006704E+00
 -2.96680911E+00  2.69006704E+00 -2.96680911E+00  2.69006704E+00 -2.96680911E+00
  2.69006704E+00 -2.96680911E+00  2.69006704E+00 -2.96680911E+00  2.69006704E+00
  1.91971931E+00  2.64678908E+00  2.64678908E+00  1.91971931E+00  2.64678908E+00
  2.64678908E+00  2.64678908E+00  1.91971931E+00  2.64678908E+00  1.91971931E+00
  2.64678908E+00  2.64678908E+00  1.91971931E+00  2.64678908E+00  2.64678908E+00
  1.91971931E+00  2.64678908E+00  2.64678908E+00 -5.95686987E+00 -5.95686987E+00
 -5.95686987E+00 -5.95686987E+00 -5.95686987E+00 -5.95686987E+00  2.06276436E+00
  2.06276436E+00  2.06276436E+00  2.06276436E+00  2.06276436E+00  2.06276436E+00
  8.03913209E-01  8.03913209E-01  8.03913209E-01  8.03913209E-01  8.03913209E-01
  8.03913209E-01  8.03913209E-01  8.03913209E-01  8.03913209E-01  8.03913209E-01
  8.03913209E-01  8.03913209E-01  8.03913209E-01  8.03913209E-01  8.03913209E-01
  8.03913209E-01  8.03913209E-01  8.03913209E-01 -5.95686987E+00  1.91971931E+00
  2.06276436E+00 -2.96680911E+00 -2.96680911E+00  8.03913209E-01  8.03913209E-01
  8.03913209E-01 -2.24932427E+00  2.64678908E+00 -2.24932427E+00  2.64678908E+00
  2.06094213E+00  2.69006704E+00  2.69006704E+00 -7.92305604E+00  2.76705626E+00
  2.06094213E+00 -2.40989918E+00 -2.95201260E+00 -2.24932427E+00 -2.24932427E+00
 -9.84915315E-01  2.86545667E+00 -1.59900683E+00  2.65590022E+00 -2.96680911E+00
  2.69006704E+00 -2.96680911E+00  2.69006704E+00 -1.02044880E+00  2.46365496E+00
  2.51012183E+00  1.91971931E+00  2.64678908E+00  2.64678908E+00 -1.02044880E+00
 -9.84915315E-01 -9.84915315E-01 -9.84915315E-01 -5.95686987E+00 -1.59900683E+00
 -2.40989918E+00 -2.40989918E+00 -1.02044880E+00 -2.40989918E+00 -1.02044880E+00
  2.06276436E+00 -2.95201260E+00  2.51012183E+00  2.76705626E+00  2.86545667E+00
  2.76705626E+00  2.86545667E+00 -1.59900683E+00  2.86545667E+00  2.76705626E+00
 -1.59900683E+00  8.03913209E-01  8.03913209E-01  8.03913209E-01  2.65590022E+00
 -7.92305604E+00 -7.92305604E+00 -2.95201260E+00  2.51012183E+00 -7.92305604E+00
 -2.95201260E+00  2.51012183E+00  2.06094213E+00  2.06094213E+00  2.06094213E+00
  2.06094213E+00  2.65590022E+00  2.06094213E+00  2.06094213E+00  2.65590022E+00
 -2.24932427E+00 -2.24932427E+00 -2.24932427E+00 -2.24932427E+00 -2.24932427E+00
 -2.24932427E+00 -2.24932427E+00 -2.24932427E+00 -2.24932427E+00 -2.24932427E+00
 -2.24932427E+00 -2.24932427E+00 -2.96680911E+00  2.69006704E+00 -2.96680911E+00
  2.69006704E+00  2.69006704E+00 -2.96680911E+00  2.69006704E+00 -2.96680911E+00
 -2.96680911E+00  2.69006704E+00 -2.96680911E+00  2.69006704E+00 -2.96680911E+00
  2.69006704E+00 -2.96680911E+00  2.69006704E+00 -2.96680911E+00  2.69006704E+00
 -2.96680911E+00  2.69006704E+00 -2.96680911E+00  2.69006704E+00 -2.96680911E+00
  2.69006704E+00  1.91971931E+00  2.64678908E+00  2.64678908E+00  1.91971931E+00
  2.64678908E+00  2.64678908E+00  2.64678908E+00  1.91971931E+00  2.64678908E+00
  1.91971931E+00  2.64678908E+00  2.64678908E+00  1.91971931E+00  2.64678908E+00
  2.64678908E+00  1.91971931E+00  2.64678908E+00  2.64678908E+00 -5.95686987E+00
 -5.95686987E+00 -5.95686987E+00 -5.95686987E+00 -5.95686987E+00 -5.95686987E+00
  2.06276436E+00  2.06276436E+00  2.06276436E+00  2.06276436E+00  2.06276436E+00
  2.06276436E+00  8.03913209E-01  8.03913209E-01  8.03913209E-01  8.03913209E-01
  8.03913209E-01  8.03913209E-01  8.03913209E-01  8.03913209E-01  8.03913209E-01
  8.03913209E-01  8.03913209E-01  8.03913209E-01  8.03913209E-01  8.03913209E-01
  8.03913209E-01  8.03913209E-01  8.03913209E-01  8.03913209E-01 -5.95686987E+00
  1.91971931E+00  2.06276436E+00 -2.96680911E+00 -2.96680911E+00  8.03913209E-01
  8.03913209E-01  8.03913209E-01 -2.24932427E+00  2.64678908E+00 -2.24932427E+00
  2.64678908E+00  2.06094213E+00  2.69006704E+00  2.69006704E+00 -7.92305604E+00
  2.76705626E+00  2.06094213E+00 -2.40989918E+00 -2.95201260E+00 -2.24932427E+00
 -2.24932427E+00 -9.84915315E-01  2.86545667E+00 -1.59900683E+00  2.65590022E+00
 -2.96680911E+00  2.69006704E+00 -2.96680911E+00  2.69006704E+00 -1.02044880E+00
  2.46365496E+00  2.51012183E+00  1.91971931E+00  2.64678908E+00  2.64678908E+00
 -1.02044880E+00 -9.84915315E-01 -9.84915315E-01 -9.84915315E-01 -5.95686987E+00
 -1.59900683E+00 -2.40989918E+00 -2.40989918E+00 -1.02044880E+00 -2.40989918E+00
 -1.02044880E+00  2.06276436E+00 -2.95201260E+00  2.51012183E+00  2.76705626E+00
  2.86545667E+00  2.76705626E+00  2.86545667E+00 -1.59900683E+00  2.86545667E+00
  2.76705626E+00 -1.59900683E+00  8.03913209E-01  8.03913209E-01  8.03913209E-01
  2.65590022E+00 -7.92305604E+00 -7.92305604E+00 -2.95201260E+00  2.51012183E+00
 -7.92305604E+00 -2.95201260E+00  2.51012183E+00  2.06094213E+00  2.06094213E+00
  2.06094213E+00  2.06094213E+00  2.65590022E+00  2.06094213E+00  2.06094213E+00
  2.65590022E+00 -2.24932427E+00 -2.24932427E+00 -2.24932427E+00 -2.24932427E+00
 -2.24932427E+00 -2.24932427E+00 -2.24932427E+00 -2.24932427E+00 -2.24932427E+00
 -2.24932427E+00 -2.24932427E+00 -2.24932427E+00 -2.96680911E+00  2.69006704E+00
 -2.96680911E+00  2.69006704E+00  2.69006704E+00 -2.96680911E+00  2.69006704E+00
 -2.96680911E+00 -2.96680911E+00  2.69006704E+00 -2.96680911E+00  2.69006704E+00
 -2.96680911E+00  2.69006704E+00 -2.96680911E+00  2.69006704E+00 -2.96680911E+00
  2.69006704E+00 -2.96680911E+00  2.69006704E+00 -2.96680911E+00  2.69006704E+00
 -2.96680911E+00  2.69006704E+00  1.91971931E+00  2.64678908E+00  2.64678908E+00
  1.91971931E+00  2.64678908E+00  2.64678908E+00  2.64678908E+00  1.91971931E+00
  2.64678908E+00  1.91971931E+00  2.64678908E+00  2.64678908E+00  1.91971931E+00
  2.64678908E+00  2.64678908E+00  1.91971931E+00  2.64678908E+00  2.64678908E+00
 -5.95686987E+00 -5.95686987E+00 -5.95686987E+00 -5.95686987E+00 -5.95686987E+00
 -5.95686987E+00  2.06276436E+00  2.06276436E+00  2.06276436E+00  2.06276436E+00
  2.06276436E+00  2.06276436E+00  8.03913209E-01  8.03913209E-01  8.03913209E-01
  8.03913209E-01  8.03913209E-01  8.03913209E-01  8.03913209E-01  8.03913209E-01
  8.03913209E-01  8.03913209E-01  8.03913209E-01  8.03913209E-01  8.03913209E-01
  8.03913209E-01  8.03913209E-01  8.03913209E-01  8.03913209E-01  8.03913209E-01
 -5.95686987E+00  1.91971931E+00  2.06276436E+00 -2.96680911E+00 -2.96680911E+00
  8.03913209E-01  8.03913209E-01  8.03913209E-01 -2.24932427E+00  2.64678908E+00
 -2.24932427E+00  2.64678908E+00  2.06094213E+00  2.69006704E+00  2.69006704E+00
 -7.92305604E+00  2.76705626E+00  2.06094213E+00 -2.40989918E+00 -2.95201260E+00
 -2.24932427E+00 -2.24932427E+00 -9.84915315E-01  2.86545667E+00 -1.59900683E+00
  2.65590022E+00 -2.96680911E+00  2.69006704E+00 -2.96680911E+00  2.69006704E+00
 -1.02044880E+00  2.46365496E+00  2.51012183E+00  1.91971931E+00  2.64678908E+00
  2.64678908E+00 -1.02044880E+00 -9.84915315E-01 -9.84915315E-01 -9.84915315E-01
 -5.95686987E+00 -1.59900683E+00 -2.40989918E+00 -2.40989918E+00 -1.02044880E+00
 -2.40989918E+00 -1.02044880E+00  2.06276436E+00 -2.95201260E+00  2.51012183E+00
  2.76705626E+00  2.86545667E+00  2.76705626E+00  2.86545667E+00 -1.59900683E+00
  2.86545667E+00  2.76705626E+00 -1.59900683E+00  8.03913209E-01  8.03913209E-01
  8.03913209E-01  2.65590022E+00 -7.92305604E+00 -7.92305604E+00 -2.95201260E+00
  2.51012183E+00 -7.92305604E+00 -2.95201260E+00  2.51012183E+00  2.06094213E+00
  2.06094213E+00  2.06094213E+00  2.06094213E+00  2.65590022E+00  2.06094213E+00
  2.06094213E+00  2.65590022E+00 -2.24932427E+00 -2.24932427E+00 -2.24932427E+00
 -2.24932427E+00 -2.24932427E+00 -2.24932427E+00 -2.24932427E+00 -2.24932427E+00
 -2.24932427E+00 -2.24932427E+00 -2.24932427E+00 -2.24932427E+00 -2.96680911E+00
  2.69006704E+00 -2.96680911E+00  2.69006704E+00  2.69006704E+00 -2.96680911E+00
  2.69006704E+00 -2.96680911E+00 -2.96680911E+00  2.69006704E+00 -2.96680911E+00
  2.69006704E+00 -2.96680911E+00  2.69006704E+00 -2.96680911E+00  2.69006704E+00
 -2.96680911E+00  2.69006704E+00 -2.96680911E+00  2.69006704E+00 -2.96680911E+00
  2.69006704E+00 -2.96680911E+00  2.69006704E+00  1.91971931E+00  2.64678908E+00
  2.64678908E+00  1.91971931E+00  2.64678908E+00  2.64678908E+00  2.64678908E+00
  1.91971931E+00  2.64678908E+00  1.91971931E+00  2.64678908E+00  2.64678908E+00
  1.91971931E+00  2.64678908E+00  2.64678908E+00  1.91971931E+00  2.64678908E+00
  2.64678908E+00 -5.95686987E+00 -5.95686987E+00 -5.95686987E+00 -5.95686987E+00
 -5.95686987E+00 -5.95686987E+00  2.06276436E+00  2.06276436E+00  2.06276436E+00
  2.06276436E+00  2.06276436E+00  2.06276436E+00  8.03913209E-01  8.03913209E-01
  8.03913209E-01  8.03913209E-01  8.03913209E-01  8.03913209E-01  8.03913209E-01
  8.03913209E-01  8.03913209E-01  8.03913209E-01  8.03913209E-01  8.03913209E-01
  8.03913209E-01  8.03913209E-01  8.03913209E-01  8.03913209E-01  8.03913209E-01
  8.03913209E-01 -5.95686987E+00  1.91971931E+00  2.06276436E+00 -2.96680911E+00
 -2.96680911E+00  8.03913209E-01  8.03913209E-01  8.03913209E-01 -2.24932427E+00
  2.64678908E+00 -2.24932427E+00  2.64678908E+00  2.06094213E+00  2.69006704E+00
  2.69006704E+00 -7.92305604E+00  2.76705626E+00  2.06094213E+00 -2.40989918E+00
 -2.95201260E+00 -2.24932427E+00 -2.24932427E+00 -9.84915315E-01  2.86545667E+00
 -1.59900683E+00  2.65590022E+00 -2.96680911E+00  2.69006704E+00 -2.96680911E+00
  2.69006704E+00 -1.02044880E+00  2.46365496E+00  2.51012183E+00  1.91971931E+00
  2.64678908E+00  2.64678908E+00 -1.02044880E+00 -9.84915315E-01 -9.84915315E-01
 -9.84915315E-01 -5.95686987E+00 -1.59900683E+00 -2.40989918E+00 -2.40989918E+00
 -1.02044880E+00 -2.40989918E+00 -1.02044880E+00  2.06276436E+00 -2.95201260E+00
  2.51012183E+00  2.76705626E+00  2.86545667E+00  2.76705626E+00  2.86545667E+00
 -1.59900683E+00  2.86545667E+00  2.76705626E+00 -1.59900683E+00  8.03913209E-01
  8.03913209E-01  8.03913209E-01  2.65590022E+00 -7.92305604E+00 -7.92305604E+00
 -2.95201260E+00  2.51012183E+00 -7.92305604E+00 -2.95201260E+00  2.51012183E+00
  2.06094213E+00  2.06094213E+00  2.06094213E+00  2.06094213E+00  2.65590022E+00
  2.06094213E+00  2.06094213E+00  2.65590022E+00 -2.24932427E+00 -2.24932427E+00
 -2.24932427E+00 -2.24932427E+00 -2.24932427E+00 -2.24932427E+00 -2.24932427E+00
 -2.24932427E+00 -2.24932427E+00 -2.24932427E+00 -2.24932427E+00 -2.24932427E+00
 -2.96680911E+00  2.69006704E+00 -2.96680911E+00  2.69006704E+00  2.69006704E+00
 -2.96680911E+00  2.69006704E+00 -2.96680911E+00 -2.96680911E+00  2.69006704E+00
 -2.96680911E+00  2.69006704E+00 -2.96680911E+00  2.69006704E+00 -2.96680911E+00
  2.69006704E+00 -2.96680911E+00  2.69006704E+00 -2.96680911E+00  2.69006704E+00
 -2.96680911E+00  2.69006704E+00 -2.96680911E+00  2.69006704E+00  1.91971931E+00
  2.64678908E+00  2.64678908E+00  1.91971931E+00  2.64678908E+00  2.64678908E+00
  2.64678908E+00  1.91971931E+00  2.64678908E+00  1.91971931E+00  2.64678908E+00
  2.64678908E+00  1.91971931E+00  2.64678908E+00  2.64678908E+00  1.91971931E+00
  2.64678908E+00  2.64678908E+00 -5.95686987E+00 -5.95686987E+00 -5.95686987E+00
 -5.95686987E+00 -5.95686987E+00 -5.95686987E+00  2.06276436E+00  2.06276436E+00
  2.06276436E+00  2.06276436E+00  2.06276436E+00  2.06276436E+00  8.03913209E-01
  8.03913209E-01  8.03913209E-01  8.03913209E-01  8.03913209E-01  8.03913209E-01
  8.03913209E-01  8.03913209E-01  8.03913209E-01  8.03913209E-01  8.03913209E-01
  8.03913209E-01  8.03913209E-01  8.03913209E-01  8.03913209E-01  8.03913209E-01
  8.03913209E-01  8.03913209E-01 -5.95686987E+00  1.91971931E+00  2.06276436E+00
 -2.96680911E+00 -2.96680911E+00  8.03913209E-01  8.03913209E-01  8.03913209E-01
 -2.24932427E+00  2.64678908E+00 -2.24932427E+00  2.64678908E+00  2.06094213E+00
  2.69006704E+00  2.69006704E+00 -7.92305604E+00  2.76705626E+00  2.06094213E+00
 -2.40989918E+00 -2.95201260E+00 -2.24932427E+00 -2.24932427E+00 -9.84915315E-01
  2.86545667E+00 -1.59900683E+00  2.65590022E+00 -2.96680911E+00  2.69006704E+00
 -2.96680911E+00  2.69006704E+00 -1.02044880E+00  2.46365496E+00  2.51012183E+00
  1.91971931E+00  2.64678908E+00  2.64678908E+00 -1.02044880E+00 -9.84915315E-01
 -9.84915315E-01 -9.84915315E-01 -5.95686987E+00 -1.59900683E+00 -2.40989918E+00
 -2.40989918E+00 -1.02044880E+00 -2.40989918E+00 -1.02044880E+00  2.06276436E+00
 -2.95201260E+00  2.51012183E+00  2.76705626E+00  2.86545667E+00  2.76705626E+00
  2.86545667E+00 -1.59900683E+00  2.86545667E+00  2.76705626E+00 -1.59900683E+00
  8.03913209E-01  8.03913209E-01  8.03913209E-01  2.65590022E+00 -7.92305604E+00
 -7.92305604E+00 -2.95201260E+00  2.51012183E+00 -7.92305604E+00 -2.95201260E+00
  2.51012183E+00  2.06094213E+00  2.06094213E+00  2.06094213E+00  2.06094213E+00
  2.65590022E+00  2.06094213E+00  2.06094213E+00  2.65590022E+00 -2.24932427E+00
 -2.24932427E+00 -2.24932427E+00 -2.24932427E+00 -2.24932427E+00 -2.24932427E+00
 -2.24932427E+00 -2.24932427E+00 -2.24932427E+00 -2.24932427E+00 -2.24932427E+00
 -2.24932427E+00 -2.96680911E+00  2.69006704E+00 -2.96680911E+00  2.69006704E+00
  2.69006704E+00 -2.96680911E+00  2.69006704E+00 -2.96680911E+00 -2.96680911E+00
  2.69006704E+00 -2.96680911E+00  2.69006704E+00 -2.96680911E+00  2.69006704E+00
 -2.96680911E+00  2.69006704E+00 -2.96680911E+00  2.69006704E+00 -2.96680911E+00
  2.69006704E+00 -2.96680911E+00  2.69006704E+00 -2.96680911E+00  2.69006704E+00
  1.91971931E+00  2.64678908E+00  2.64678908E+00  1.91971931E+00  2.64678908E+00
  2.64678908E+00  2.64678908E+00  1.91971931E+00  2.64678908E+00  1.91971931E+00
  2.64678908E+00  2.64678908E+00  1.91971931E+00  2.64678908E+00  2.64678908E+00
  1.91971931E+00  2.64678908E+00  2.64678908E+00 -5.95686987E+00 -5.95686987E+00
 -5.95686987E+00 -5.95686987E+00 -5.95686987E+00 -5.95686987E+00  2.06276436E+00
  2.06276436E+00  2.06276436E+00  2.06276436E+00  2.06276436E+00  2.06276436E+00
  8.03913209E-01  8.03913209E-01  8.03913209E-01  8.03913209E-01  8.03913209E-01
  8.03913209E-01  8.03913209E-01  8.03913209E-01  8.03913209E-01  8.03913209E-01
  8.03913209E-01  8.03913209E-01  8.03913209E-01  8.03913209E-01  8.03913209E-01
  8.03913209E-01  8.03913209E-01  8.03913209E-01 -5.95686987E+00  1.91971931E+00
  2.06276436E+00 -2.96680911E+00 -2.96680911E+00  8.03913209E-01  8.03913209E-01
  8.03913209E-01 -2.24932427E+00  2.64678908E+00 -2.24932427E+00  2.64678908E+00
  2.06094213E+00  2.69006704E+00  2.69006704E+00 -7.92305604E+00  2.76705626E+00
  2.06094213E+00 -2.40989918E+00 -2.95201260E+00 -2.24932427E+00 -2.24932427E+00
 -9.84915315E-01  2.86545667E+00 -1.59900683E+00  2.65590022E+00 -2.96680911E+00
  2.69006704E+00 -2.96680911E+00  2.69006704E+00 -1.02044880E+00  2.46365496E+00
  2.51012183E+00  1.91971931E+00  2.64678908E+00  2.64678908E+00 -1.02044880E+00
 -9.84915315E-01 -9.84915315E-01 -9.84915315E-01 -5.95686987E+00 -1.59900683E+00
 -2.40989918E+00 -2.40989918E+00 -1.02044880E+00 -2.40989918E+00 -1.02044880E+00
  2.06276436E+00 -2.95201260E+00  2.51012183E+00  2.76705626E+00  2.86545667E+00
  2.76705626E+00  2.86545667E+00 -1.59900683E+00  2.86545667E+00  2.76705626E+00
 -1.59900683E+00  8.03913209E-01  8.03913209E-01  8.03913209E-01  2.65590022E+00
 -7.92305604E+00 -7.92305604E+00 -2.95201260E+00  2.51012183E+00 -7.92305604E+00
 -2.95201260E+00  2.51012183E+00  2.06094213E+00  2.06094213E+00  2.06094213E+00
  2.06094213E+00  2.65590022E+00  2.06094213E+00  2.06094213E+00  2.65590022E+00
 -2.24932427E+00 -2.24932427E+00 -2.24932427E+00 -2.24932427E+00 -2.24932427E+00
 -2.24932427E+00 -2.24932427E+00 -2.24932427E+00 -2.24932427E+00 -2.24932427E+00
 -2.24932427E+00 -2.24932427E+00 -2.96680911E+00  2.69006704E+00 -2.96680911E+00
  2.69006704E+00  2.69006704E+00 -2.96680911E+00  2.69006704E+00 -2.96680911E+00
 -2.96680911E+00  2.69006704E+00 -2.96680911E+00  2.69006704E+00 -2.96680911E+00
  2.69006704E+00 -2.96680911E+00  2.69006704E+00 -2.96680911E+00  2.69006704E+00
 -2.96680911E+00  2.69006704E+00 -2.96680911E+00  2.69006704E+00 -2.96680911E+00
  2.69006704E+00  1.91971931E+00  2.64678908E+00  2.64678908E+00  1.91971931E+00
  2.64678908E+00  2.64678908E+00  2.64678908E+00  1.91971931E+00  2.64678908E+00
  1.91971931E+00  2.64678908E+00  2.64678908E+00  1.91971931E+00  2.64678908E+00
  2.64678908E+00  1.91971931E+00  2.64678908E+00  2.64678908E+00 -5.95686987E+00
 -5.95686987E+00 -5.95686987E+00 -5.95686987E+00 -5.95686987E+00 -5.95686987E+00
  2.06276436E+00  2.06276436E+00  2.06276436E+00  2.06276436E+00  2.06276436E+00
  2.06276436E+00  8.03913209E-01  8.03913209E-01  8.03913209E-01  8.03913209E-01
  8.03913209E-01  8.03913209E-01  8.03913209E-01  8.03913209E-01  8.03913209E-01
  8.03913209E-01  8.03913209E-01  8.03913209E-01  8.03913209E-01  8.03913209E-01
  8.03913209E-01  8.03913209E-01  8.03913209E-01  8.03913209E-01 -5.95686987E+00
  1.91971931E+00  2.06276436E+00 -2.96680911E+00 -2.96680911E+00  8.03913209E-01
  8.03913209E-01  8.03913209E-01 -2.24932427E+00  2.64678908E+00 -2.24932427E+00
  2.64678908E+00  2.06094213E+00  2.69006704E+00  2.69006704E+00 -7.92305604E+00
  2.76705626E+00  2.06094213E+00 -2.40989918E+00 -2.95201260E+00 -2.24932427E+00
 -2.24932427E+00 -9.84915315E-01  2.86545667E+00 -1.59900683E+00  2.65590022E+00
 -2.96680911E+00  2.69006704E+00 -2.96680911E+00  2.69006704E+00 -1.02044880E+00
  2.46365496E+00  2.51012183E+00  1.91971931E+00  2.64678908E+00  2.64678908E+00
 -1.02044880E+00 -9.84915315E-01 -9.84915315E-01 -9.84915315E-01 -5.95686987E+00
 -1.59900683E+00 -2.40989918E+00 -2.40989918E+00 -1.02044880E+00 -2.40989918E+00
 -1.02044880E+00  2.06276436E+00 -2.95201260E+00  2.51012183E+00  2.76705626E+00
  2.86545667E+00  2.76705626E+00  2.86545667E+00 -1.59900683E+00  2.86545667E+00
  2.76705626E+00 -1.59900683E+00  8.03913209E-01  8.03913209E-01  8.03913209E-01
  2.65590022E+00 -7.92305604E+00 -7.92305604E+00 -2.95201260E+00  2.51012183E+00
 -7.92305604E+00 -2.95201260E+00  2.51012183E+00  2.06094213E+00  2.06094213E+00
  2.06094213E+00  2.06094213E+00  2.65590022E+00  2.06094213E+00  2.06094213E+00
  2.65590022E+00 -2.24932427E+00 -2.24932427E+00 -2.24932427E+00 -2.24932427E+00
 -2.24932427E+00 -2.24932427E+00 -2.24932427E+00 -2.24932427E+00 -2.24932427E+00
 -2.24932427E+00 -2.24932427E+00 -2.24932427E+00 -2.96680911E+00  2.69006704E+00
 -2.96680911E+00  2.69006704E+00  2.69006704E+00 -2.96680911E+00  2.69006704E+00
 -2.96680911E+00 -2.96680911E+00  2.69006704E+00 -2.96680911E+00  2.69006704E+00
 -2.96680911E+00  2.69006704E+00 -2.96680911E+00  2.69006704E+00 -2.96680911E+00
  2.69006704E+00 -2.96680911E+00  2.69006704E+00 -2.96680911E+00  2.69006704E+00
 -2.96680911E+00  2.69006704E+00  1.91971931E+00  2.64678908E+00  2.64678908E+00
  1.91971931E+00  2.64678908E+00  2.64678908E+00  2.64678908E+00  1.91971931E+00
  2.64678908E+00  1.91971931E+00  2.64678908E+00  2.64678908E+00  1.91971931E+00
  2.64678908E+00  2.64678908E+00  1.91971931E+00  2.64678908E+00  2.64678908E+00
 -5.95686987E+00 -5.95686987E+00 -5.95686987E+00 -5.95686987E+00 -5.95686987E+00
 -5.95686987E+00  2.06276436E+00  2.06276436E+00  2.06276436E+00  2.06276436E+00
  2.06276436E+00  2.06276436E+00  8.03913209E-01  8.03913209E-01  8.03913209E-01
  8.03913209E-01  8.03913209E-01  8.03913209E-01  8.03913209E-01  8.03913209E-01
  8.03913209E-01  8.03913209E-01  8.03913209E-01  8.03913209E-01  8.03913209E-01
  8.03913209E-01  8.03913209E-01  8.03913209E-01  8.03913209E-01  8.03913209E-01
 -5.95686987E+00  1.91971931E+00  2.06276436E+00 -2.96680911E+00 -2.96680911E+00
  8.03913209E-01  8.03913209E-01  8.03913209E-01 -2.24932427E+00  2.64678908E+00
 -2.24932427E+00  2.64678908E+00  2.06094213E+00  2.69006704E+00  2.69006704E+00
 -7.92305604E+00  2.76705626E+00  2.06094213E+00 -2.40989918E+00 -2.95201260E+00
 -2.24932427E+00 -2.24932427E+00 -9.84915315E-01  2.86545667E+00 -1.59900683E+00
  2.65590022E+00 -2.96680911E+00  2.69006704E+00 -2.96680911E+00  2.69006704E+00
 -1.02044880E+00  2.46365496E+00  2.51012183E+00  1.91971931E+00  2.64678908E+00
  2.64678908E+00 -1.02044880E+00 -9.84915315E-01 -9.84915315E-01 -9.84915315E-01
 -5.95686987E+00 -1.59900683E+00 -2.40989918E+00 -2.40989918E+00 -1.02044880E+00
 -2.40989918E+00 -1.02044880E+00  2.06276436E+00 -2.95201260E+00  2.51012183E+00
  2.76705626E+00  2.86545667E+00  2.76705626E+00  2.86545667E+00 -1.59900683E+00
  2.86545667E+00  2.76705626E+00 -1.59900683E+00  8.03913209E-01  8.03913209E-01
  8.03913209E-01  2.65590022E+00 -7.92305604E+00 -7.92305604E+00 -2.95201260E+00
  2.51012183E+00 -7.92305604E+00 -2.95201260E+00  2.51012183E+00  2.06094213E+00
  2.06094213E+00  2.06094213E+00  2.06094213E+00  2.65590022E+00  2.06094213E+00
  2.06094213E+00  2.65590022E+00 -2.24932427E+00 -2.24932427E+00 -2.24932427E+00
 -2.24932427E+00 -2.24932427E+00 -2.24932427E+00 -2.24932427E+00 -2.24932427E+00
 -2.24932427E+00 -2.24932427E+00 -2.24932427E+00 -2.24932427E+00 -2.96680911E+00
  2.69006704E+00 -2.96680911E+00  2.69006704E+00  2.69006704E+00 -2.96680911E+00
  2.69006704E+00 -2.96680911E+00 -2.96680911E+00  2.69006704E+00 -2.96680911E+00
  2.69006704E+00 -2.96680911E+00  2.69006704E+00 -2.96680911E+00  2.69006704E+00
 -2.96680911E+00  2.69006704E+00 -2.96680911E+00  2.69006704E+00 -2.96680911E+00
  2.69006704E+00 -2.96680911E+00  2.69006704E+00  1.91971931E+00  2.64678908E+00
  2.64678908E+00  1.91971931E+00  2.64678908E+00  2.64678908E+00  2.64678908E+00
  1.91971931E+00  2.64678908E+00  1.91971931E+00  2.64678908E+00  2.64678908E+00
  1.91971931E+00  2.64678908E+00  2.64678908E+00  1.91971931E+00  2.64678908E+00
  2.64678908E+00 -5.95686987E+00 -5.95686987E+00 -5.95686987E+00 -5.95686987E+00
 -5.95686987E+00 -5.95686987E+00  2.06276436E+00  2.06276436E+00  2.06276436E+00
  2.06276436E+00  2.06276436E+00  2.06276436E+00  8.03913209E-01  8.03913209E-01
  8.03913209E-01  8.03913209E-01  8.03913209E-01  8.03913209E-01  8.03913209E-01
  8.03913209E-01  8.03913209E-01  8.03913209E-01  8.03913209E-01  8.03913209E-01
  8.03913209E-01  8.03913209E-01  8.03913209E-01  8.03913209E-01  8.03913209E-01
  8.03913209E-01 -5.95686987E+00  1.91971931E+00  2.06276436E+00 -2.96680911E+00
 -2.96680911E+00  8.03913209E-01  8.03913209E-01  8.03913209E-01 -2.24932427E+00
  2.64678908E+00 -2.24932427E+00  2.64678908E+00  2.06094213E+00  2.69006704E+00
  2.69006704E+00 -7.92305604E+00  2.76705626E+00  2.06094213E+00 -2.40989918E+00
 -2.95201260E+00 -2.24932427E+00 -2.24932427E+00 -9.84915315E-01  2.86545667E+00
 -1.59900683E+00  2.65590022E+00 -2.96680911E+00  2.69006704E+00 -2.96680911E+00
  2.69006704E+00 -1.02044880E+00  2.46365496E+00  2.51012183E+00  1.91971931E+00
  2.64678908E+00  2.64678908E+00 -1.02044880E+00 -9.84915315E-01 -9.84915315E-01
 -9.84915315E-01 -5.95686987E+00 -1.59900683E+00 -2.40989918E+00 -2.40989918E+00
 -1.02044880E+00 -2.40989918E+00 -1.02044880E+00  2.06276436E+00 -2.95201260E+00
  2.51012183E+00  2.76705626E+00  2.86545667E+00  2.76705626E+00  2.86545667E+00
 -1.59900683E+00  2.86545667E+00  2.76705626E+00 -1.59900683E+00  8.03913209E-01
  8.03913209E-01  8.03913209E-01  2.65590022E+00 -7.92305604E+00 -7.92305604E+00
 -2.95201260E+00  2.51012183E+00 -7.92305604E+00 -2.95201260E+00  2.51012183E+00
  2.06094213E+00  2.06094213E+00  2.06094213E+00  2.06094213E+00  2.65590022E+00
  2.06094213E+00  2.06094213E+00  2.65590022E+00 -2.24932427E+00 -2.24932427E+00
 -2.24932427E+00 -2.24932427E+00 -2.24932427E+00 -2.24932427E+00 -2.24932427E+00
 -2.24932427E+00 -2.24932427E+00 -2.24932427E+00 -2.24932427E+00 -2.24932427E+00
 -2.96680911E+00  2.69006704E+00 -2.96680911E+00  2.69006704E+00  2.69006704E+00
 -2.96680911E+00  2.69006704E+00 -2.96680911E+00 -2.96680911E+00  2.69006704E+00
 -2.96680911E+00  2.69006704E+00 -2.96680911E+00  2.69006704E+00 -2.96680911E+00
  2.69006704E+00 -2.96680911E+00  2.69006704E+00 -2.96680911E+00  2.69006704E+00
 -2.96680911E+00  2.69006704E+00 -2.96680911E+00  2.69006704E+00  1.91971931E+00
  2.64678908E+00  2.64678908E+00  1.91971931E+00  2.64678908E+00  2.64678908E+00
  2.64678908E+00  1.91971931E+00  2.64678908E+00  1.91971931E+00  2.64678908E+00
  2.64678908E+00  1.91971931E+00  2.64678908E+00  2.64678908E+00  1.91971931E+00
  2.64678908E+00  2.64678908E+00 -5.95686987E+00 -5.95686987E+00 -5.95686987E+00
 -5.95686987E+00 -5.95686987E+00 -5.95686987E+00  2.06276436E+00  2.06276436E+00
  2.06276436E+00  2.06276436E+00  2.06276436E+00  2.06276436E+00  8.03913209E-01
  8.03913209E-01  8.03913209E-01  8.03913209E-01  8.03913209E-01  8.03913209E-01
  8.03913209E-01  8.03913209E-01  8.03913209E-01  8.03913209E-01  8.03913209E-01
  8.03913209E-01  8.03913209E-01  8.03913209E-01  8.03913209E-01  8.03913209E-01
  8.03913209E-01  8.03913209E-01 -5.95686987E+00  1.91971931E+00  2.06276436E+00
 -2.96680911E+00 -2.96680911E+00  8.03913209E-01  8.03913209E-01  8.03913209E-01
 -2.24932427E+00  2.64678908E+00 -2.24932427E+00  2.64678908E+00  2.06094213E+00
  2.69006704E+00  2.69006704E+00 -7.92305604E+00  2.76705626E+00  2.06094213E+00
 -2.40989918E+00 -2.95201260E+00 -2.24932427E+00 -2.24932427E+00 -9.84915315E-01
  2.86545667E+00 -1.59900683E+00  2.65590022E+00 -2.96680911E+00  2.69006704E+00
 -2.96680911E+00  2.69006704E+00 -1.02044880E+00  2.46365496E+00  2.51012183E+00
  1.91971931E+00  2.64678908E+00  2.64678908E+00 -1.02044880E+00 -9.84915315E-01
 -9.84915315E-01 -9.84915315E-01 -5.95686987E+00 -1.59900683E+00 -2.40989918E+00
 -2.40989918E+00 -1.02044880E+00 -2.40989918E+00 -1.02044880E+00  2.06276436E+00
 -2.95201260E+00  2.51012183E+00  2.76705626E+00  2.86545667E+00  2.76705626E+00
  2.86545667E+00 -1.59900683E+00  2.86545667E+00  2.76705626E+00 -1.59900683E+00
  8.03913209E-01  8.03913209E-01  8.03913209E-01  2.65590022E+00 -7.92305604E+00
 -7.92305604E+00 -2.95201260E+00  2.51012183E+00 -7.92305604E+00 -2.95201260E+00
  2.51012183E+00  2.06094213E+00  2.06094213E+00  2.06094213E+00  2.06094213E+00
  2.65590022E+00  2.06094213E+00  2.06094213E+00  2.65590022E+00 -2.24932427E+00
 -2.24932427E+00 -2.24932427E+00 -2.24932427E+00 -2.24932427E+00 -2.24932427E+00
 -2.24932427E+00 -2.24932427E+00 -2.24932427E+00 -2.24932427E+00 -2.24932427E+00
 -2.24932427E+00 -2.96680911E+00  2.69006704E+00 -2.96680911E+00  2.69006704E+00
  2.69006704E+00 -2.96680911E+00  2.69006704E+00 -2.96680911E+00 -2.96680911E+00
  2.69006704E+00 -2.96680911E+00  2.69006704E+00 -2.96680911E+00  2.69006704E+00
 -2.96680911E+00  2.69006704E+00 -2.96680911E+00  2.69006704E+00 -2.96680911E+00
  2.69006704E+00 -2.96680911E+00  2.69006704E+00 -2.96680911E+00  2.69006704E+00
  1.91971931E+00  2.64678908E+00  2.64678908E+00  1.91971931E+00  2.64678908E+00
  2.64678908E+00  2.64678908E+00  1.91971931E+00  2.64678908E+00  1.91971931E+00
  2.64678908E+00  2.64678908E+00  1.91971931E+00  2.64678908E+00  2.64678908E+00
  1.91971931E+00  2.64678908E+00  2.64678908E+00 -5.95686987E+00 -5.95686987E+00
 -5.95686987E+00 -5.95686987E+00 -5.95686987E+00 -5.95686987E+00  2.06276436E+00
  2.06276436E+00  2.06276436E+00  2.06276436E+00  2.06276436E+00  2.06276436E+00
  8.03913209E-01  8.03913209E-01  8.03913209E-01  8.03913209E-01  8.03913209E-01
  8.03913209E-01  8.03913209E-01  8.03913209E-01  8.03913209E-01  8.03913209E-01
  8.03913209E-01  8.03913209E-01  8.03913209E-01  8.03913209E-01  8.03913209E-01
  8.03913209E-01  8.03913209E-01  8.03913209E-01 -5.95686987E+00  1.91971931E+00
  2.06276436E+00 -2.96680911E+00 -2.96680911E+00  8.03913209E-01  8.03913209E-01
  8.03913209E-01 -2.24932427E+00  2.64678908E+00 -2.24932427E+00  2.64678908E+00
  2.06094213E+00  2.69006704E+00  2.69006704E+00 -7.92305604E+00  2.76705626E+00
  2.06094213E+00 -2.40989918E+00 -2.95201260E+00 -2.24932427E+00 -2.24932427E+00
 -9.84915315E-01  2.86545667E+00 -1.59900683E+00  2.65590022E+00 -2.96680911E+00
  2.69006704E+00 -2.96680911E+00  2.69006704E+00 -1.02044880E+00  2.46365496E+00
  2.51012183E+00  1.91971931E+00  2.64678908E+00  2.64678908E+00 -1.02044880E+00
 -9.84915315E-01 -9.84915315E-01 -9.84915315E-01 -5.95686987E+00 -1.59900683E+00
 -2.40989918E+00 -2.40989918E+00 -1.02044880E+00 -2.40989918E+00 -1.02044880E+00
  2.06276436E+00 -2.95201260E+00  2.51012183E+00  2.76705626E+00  2.86545667E+00
  2.76705626E+00  2.86545667E+00 -1.59900683E+00  2.86545667E+00  2.76705626E+00
 -1.59900683E+00  8.03913209E-01  8.03913209E-01  8.03913209E-01  2.65590022E+00
 -7.92305604E+00 -7.92305604E+00 -2.95201260E+00  2.51012183E+00 -7.92305604E+00
 -2.95201260E+00  2.51012183E+00  2.06094213E+00  2.06094213E+00  2.06094213E+00
  2.06094213E+00  2.65590022E+00  2.06094213E+00  2.06094213E+00  2.65590022E+00
 -2.24932427E+00 -2.24932427E+00 -2.24932427E+00 -2.24932427E+00 -2.24932427E+00
 -2.24932427E+00 -2.24932427E+00 -2.24932427E+00 -2.24932427E+00 -2.24932427E+00
 -2.24932427E+00 -2.24932427E+00 -2.96680911E+00  2.69006704E+00 -2.96680911E+00
  2.69006704E+00  2.69006704E+00 -2.96680911E+00  2.69006704E+00 -2.96680911E+00
 -2.96680911E+00  2.69006704E+00 -2.96680911E+00  2.69006704E+00 -2.96680911E+00
  2.69006704E+00 -2.96680911E+00  2.69006704E+00 -2.96680911E+00  2.69006704E+00
 -2.96680911E+00  2.69006704E+00 -2.96680911E+00  2.69006704E+00 -2.96680911E+00
  2.69006704E+00  1.91971931E+00  2.64678908E+00  2.64678908E+00  1.91971931E+00
  2.64678908E+00  2.64678908E+00  2.64678908E+00  1.91971931E+00  2.64678908E+00
  1.91971931E+00  2.64678908E+00  2.64678908E+00  1.91971931E+00  2.64678908E+00
  2.64678908E+00  1.91971931E+00  2.64678908E+00  2.64678908E+00 -5.95686987E+00
 -5.95686987E+00 -5.95686987E+00 -5.95686987E+00 -5.95686987E+00 -5.95686987E+00
  2.06276436E+00  2.06276436E+00  2.06276436E+00  2.06276436E+00  2.06276436E+00
  2.06276436E+00  8.03913209E-01  8.03913209E-01  8.03913209E-01  8.03913209E-01
  8.03913209E-01  8.03913209E-01  8.03913209E-01  8.03913209E-01  8.03913209E-01
  8.03913209E-01  8.03913209E-01  8.03913209E-01  8.03913209E-01  8.03913209E-01
  8.03913209E-01  8.03913209E-01  8.03913209E-01  8.03913209E-01 -5.95686987E+00
  1.91971931E+00  2.06276436E+00 -2.96680911E+00 -2.96680911E+00  8.03913209E-01
  8.03913209E-01  8.03913209E-01 -2.24932427E+00  2.64678908E+00 -2.24932427E+00
  2.64678908E+00  2.06094213E+00  2.69006704E+00  2.69006704E+00 -7.92305604E+00
  2.76705626E+00  2.06094213E+00 -2.40989918E+00 -2.95201260E+00 -2.24932427E+00
 -2.24932427E+00 -9.84915315E-01  2.86545667E+00 -1.59900683E+00  2.65590022E+00
 -2.96680911E+00  2.69006704E+00 -2.96680911E+00  2.69006704E+00 -1.02044880E+00
  2.46365496E+00  2.51012183E+00  1.91971931E+00  2.64678908E+00  2.64678908E+00
 -1.02044880E+00 -9.84915315E-01 -9.84915315E-01 -9.84915315E-01 -5.95686987E+00
 -1.59900683E+00 -2.40989918E+00 -2.40989918E+00 -1.02044880E+00 -2.40989918E+00
 -1.02044880E+00  2.06276436E+00 -2.95201260E+00  2.51012183E+00  2.76705626E+00
  2.86545667E+00  2.76705626E+00  2.86545667E+00 -1.59900683E+00  2.86545667E+00
  2.76705626E+00 -1.59900683E+00  8.03913209E-01  8.03913209E-01  8.03913209E-01
  2.65590022E+00 -7.92305604E+00 -7.92305604E+00 -2.95201260E+00  2.51012183E+00
 -7.92305604E+00 -2.95201260E+00  2.51012183E+00  2.06094213E+00  2.06094213E+00
  2.06094213E+00  2.06094213E+00  2.65590022E+00  2.06094213E+00  2.06094213E+00
  2.65590022E+00 -2.24932427E+00 -2.24932427E+00 -2.24932427E+00 -2.24932427E+00
 -2.24932427E+00 -2.24932427E+00 -2.24932427E+00 -2.24932427E+00 -2.24932427E+00
 -2.24932427E+00 -2.24932427E+00 -2.24932427E+00 -2.96680911E+00  2.69006704E+00
 -2.96680911E+00  2.69006704E+00  2.69006704E+00 -2.96680911E+00  2.69006704E+00
 -2.96680911E+00 -2.96680911E+00  2.69006704E+00 -2.96680911E+00  2.69006704E+00
 -2.96680911E+00  2.69006704E+00 -2.96680911E+00  2.69006704E+00 -2.96680911E+00
  2.69006704E+00 -2.96680911E+00  2.69006704E+00 -2.96680911E+00  2.69006704E+00
 -2.96680911E+00  2.69006704E+00  1.91971931E+00  2.64678908E+00  2.64678908E+00
  1.91971931E+00  2.64678908E+00  2.64678908E+00  2.64678908E+00  1.91971931E+00
  2.64678908E+00  1.91971931E+00  2.64678908E+00  2.64678908E+00  1.91971931E+00
  2.64678908E+00  2.64678908E+00  1.91971931E+00  2.64678908E+00  2.64678908E+00
 -5.95686987E+00 -5.95686987E+00 -5.95686987E+00 -5.95686987E+00 -5.95686987E+00
 -5.95686987E+00  2.06276436E+00  2.06276436E+00  2.06276436E+00  2.06276436E+00
  2.06276436E+00  2.06276436E+00  8.03913209E-01  8.03913209E-01  8.03913209E-01
  8.03913209E-01  8.03913209E-01  8.03913209E-01  8.03913209E-01  8.03913209E-01
  8.03913209E-01  8.03913209E-01  8.03913209E-01  8.03913209E-01  8.03913209E-01
  8.03913209E-01  8.03913209E-01  8.03913209E-01  8.03913209E-01  8.03913209E-01
 -5.95686987E+00  1.91971931E+00  2.06276436E+00 -2.96680911E+00 -2.96680911E+00
  8.03913209E-01  8.03913209E-01  8.03913209E-01 -2.24932427E+00  2.64678908E+00
 -2.24932427E+00  2.64678908E+00  2.06094213E+00  2.69006704E+00  2.69006704E+00
 -7.92305604E+00  2.76705626E+00  2.06094213E+00 -2.40989918E+00 -2.95201260E+00
 -2.24932427E+00 -2.24932427E+00 -9.84915315E-01  2.86545667E+00 -1.59900683E+00
  2.65590022E+00 -2.96680911E+00  2.69006704E+00 -2.96680911E+00  2.69006704E+00
 -1.02044880E+00  2.46365496E+00  2.51012183E+00  1.91971931E+00  2.64678908E+00
  2.64678908E+00 -1.02044880E+00 -9.84915315E-01 -9.84915315E-01 -9.84915315E-01
 -5.95686987E+00 -1.59900683E+00 -2.40989918E+00 -2.40989918E+00 -1.02044880E+00
 -2.40989918E+00 -1.02044880E+00  2.06276436E+00 -2.95201260E+00  2.51012183E+00
  2.76705626E+00  2.86545667E+00  2.76705626E+00  2.86545667E+00 -1.59900683E+00
  2.86545667E+00  2.76705626E+00 -1.59900683E+00  8.03913209E-01  8.03913209E-01
  8.03913209E-01  2.65590022E+00 -7.92305604E+00 -7.92305604E+00 -2.95201260E+00
  2.51012183E+00 -7.92305604E+00 -2.95201260E+00  2.51012183E+00  2.06094213E+00
  2.06094213E+00  2.06094213E+00  2.06094213E+00  2.65590022E+00  2.06094213E+00
  2.06094213E+00  2.65590022E+00 -2.24932427E+00 -2.24932427E+00 -2.24932427E+00
 -2.24932427E+00 -2.24932427E+00 -2.24932427E+00 -2.24932427E+00 -2.24932427E+00
 -2.24932427E+00 -2.24932427E+00 -2.24932427E+00 -2.24932427E+00 -2.96680911E+00
  2.69006704E+00 -2.96680911E+00  2.69006704E+00  2.69006704E+00 -2.96680911E+00
  2.69006704E+00 -2.96680911E+00 -2.96680911E+00  2.69006704E+00 -2.96680911E+00
  2.69006704E+00 -2.96680911E+00  2.69006704E+00 -2.96680911E+00  2.69006704E+00
 -2.96680911E+00  2.69006704E+00 -2.96680911E+00  2.69006704E+00 -2.96680911E+00
  2.69006704E+00 -2.96680911E+00  2.69006704E+00  1.91971931E+00  2.64678908E+00
  2.64678908E+00  1.91971931E+00  2.64678908E+00  2.64678908E+00  2.64678908E+00
  1.91971931E+00  2.64678908E+00  1.91971931E+00  2.64678908E+00  2.64678908E+00
  1.91971931E+00  2.64678908E+00  2.64678908E+00  1.91971931E+00  2.64678908E+00
  2.64678908E+00 -5.95686987E+00 -5.95686987E+00 -5.95686987E+00 -5.95686987E+00
 -5.95686987E+00 -5.95686987E+00  2.06276436E+00  2.06276436E+00  2.06276436E+00
  2.06276436E+00  2.06276436E+00  2.06276436E+00  8.03913209E-01  8.03913209E-01
  8.03913209E-01  8.03913209E-01  8.03913209E-01  8.03913209E-01  8.03913209E-01
  8.03913209E-01  8.03913209E-01  8.03913209E-01  8.03913209E-01  8.03913209E-01
  8.03913209E-01  8.03913209E-01  8.03913209E-01  8.03913209E-01  8.03913209E-01
  8.03913209E-01 -5.95686987E+00  1.91971931E+00  2.06276436E+00 -2.96680911E+00
 -2.96680911E+00  8.03913209E-01  8.03913209E-01  8.03913209E-01 -2.24932427E+00
  2.64678908E+00 -2.24932427E+00  2.64678908E+00  2.06094213E+00  2.69006704E+00
  2.69006704E+00 -7.92305604E+00  2.76705626E+00  2.06094213E+00 -2.40989918E+00
 -2.95201260E+00 -2.24932427E+00 -2.24932427E+00 -9.84915315E-01  2.86545667E+00
 -1.59900683E+00  2.65590022E+00 -2.96680911E+00  2.69006704E+00 -2.96680911E+00
  2.69006704E+00 -1.02044880E+00  2.46365496E+00  2.51012183E+00  1.91971931E+00
  2.64678908E+00  2.64678908E+00 -1.02044880E+00 -9.84915315E-01 -9.84915315E-01
 -9.84915315E-01 -5.95686987E+00 -1.59900683E+00 -2.40989918E+00 -2.40989918E+00
 -1.02044880E+00 -2.40989918E+00 -1.02044880E+00  2.06276436E+00 -2.95201260E+00
  2.51012183E+00  2.76705626E+00  2.86545667E+00  2.76705626E+00  2.86545667E+00
 -1.59900683E+00  2.86545667E+00  2.76705626E+00 -1.59900683E+00  8.03913209E-01
  8.03913209E-01  8.03913209E-01  2.65590022E+00 -7.92305604E+00 -7.92305604E+00
 -2.95201260E+00  2.51012183E+00 -7.92305604E+00 -2.95201260E+00  2.51012183E+00
  2.06094213E+00  2.06094213E+00  2.06094213E+00  2.06094213E+00  2.65590022E+00
  2.06094213E+00  2.06094213E+00  2.65590022E+00 -2.24932427E+00 -2.24932427E+00
 -2.24932427E+00 -2.24932427E+00 -2.24932427E+00 -2.24932427E+00 -2.24932427E+00
 -2.24932427E+00 -2.24932427E+00 -2.24932427E+00 -2.24932427E+00 -2.24932427E+00
 -2.96680911E+00  2.69006704E+00 -2.96680911E+00  2.69006704E+00  2.69006704E+00
 -2.96680911E+00  2.69006704E+00 -2.96680911E+00 -2.96680911E+00  2.69006704E+00
 -2.96680911E+00  2.69006704E+00 -2.96680911E+00  2.69006704E+00 -2.96680911E+00
  2.69006704E+00 -2.96680911E+00  2.69006704E+00 -2.96680911E+00  2.69006704E+00
 -2.96680911E+00  2.69006704E+00 -2.96680911E+00  2.69006704E+00  1.91971931E+00
  2.64678908E+00  2.64678908E+00  1.91971931E+00  2.64678908E+00  2.64678908E+00
  2.64678908E+00  1.91971931E+00  2.64678908E+00  1.91971931E+00  2.64678908E+00
  2.64678908E+00  1.91971931E+00  2.64678908E+00  2.64678908E+00  1.91971931E+00
  2.64678908E+00  2.64678908E+00 -5.95686987E+00 -5.95686987E+00 -5.95686987E+00
 -5.95686987E+00 -5.95686987E+00 -5.95686987E+00  2.06276436E+00  2.06276436E+00
  2.06276436E+00  2.06276436E+00  2.06276436E+00  2.06276436E+00  8.03913209E-01
  8.03913209E-01  8.03913209E-01  8.03913209E-01  8.03913209E-01  8.03913209E-01
  8.03913209E-01  8.03913209E-01  8.03913209E-01  8.03913209E-01  8.03913209E-01
  8.03913209E-01  8.03913209E-01  8.03913209E-01  8.03913209E-01  8.03913209E-01
  8.03913209E-01  8.03913209E-01 -5.95686987E+00  1.91971931E+00  2.06276436E+00
 -2.96680911E+00 -2.96680911E+00  8.03913209E-01  8.03913209E-01  8.03913209E-01
 -2.24932427E+00  2.64678908E+00 -2.24932427E+00  2.64678908E+00  2.06094213E+00
  2.69006704E+00  2.69006704E+00 -7.92305604E+00  2.76705626E+00  2.06094213E+00
 -2.40989918E+00 -2.95201260E+00 -2.24932427E+00 -2.24932427E+00 -9.84915315E-01
  2.86545667E+00 -1.59900683E+00  2.65590022E+00 -2.96680911E+00  2.69006704E+00
 -2.96680911E+00  2.69006704E+00 -1.02044880E+00  2.46365496E+00  2.51012183E+00
  1.91971931E+00  2.64678908E+00  2.64678908E+00 -1.02044880E+00 -9.84915315E-01
 -9.84915315E-01 -9.84915315E-01 -5.95686987E+00 -1.59900683E+00 -2.40989918E+00
 -2.40989918E+00 -1.02044880E+00 -2.40989918E+00 -1.02044880E+00  2.06276436E+00
 -2.95201260E+00  2.51012183E+00  2.76705626E+00  2.86545667E+00  2.76705626E+00
  2.86545667E+00 -1.59900683E+00  2.86545667E+00  2.76705626E+00 -1.59900683E+00
  8.03913209E-01  8.03913209E-01  8.03913209E-01  2.65590022E+00 -7.92305604E+00
 -7.92305604E+00 -2.95201260E+00  2.51012183E+00 -7.92305604E+00 -2.95201260E+00
  2.51012183E+00  2.06094213E+00  2.06094213E+00  2.06094213E+00  2.06094213E+00
  2.65590022E+00  2.06094213E+00  2.06094213E+00  2.65590022E+00 -2.24932427E+00
 -2.24932427E+00 -2.24932427E+00 -2.24932427E+00 -2.24932427E+00 -2.24932427E+00
 -2.24932427E+00 -2.24932427E+00 -2.24932427E+00 -2.24932427E+00 -2.24932427E+00
 -2.24932427E+00 -2.96680911E+00  2.69006704E+00 -2.96680911E+00  2.69006704E+00
  2.69006704E+00 -2.96680911E+00  2.69006704E+00 -2.96680911E+00 -2.96680911E+00
  2.69006704E+00 -2.96680911E+00  2.69006704E+00 -2.96680911E+00  2.69006704E+00
 -2.96680911E+00  2.69006704E+00 -2.96680911E+00  2.69006704E+00 -2.96680911E+00
  2.69006704E+00 -2.96680911E+00  2.69006704E+00 -2.96680911E+00  2.69006704E+00
  1.91971931E+00  2.64678908E+00  2.64678908E+00  1.91971931E+00  2.64678908E+00
  2.64678908E+00  2.64678908E+00  1.91971931E+00  2.64678908E+00  1.91971931E+00
  2.64678908E+00  2.64678908E+00  1.91971931E+00  2.64678908E+00  2.64678908E+00
  1.91971931E+00  2.64678908E+00  2.64678908E+00 -5.95686987E+00 -5.95686987E+00
 -5.95686987E+00 -5.95686987E+00 -5.95686987E+00 -5.95686987E+00  2.06276436E+00
  2.06276436E+00  2.06276436E+00  2.06276436E+00  2.06276436E+00  2.06276436E+00
  8.03913209E-01  8.03913209E-01  8.03913209E-01  8.03913209E-01  8.03913209E-01
  8.03913209E-01  8.03913209E-01  8.03913209E-01  8.03913209E-01  8.03913209E-01
  8.03913209E-01  8.03913209E-01  8.03913209E-01  8.03913209E-01  8.03913209E-01
  8.03913209E-01  8.03913209E-01  8.03913209E-01 -5.95686987E+00  1.91971931E+00
  2.06276436E+00 -2.96680911E+00 -2.96680911E+00  8.03913209E-01  8.03913209E-01
  8.03913209E-01 -2.24932427E+00  2.64678908E+00 -2.24932427E+00  2.64678908E+00
  2.06094213E+00  2.69006704E+00  2.69006704E+00 -7.92305604E+00  2.76705626E+00
  2.06094213E+00 -2.40989918E+00 -2.95201260E+00 -2.24932427E+00 -2.24932427E+00
 -9.84915315E-01  2.86545667E+00 -1.59900683E+00  2.65590022E+00 -2.96680911E+00
  2.69006704E+00 -2.96680911E+00  2.69006704E+00 -1.02044880E+00  2.46365496E+00
  2.51012183E+00  1.91971931E+00  2.64678908E+00  2.64678908E+00 -1.02044880E+00
 -9.84915315E-01 -9.84915315E-01 -9.84915315E-01 -5.95686987E+00 -1.59900683E+00
 -2.40989918E+00 -2.40989918E+00 -1.02044880E+00 -2.40989918E+00 -1.02044880E+00
  2.06276436E+00 -2.95201260E+00  2.51012183E+00  2.76705626E+00  2.86545667E+00
  2.76705626E+00  2.86545667E+00 -1.59900683E+00  2.86545667E+00  2.76705626E+00
 -1.59900683E+00  8.03913209E-01  8.03913209E-01  8.03913209E-01  2.65590022E+00
 -7.92305604E+00 -7.92305604E+00 -2.95201260E+00  2.51012183E+00 -7.92305604E+00
 -2.95201260E+00  2.51012183E+00  2.06094213E+00  2.06094213E+00  2.06094213E+00
  2.06094213E+00  2.65590022E+00  2.06094213E+00  2.06094213E+00  2.65590022E+00
 -2.24932427E+00 -2.24932427E+00 -2.24932427E+00 -2.24932427E+00 -2.24932427E+00
 -2.24932427E+00 -2.24932427E+00 -2.24932427E+00 -2.24932427E+00 -2.24932427E+00
 -2.24932427E+00 -2.24932427E+00 -2.96680911E+00  2.69006704E+00 -2.96680911E+00
  2.69006704E+00  2.69006704E+00 -2.96680911E+00  2.69006704E+00 -2.96680911E+00
 -2.96680911E+00  2.69006704E+00 -2.96680911E+00  2.69006704E+00 -2.96680911E+00
  2.69006704E+00 -2.96680911E+00  2.69006704E+00 -2.96680911E+00  2.69006704E+00
 -2.96680911E+00  2.69006704E+00 -2.96680911E+00  2.69006704E+00 -2.96680911E+00
  2.69006704E+00  1.91971931E+00  2.64678908E+00  2.64678908E+00  1.91971931E+00
  2.64678908E+00  2.64678908E+00  2.64678908E+00  1.91971931E+00  2.64678908E+00
  1.91971931E+00  2.64678908E+00  2.64678908E+00  1.91971931E+00  2.64678908E+00
  2.64678908E+00  1.91971931E+00  2.64678908E+00  2.64678908E+00 -5.95686987E+00
 -5.95686987E+00 -5.95686987E+00 -5.95686987E+00 -5.95686987E+00 -5.95686987E+00
  2.06276436E+00  2.06276436E+00  2.06276436E+00  2.06276436E+00  2.06276436E+00
  2.06276436E+00  8.03913209E-01  8.03913209E-01  8.03913209E-01  8.03913209E-01
  8.03913209E-01  8.03913209E-01  8.03913209E-01  8.03913209E-01  8.03913209E-01
  8.03913209E-01  8.03913209E-01  8.03913209E-01  8.03913209E-01  8.03913209E-01
  8.03913209E-01  8.03913209E-01  8.03913209E-01  8.03913209E-01 -5.95686987E+00
  1.91971931E+00  2.06276436E+00 -2.96680911E+00 -2.96680911E+00  8.03913209E-01
  8.03913209E-01  8.03913209E-01 -2.24932427E+00  2.64678908E+00 -2.24932427E+00
  2.64678908E+00  2.06094213E+00  2.69006704E+00  2.69006704E+00 -7.92305604E+00
  2.76705626E+00  2.06094213E+00 -2.40989918E+00 -2.95201260E+00 -2.24932427E+00
 -2.24932427E+00 -9.84915315E-01  2.86545667E+00 -1.59900683E+00  2.65590022E+00
 -2.96680911E+00  2.69006704E+00 -2.96680911E+00  2.69006704E+00 -1.02044880E+00
  2.46365496E+00  2.51012183E+00  1.91971931E+00  2.64678908E+00  2.64678908E+00
 -1.02044880E+00 -9.84915315E-01 -9.84915315E-01 -9.84915315E-01 -5.95686987E+00
 -1.59900683E+00 -2.40989918E+00 -2.40989918E+00 -1.02044880E+00 -2.40989918E+00
 -1.02044880E+00  2.06276436E+00 -2.95201260E+00  2.51012183E+00  2.76705626E+00
  2.86545667E+00  2.76705626E+00  2.86545667E+00 -1.59900683E+00  2.86545667E+00
  2.76705626E+00 -1.59900683E+00  8.03913209E-01  8.03913209E-01  8.03913209E-01
  2.65590022E+00 -7.92305604E+00 -7.92305604E+00 -2.95201260E+00  2.51012183E+00
 -7.92305604E+00 -2.95201260E+00  2.51012183E+00  2.06094213E+00  2.06094213E+00
  2.06094213E+00  2.06094213E+00  2.65590022E+00  2.06094213E+00  2.06094213E+00
  2.65590022E+00 -2.24932427E+00 -2.24932427E+00 -2.24932427E+00 -2.24932427E+00
 -2.24932427E+00 -2.24932427E+00 -2.24932427E+00 -2.24932427E+00 -2.24932427E+00
 -2.24932427E+00 -2.24932427E+00 -2.24932427E+00 -2.96680911E+00  2.69006704E+00
 -2.96680911E+00  2.69006704E+00  2.69006704E+00 -2.96680911E+00  2.69006704E+00
 -2.96680911E+00 -2.96680911E+00  2.69006704E+00 -2.96680911E+00  2.69006704E+00
 -2.96680911E+00  2.69006704E+00 -2.96680911E+00  2.69006704E+00 -2.96680911E+00
  2.69006704E+00 -2.96680911E+00  2.69006704E+00 -2.96680911E+00  2.69006704E+00
 -2.96680911E+00  2.69006704E+00  1.91971931E+00  2.64678908E+00  2.64678908E+00
  1.91971931E+00  2.64678908E+00  2.64678908E+00  2.64678908E+00  1.91971931E+00
  2.64678908E+00  1.91971931E+00  2.64678908E+00  2.64678908E+00  1.91971931E+00
  2.64678908E+00  2.64678908E+00  1.91971931E+00  2.64678908E+00  2.64678908E+00
 -5.95686987E+00 -5.95686987E+00 -5.95686987E+00 -5.95686987E+00 -5.95686987E+00
 -5.95686987E+00  2.06276436E+00  2.06276436E+00  2.06276436E+00  2.06276436E+00
  2.06276436E+00  2.06276436E+00  8.03913209E-01  8.03913209E-01  8.03913209E-01
  8.03913209E-01  8.03913209E-01  8.03913209E-01  8.03913209E-01  8.03913209E-01
  8.03913209E-01  8.03913209E-01  8.03913209E-01  8.03913209E-01  8.03913209E-01
  8.03913209E-01  8.03913209E-01  8.03913209E-01  8.03913209E-01  8.03913209E-01
 -5.95686987E+00  1.91971931E+00  2.06276436E+00 -2.96680911E+00 -2.96680911E+00
  8.03913209E-01  8.03913209E-01  8.03913209E-01 -2.24932427E+00  2.64678908E+00
 -2.24932427E+00  2.64678908E+00  2.06094213E+00  2.69006704E+00  2.69006704E+00
 -7.92305604E+00  2.76705626E+00  2.06094213E+00 -2.40989918E+00 -2.95201260E+00
 -2.24932427E+00 -2.24932427E+00 -9.84915315E-01  2.86545667E+00 -1.59900683E+00
  2.65590022E+00 -2.96680911E+00  2.69006704E+00 -2.96680911E+00  2.69006704E+00
 -1.02044880E+00  2.46365496E+00  2.51012183E+00  1.91971931E+00  2.64678908E+00
  2.64678908E+00 -1.02044880E+00 -9.84915315E-01 -9.84915315E-01 -9.84915315E-01
 -5.95686987E+00 -1.59900683E+00 -2.40989918E+00 -2.40989918E+00 -1.02044880E+00
 -2.40989918E+00 -1.02044880E+00  2.06276436E+00 -2.95201260E+00  2.51012183E+00
  2.76705626E+00  2.86545667E+00  2.76705626E+00  2.86545667E+00 -1.59900683E+00
  2.86545667E+00  2.76705626E+00 -1.59900683E+00  8.03913209E-01  8.03913209E-01
  8.03913209E-01  2.65590022E+00 -7.92305604E+00 -7.92305604E+00 -2.95201260E+00
  2.51012183E+00 -7.92305604E+00 -2.95201260E+00  2.51012183E+00  2.06094213E+00
  2.06094213E+00  2.06094213E+00  2.06094213E+00  2.65590022E+00  2.06094213E+00
  2.06094213E+00  2.65590022E+00 -2.24932427E+00 -2.24932427E+00 -2.24932427E+00
 -2.24932427E+00 -2.24932427E+00 -2.24932427E+00 -2.24932427E+00 -2.24932427E+00
 -2.24932427E+00 -2.24932427E+00 -2.24932427E+00 -2.24932427E+00 -2.96680911E+00
  2.69006704E+00 -2.96680911E+00  2.69006704E+00  2.69006704E+00 -2.96680911E+00
  2.69006704E+00 -2.96680911E+00 -2.96680911E+00  2.69006704E+00 -2.96680911E+00
  2.69006704E+00 -2.96680911E+00  2.69006704E+00 -2.96680911E+00  2.69006704E+00
 -2.96680911E+00  2.69006704E+00 -2.96680911E+00  2.69006704E+00 -2.96680911E+00
  2.69006704E+00 -2.96680911E+00  2.69006704E+00  1.91971931E+00  2.64678908E+00
  2.64678908E+00  1.91971931E+00  2.64678908E+00  2.64678908E+00  2.64678908E+00
  1.91971931E+00  2.64678908E+00  1.91971931E+00  2.64678908E+00  2.64678908E+00
  1.91971931E+00  2.64678908E+00  2.64678908E+00  1.91971931E+00  2.64678908E+00
  2.64678908E+00 -5.95686987E+00 -5.95686987E+00 -5.95686987E+00 -5.95686987E+00
 -5.95686987E+00 -5.95686987E+00  2.06276436E+00  2.06276436E+00  2.06276436E+00
  2.06276436E+00  2.06276436E+00  2.06276436E+00  8.03913209E-01  8.03913209E-01
  8.03913209E-01  8.03913209E-01  8.03913209E-01  8.03913209E-01  8.03913209E-01
  8.03913209E-01  8.03913209E-01  8.03913209E-01  8.03913209E-01  8.03913209E-01
  8.03913209E-01  8.03913209E-01  8.03913209E-01  8.03913209E-01  8.03913209E-01
  8.03913209E-01 -5.95686987E+00  1.91971931E+00  2.06276436E+00 -2.96680911E+00
 -2.96680911E+00  8.03913209E-01  8.03913209E-01  8.03913209E-01 -2.24932427E+00
  2.64678908E+00 -2.24932427E+00  2.64678908E+00  2.06094213E+00  2.69006704E+00
  2.69006704E+00 -7.92305604E+00  2.76705626E+00  2.06094213E+00 -2.40989918E+00
 -2.95201260E+00 -2.24932427E+00 -2.24932427E+00 -9.84915315E-01  2.86545667E+00
 -1.59900683E+00  2.65590022E+00 -2.96680911E+00  2.69006704E+00 -2.96680911E+00
  2.69006704E+00 -1.02044880E+00  2.46365496E+00  2.51012183E+00  1.91971931E+00
  2.64678908E+00  2.64678908E+00 -1.02044880E+00 -9.84915315E-01 -9.84915315E-01
 -9.84915315E-01 -5.95686987E+00 -1.59900683E+00 -2.40989918E+00 -2.40989918E+00
 -1.02044880E+00 -2.40989918E+00 -1.02044880E+00  2.06276436E+00 -2.95201260E+00
  2.51012183E+00  2.76705626E+00  2.86545667E+00  2.76705626E+00  2.86545667E+00
 -1.59900683E+00  2.86545667E+00  2.76705626E+00 -1.59900683E+00  8.03913209E-01
  8.03913209E-01  8.03913209E-01  2.65590022E+00 -7.92305604E+00 -7.92305604E+00
 -2.95201260E+00  2.51012183E+00 -7.92305604E+00 -2.95201260E+00  2.51012183E+00
  2.06094213E+00  2.06094213E+00  2.06094213E+00  2.06094213E+00  2.65590022E+00
  2.06094213E+00  2.06094213E+00  2.65590022E+00 -2.24932427E+00 -2.24932427E+00
 -2.24932427E+00 -2.24932427E+00 -2.24932427E+00 -2.24932427E+00 -2.24932427E+00
 -2.24932427E+00 -2.24932427E+00 -2.24932427E+00 -2.24932427E+00 -2.24932427E+00
 -2.96680911E+00  2.69006704E+00 -2.96680911E+00  2.69006704E+00  2.69006704E+00
 -2.96680911E+00  2.69006704E+00 -2.96680911E+00 -2.96680911E+00  2.69006704E+00
 -2.96680911E+00  2.69006704E+00 -2.96680911E+00  2.69006704E+00 -2.96680911E+00
  2.69006704E+00 -2.96680911E+00  2.69006704E+00 -2.96680911E+00  2.69006704E+00
 -2.96680911E+00  2.69006704E+00 -2.96680911E+00  2.69006704E+00  1.91971931E+00
  2.64678908E+00  2.64678908E+00  1.91971931E+00  2.64678908E+00  2.64678908E+00
  2.64678908E+00  1.91971931E+00  2.64678908E+00  1.91971931E+00  2.64678908E+00
  2.64678908E+00  1.91971931E+00  2.64678908E+00  2.64678908E+00  1.91971931E+00
  2.64678908E+00  2.64678908E+00 -5.95686987E+00 -5.95686987E+00 -5.95686987E+00
 -5.95686987E+00 -5.95686987E+00 -5.95686987E+00  2.06276436E+00  2.06276436E+00
  2.06276436E+00  2.06276436E+00  2.06276436E+00  2.06276436E+00  8.03913209E-01
  8.03913209E-01  8.03913209E-01  8.03913209E-01  8.03913209E-01  8.03913209E-01
  8.03913209E-01  8.03913209E-01  8.03913209E-01  8.03913209E-01  8.03913209E-01
  8.03913209E-01  8.03913209E-01  8.03913209E-01  8.03913209E-01  8.03913209E-01
  8.03913209E-01  8.03913209E-01 -5.95686987E+00  1.91971931E+00  2.06276436E+00
 -2.96680911E+00 -2.96680911E+00  8.03913209E-01  8.03913209E-01  8.03913209E-01
 -2.24932427E+00  2.64678908E+00 -2.24932427E+00  2.64678908E+00  2.06094213E+00
  2.69006704E+00  2.69006704E+00 -7.92305604E+00  2.76705626E+00  2.06094213E+00
 -2.40989918E+00 -2.95201260E+00 -2.24932427E+00 -2.24932427E+00 -9.84915315E-01
  2.86545667E+00 -1.59900683E+00  2.65590022E+00 -2.96680911E+00  2.69006704E+00
 -2.96680911E+00  2.69006704E+00 -1.02044880E+00  2.46365496E+00  2.51012183E+00
  1.91971931E+00  2.64678908E+00  2.64678908E+00 -1.02044880E+00 -9.84915315E-01
 -9.84915315E-01 -9.84915315E-01 -5.95686987E+00 -1.59900683E+00 -2.40989918E+00
 -2.40989918E+00 -1.02044880E+00 -2.40989918E+00 -1.02044880E+00  2.06276436E+00
 -2.95201260E+00  2.51012183E+00  2.76705626E+00  2.86545667E+00  2.76705626E+00
  2.86545667E+00 -1.59900683E+00  2.86545667E+00  2.76705626E+00 -1.59900683E+00
  8.03913209E-01  8.03913209E-01  8.03913209E-01  2.65590022E+00 -7.92305604E+00
 -7.92305604E+00 -2.95201260E+00  2.51012183E+00 -7.92305604E+00 -2.95201260E+00
  2.51012183E+00  2.06094213E+00  2.06094213E+00  2.06094213E+00  2.06094213E+00
  2.65590022E+00  2.06094213E+00  2.06094213E+00  2.65590022E+00 -2.24932427E+00
 -2.24932427E+00 -2.24932427E+00 -2.24932427E+00 -2.24932427E+00 -2.24932427E+00
 -2.24932427E+00 -2.24932427E+00 -2.24932427E+00 -2.24932427E+00 -2.24932427E+00
 -2.24932427E+00 -2.96680911E+00  2.69006704E+00 -2.96680911E+00  2.69006704E+00
  2.69006704E+00 -2.96680911E+00  2.69006704E+00 -2.96680911E+00 -2.96680911E+00
  2.69006704E+00 -2.96680911E+00  2.69006704E+00 -2.96680911E+00  2.69006704E+00
 -2.96680911E+00  2.69006704E+00 -2.96680911E+00  2.69006704E+00 -2.96680911E+00
  2.69006704E+00 -2.96680911E+00  2.69006704E+00 -2.96680911E+00  2.69006704E+00
  1.91971931E+00  2.64678908E+00  2.64678908E+00  1.91971931E+00  2.64678908E+00
  2.64678908E+00  2.64678908E+00  1.91971931E+00  2.64678908E+00  1.91971931E+00
  2.64678908E+00  2.64678908E+00  1.91971931E+00  2.64678908E+00  2.64678908E+00
  1.91971931E+00  2.64678908E+00  2.64678908E+00 -5.95686987E+00 -5.95686987E+00
 -5.95686987E+00 -5.95686987E+00 -5.95686987E+00 -5.95686987E+00  2.06276436E+00
  2.06276436E+00  2.06276436E+00  2.06276436E+00  2.06276436E+00  2.06276436E+00
  8.03913209E-01  8.03913209E-01  8.03913209E-01  8.03913209E-01  8.03913209E-01
  8.03913209E-01  8.03913209E-01  8.03913209E-01  8.03913209E-01  8.03913209E-01
  8.03913209E-01  8.03913209E-01  8.03913209E-01  8.03913209E-01  8.03913209E-01
  8.03913209E-01  8.03913209E-01  8.03913209E-01 -5.95686987E+00  1.91971931E+00
  2.06276436E+00 -2.96680911E+00 -2.96680911E+00  8.03913209E-01  8.03913209E-01
  8.03913209E-01 -2.24932427E+00  2.64678908E+00 -2.24932427E+00  2.64678908E+00
  2.06094213E+00  2.69006704E+00  2.69006704E+00 -7.92305604E+00  2.76705626E+00
  2.06094213E+00 -2.40989918E+00 -2.95201260E+00 -2.24932427E+00 -2.24932427E+00
 -9.84915315E-01  2.86545667E+00 -1.59900683E+00  2.65590022E+00 -2.96680911E+00
  2.69006704E+00 -2.96680911E+00  2.69006704E+00 -1.02044880E+00  2.46365496E+00
  2.51012183E+00  1.91971931E+00  2.64678908E+00  2.64678908E+00 -1.02044880E+00
 -9.84915315E-01 -9.84915315E-01 -9.84915315E-01 -5.95686987E+00 -1.59900683E+00
 -2.40989918E+00 -2.40989918E+00 -1.02044880E+00 -2.40989918E+00 -1.02044880E+00
  2.06276436E+00 -2.95201260E+00  2.51012183E+00  2.76705626E+00  2.86545667E+00
  2.76705626E+00  2.86545667E+00 -1.59900683E+00  2.86545667E+00  2.76705626E+00
 -1.59900683E+00  8.03913209E-01  8.03913209E-01  8.03913209E-01  2.65590022E+00
 -7.92305604E+00 -7.92305604E+00 -2.95201260E+00  2.51012183E+00 -7.92305604E+00
 -2.95201260E+00  2.51012183E+00  2.06094213E+00  2.06094213E+00  2.06094213E+00
  2.06094213E+00  2.65590022E+00  2.06094213E+00  2.06094213E+00  2.65590022E+00
 -2.24932427E+00 -2.24932427E+00 -2.24932427E+00 -2.24932427E+00 -2.24932427E+00
 -2.24932427E+00 -2.24932427E+00 -2.24932427E+00 -2.24932427E+00 -2.24932427E+00
 -2.24932427E+00 -2.24932427E+00 -2.96680911E+00  2.69006704E+00 -2.96680911E+00
  2.69006704E+00  2.69006704E+00 -2.96680911E+00  2.69006704E+00 -2.96680911E+00
 -2.96680911E+00  2.69006704E+00 -2.96680911E+00  2.69006704E+00 -2.96680911E+00
  2.69006704E+00 -2.96680911E+00  2.69006704E+00 -2.96680911E+00  2.69006704E+00
 -2.96680911E+00  2.69006704E+00 -2.96680911E+00  2.69006704E+00 -2.96680911E+00
  2.69006704E+00  1.91971931E+00  2.64678908E+00  2.64678908E+00  1.91971931E+00
  2.64678908E+00  2.64678908E+00  2.64678908E+00  1.91971931E+00  2.64678908E+00
  1.91971931E+00  2.64678908E+00  2.64678908E+00  1.91971931E+00  2.64678908E+00
  2.64678908E+00  1.91971931E+00  2.64678908E+00  2.64678908E+00 -5.95686987E+00
 -5.95686987E+00 -5.95686987E+00 -5.95686987E+00 -5.95686987E+00 -5.95686987E+00
  2.06276436E+00  2.06276436E+00  2.06276436E+00  2.06276436E+00  2.06276436E+00
  2.06276436E+00  8.03913209E-01  8.03913209E-01  8.03913209E-01  8.03913209E-01
  8.03913209E-01  8.03913209E-01  8.03913209E-01  8.03913209E-01  8.03913209E-01
  8.03913209E-01  8.03913209E-01  8.03913209E-01  8.03913209E-01  8.03913209E-01
  8.03913209E-01  8.03913209E-01  8.03913209E-01  8.03913209E-01 -5.95686987E+00
  1.91971931E+00  2.06276436E+00 -2.96680911E+00 -2.96680911E+00  8.03913209E-01
  8.03913209E-01  8.03913209E-01 -2.24932427E+00  2.64678908E+00 -2.24932427E+00
  2.64678908E+00  2.06094213E+00  2.69006704E+00  2.69006704E+00 -7.92305604E+00
  2.76705626E+00  2.06094213E+00 -2.40989918E+00 -2.95201260E+00 -2.24932427E+00
 -2.24932427E+00 -9.84915315E-01  2.86545667E+00 -1.59900683E+00  2.65590022E+00
 -2.96680911E+00  2.69006704E+00 -2.96680911E+00  2.69006704E+00 -1.02044880E+00
  2.46365496E+00  2.51012183E+00  1.91971931E+00  2.64678908E+00  2.64678908E+00
 -1.02044880E+00 -9.84915315E-01 -9.84915315E-01 -9.84915315E-01 -5.95686987E+00
 -1.59900683E+00 -2.40989918E+00 -2.40989918E+00 -1.02044880E+00 -2.40989918E+00
 -1.02044880E+00  2.06276436E+00 -2.95201260E+00  2.51012183E+00  2.76705626E+00
  2.86545667E+00  2.76705626E+00  2.86545667E+00 -1.59900683E+00  2.86545667E+00
  2.76705626E+00 -1.59900683E+00  8.03913209E-01  8.03913209E-01  8.03913209E-01
  2.65590022E+00 -7.92305604E+00 -7.92305604E+00 -2.95201260E+00  2.51012183E+00
 -7.92305604E+00 -2.95201260E+00  2.51012183E+00  2.06094213E+00  2.06094213E+00
  2.06094213E+00  2.06094213E+00  2.65590022E+00  2.06094213E+00  2.06094213E+00
  2.65590022E+00 -2.24932427E+00 -2.24932427E+00 -2.24932427E+00 -2.24932427E+00
 -2.24932427E+00 -2.24932427E+00 -2.24932427E+00 -2.24932427E+00 -2.24932427E+00
 -2.24932427E+00 -2.24932427E+00 -2.24932427E+00 -2.96680911E+00  2.69006704E+00
 -2.96680911E+00  2.69006704E+00  2.69006704E+00 -2.96680911E+00  2.69006704E+00
 -2.96680911E+00 -2.96680911E+00  2.69006704E+00 -2.96680911E+00  2.69006704E+00
 -2.96680911E+00  2.69006704E+00 -2.96680911E+00  2.69006704E+00 -2.96680911E+00
  2.69006704E+00 -2.96680911E+00  2.69006704E+00 -2.96680911E+00  2.69006704E+00
 -2.96680911E+00  2.69006704E+00  1.91971931E+00  2.64678908E+00  2.64678908E+00
  1.91971931E+00  2.64678908E+00  2.64678908E+00  2.64678908E+00  1.91971931E+00
  2.64678908E+00  1.91971931E+00  2.64678908E+00  2.64678908E+00  1.91971931E+00
  2.64678908E+00  2.64678908E+00  1.91971931E+00  2.64678908E+00  2.64678908E+00
 -5.95686987E+00 -5.95686987E+00 -5.95686987E+00 -5.95686987E+00 -5.95686987E+00
 -5.95686987E+00  2.06276436E+00  2.06276436E+00  2.06276436E+00  2.06276436E+00
  2.06276436E+00  2.06276436E+00  8.03913209E-01  8.03913209E-01  8.03913209E-01
  8.03913209E-01  8.03913209E-01  8.03913209E-01  8.03913209E-01  8.03913209E-01
  8.03913209E-01  8.03913209E-01  8.03913209E-01  8.03913209E-01  8.03913209E-01
  8.03913209E-01  8.03913209E-01  8.03913209E-01  8.03913209E-01  8.03913209E-01
 -5.95686987E+00  1.91971931E+00  2.06276436E+00 -2.96680911E+00 -2.96680911E+00
  8.03913209E-01  8.03913209E-01  8.03913209E-01 -2.24932427E+00  2.64678908E+00
 -2.24932427E+00  2.64678908E+00  2.06094213E+00  2.69006704E+00  2.69006704E+00
 -7.92305604E+00  2.76705626E+00  2.06094213E+00 -2.40989918E+00 -2.95201260E+00
 -2.24932427E+00 -2.24932427E+00 -9.84915315E-01  2.86545667E+00 -1.59900683E+00
  2.65590022E+00 -2.96680911E+00  2.69006704E+00 -2.96680911E+00  2.69006704E+00
 -1.02044880E+00  2.46365496E+00  2.51012183E+00  1.91971931E+00  2.64678908E+00
  2.64678908E+00 -1.02044880E+00 -9.84915315E-01 -9.84915315E-01 -9.84915315E-01
 -5.95686987E+00 -1.59900683E+00 -2.40989918E+00 -2.40989918E+00 -1.02044880E+00
 -2.40989918E+00 -1.02044880E+00  2.06276436E+00 -2.95201260E+00  2.51012183E+00
  2.76705626E+00  2.86545667E+00  2.76705626E+00  2.86545667E+00 -1.59900683E+00
  2.86545667E+00  2.76705626E+00 -1.59900683E+00  8.03913209E-01  8.03913209E-01
  8.03913209E-01  2.65590022E+00 -7.92305604E+00 -7.92305604E+00 -2.95201260E+00
  2.51012183E+00 -7.92305604E+00 -2.95201260E+00  2.51012183E+00  2.06094213E+00
  2.06094213E+00  2.06094213E+00  2.06094213E+00  2.65590022E+00  2.06094213E+00
  2.06094213E+00  2.65590022E+00 -2.24932427E+00 -2.24932427E+00 -2.24932427E+00
 -2.24932427E+00 -2.24932427E+00 -2.24932427E+00 -2.24932427E+00 -2.24932427E+00
 -2.24932427E+00 -2.24932427E+00 -2.24932427E+00 -2.24932427E+00 -2.96680911E+00
  2.69006704E+00 -2.96680911E+00  2.69006704E+00  2.69006704E+00 -2.96680911E+00
  2.69006704E+00 -2.96680911E+00 -2.96680911E+00  2.69006704E+00 -2.96680911E+00
  2.69006704E+00 -2.96680911E+00  2.69006704E+00 -2.96680911E+00  2.69006704E+00
 -2.96680911E+00  2.69006704E+00 -2.96680911E+00  2.69006704E+00 -2.96680911E+00
  2.69006704E+00 -2.96680911E+00  2.69006704E+00  1.91971931E+00  2.64678908E+00
  2.64678908E+00  1.91971931E+00  2.64678908E+00  2.64678908E+00  2.64678908E+00
  1.91971931E+00  2.64678908E+00  1.91971931E+00  2.64678908E+00  2.64678908E+00
  1.91971931E+00  2.64678908E+00  2.64678908E+00  1.91971931E+00  2.64678908E+00
  2.64678908E+00 -5.95686987E+00 -5.95686987E+00 -5.95686987E+00 -5.95686987E+00
 -5.95686987E+00 -5.95686987E+00  2.06276436E+00  2.06276436E+00  2.06276436E+00
  2.06276436E+00  2.06276436E+00  2.06276436E+00  8.03913209E-01  8.03913209E-01
  8.03913209E-01  8.03913209E-01  8.03913209E-01  8.03913209E-01  8.03913209E-01
  8.03913209E-01  8.03913209E-01  8.03913209E-01  8.03913209E-01  8.03913209E-01
  8.03913209E-01  8.03913209E-01  8.03913209E-01  8.03913209E-01  8.03913209E-01
  8.03913209E-01 -5.95686987E+00  1.91971931E+00  2.06276436E+00 -2.96680911E+00
 -2.96680911E+00  8.03913209E-01  8.03913209E-01  8.03913209E-01 -2.24932427E+00
  2.64678908E+00 -2.24932427E+00  2.64678908E+00  2.06094213E+00  2.69006704E+00
  2.69006704E+00 -7.92305604E+00  2.76705626E+00  2.06094213E+00 -2.40989918E+00
 -2.95201260E+00 -2.24932427E+00 -2.24932427E+00 -9.84915315E-01  2.86545667E+00
 -1.59900683E+00  2.65590022E+00 -2.96680911E+00  2.69006704E+00 -2.96680911E+00
  2.69006704E+00 -1.02044880E+00  2.46365496E+00  2.51012183E+00  1.91971931E+00
  2.64678908E+00  2.64678908E+00 -1.02044880E+00 -9.84915315E-01 -9.84915315E-01
 -9.84915315E-01 -5.95686987E+00 -1.59900683E+00 -2.40989918E+00 -2.40989918E+00
 -1.02044880E+00 -2.40989918E+00 -1.02044880E+00  2.06276436E+00 -2.95201260E+00
  2.51012183E+00  2.76705626E+00  2.86545667E+00  2.76705626E+00  2.86545667E+00
 -1.59900683E+00  2.86545667E+00  2.76705626E+00 -1.59900683E+00  8.03913209E-01
  8.03913209E-01  8.03913209E-01  2.65590022E+00 -7.92305604E+00 -7.92305604E+00
 -2.95201260E+00  2.51012183E+00 -7.92305604E+00 -2.95201260E+00  2.51012183E+00
  2.06094213E+00  2.06094213E+00  2.06094213E+00  2.06094213E+00  2.65590022E+00
  2.06094213E+00  2.06094213E+00  2.65590022E+00 -2.24932427E+00 -2.24932427E+00
 -2.24932427E+00 -2.24932427E+00 -2.24932427E+00 -2.24932427E+00 -2.24932427E+00
 -2.24932427E+00 -2.24932427E+00 -2.24932427E+00 -2.24932427E+00 -2.24932427E+00
 -2.96680911E+00  2.69006704E+00 -2.96680911E+00  2.69006704E+00  2.69006704E+00
 -2.96680911E+00  2.69006704E+00 -2.96680911E+00 -2.96680911E+00  2.69006704E+00
 -2.96680911E+00  2.69006704E+00 -2.96680911E+00  2.69006704E+00 -2.96680911E+00
  2.69006704E+00 -2.96680911E+00  2.69006704E+00 -2.96680911E+00  2.69006704E+00
 -2.96680911E+00  2.69006704E+00 -2.96680911E+00  2.69006704E+00  1.91971931E+00
  2.64678908E+00  2.64678908E+00  1.91971931E+00  2.64678908E+00  2.64678908E+00
  2.64678908E+00  1.91971931E+00  2.64678908E+00  1.91971931E+00  2.64678908E+00
  2.64678908E+00  1.91971931E+00  2.64678908E+00  2.64678908E+00  1.91971931E+00
  2.64678908E+00  2.64678908E+00 -5.95686987E+00 -5.95686987E+00 -5.95686987E+00
 -5.95686987E+00 -5.95686987E+00 -5.95686987E+00  2.06276436E+00  2.06276436E+00
  2.06276436E+00  2.06276436E+00  2.06276436E+00  2.06276436E+00  8.03913209E-01
  8.03913209E-01  8.03913209E-01  8.03913209E-01  8.03913209E-01  8.03913209E-01
  8.03913209E-01  8.03913209E-01  8.03913209E-01  8.03913209E-01  8.03913209E-01
  8.03913209E-01  8.03913209E-01  8.03913209E-01  8.03913209E-01  8.03913209E-01
  8.03913209E-01  8.03913209E-01 -5.95686987E+00  1.91971931E+00  2.06276436E+00
 -2.96680911E+00 -2.96680911E+00  8.03913209E-01  8.03913209E-01  8.03913209E-01
 -2.24932427E+00  2.64678908E+00 -2.24932427E+00  2.64678908E+00  2.06094213E+00
  2.69006704E+00  2.69006704E+00 -7.92305604E+00  2.76705626E+00  2.06094213E+00
 -2.40989918E+00 -2.95201260E+00 -2.24932427E+00 -2.24932427E+00 -9.84915315E-01
  2.86545667E+00 -1.59900683E+00  2.65590022E+00 -2.96680911E+00  2.69006704E+00
 -2.96680911E+00  2.69006704E+00 -1.02044880E+00  2.46365496E+00  2.51012183E+00
  1.91971931E+00  2.64678908E+00  2.64678908E+00 -1.02044880E+00 -9.84915315E-01
 -9.84915315E-01 -9.84915315E-01 -5.95686987E+00 -1.59900683E+00 -2.40989918E+00
 -2.40989918E+00 -1.02044880E+00 -2.40989918E+00 -1.02044880E+00  2.06276436E+00
 -2.95201260E+00  2.51012183E+00  2.76705626E+00  2.86545667E+00  2.76705626E+00
  2.86545667E+00 -1.59900683E+00  2.86545667E+00  2.76705626E+00 -1.59900683E+00
  8.03913209E-01  8.03913209E-01  8.03913209E-01  2.65590022E+00 -7.92305604E+00
 -7.92305604E+00 -2.95201260E+00  2.51012183E+00 -7.92305604E+00 -2.95201260E+00
  2.51012183E+00  2.06094213E+00  2.06094213E+00  2.06094213E+00  2.06094213E+00
  2.65590022E+00  2.06094213E+00  2.06094213E+00  2.65590022E+00 -2.24932427E+00
 -2.24932427E+00 -2.24932427E+00 -2.24932427E+00 -2.24932427E+00 -2.24932427E+00
 -2.24932427E+00 -2.24932427E+00 -2.24932427E+00 -2.24932427E+00 -2.24932427E+00
 -2.24932427E+00 -2.96680911E+00  2.69006704E+00 -2.96680911E+00  2.69006704E+00
  2.69006704E+00 -2.96680911E+00  2.69006704E+00 -2.96680911E+00 -2.96680911E+00
  2.69006704E+00 -2.96680911E+00  2.69006704E+00 -2.96680911E+00  2.69006704E+00
 -2.96680911E+00  2.69006704E+00 -2.96680911E+00  2.69006704E+00 -2.96680911E+00
  2.69006704E+00 -2.96680911E+00  2.69006704E+00 -2.96680911E+00  2.69006704E+00
  1.91971931E+00  2.64678908E+00  2.64678908E+00  1.91971931E+00  2.64678908E+00
  2.64678908E+00  2.64678908E+00  1.91971931E+00  2.64678908E+00  1.91971931E+00
  2.64678908E+00  2.64678908E+00  1.91971931E+00  2.64678908E+00  2.64678908E+00
  1.91971931E+00  2.64678908E+00  2.64678908E+00 -5.95686987E+00 -5.95686987E+00
 -5.95686987E+00 -5.95686987E+00 -5.95686987E+00 -5.95686987E+00  2.06276436E+00
  2.06276436E+00  2.06276436E+00  2.06276436E+00  2.06276436E+00  2.06276436E+00
  8.03913209E-01  8.03913209E-01  8.03913209E-01  8.03913209E-01  8.03913209E-01
  8.03913209E-01  8.03913209E-01  8.03913209E-01  8.03913209E-01  8.03913209E-01
  8.03913209E-01  8.03913209E-01  8.03913209E-01  8.03913209E-01  8.03913209E-01
  8.03913209E-01  8.03913209E-01  8.03913209E-01 -5.95686987E+00  1.91971931E+00
  2.06276436E+00 -2.96680911E+00 -2.96680911E+00  8.03913209E-01  8.03913209E-01
  8.03913209E-01 -2.24932427E+00  2.64678908E+00 -2.24932427E+00  2.64678908E+00
  2.06094213E+00  2.69006704E+00  2.69006704E+00 -7.92305604E+00  2.76705626E+00
  2.06094213E+00 -2.40989918E+00 -2.95201260E+00 -2.24932427E+00 -2.24932427E+00
 -9.84915315E-01  2.86545667E+00 -1.59900683E+00  2.65590022E+00 -2.96680911E+00
  2.69006704E+00 -2.96680911E+00  2.69006704E+00 -1.02044880E+00  2.46365496E+00
  2.51012183E+00  1.91971931E+00  2.64678908E+00  2.64678908E+00 -1.02044880E+00
 -9.84915315E-01 -9.84915315E-01 -9.84915315E-01 -5.95686987E+00 -1.59900683E+00
 -2.40989918E+00 -2.40989918E+00 -1.02044880E+00 -2.40989918E+00 -1.02044880E+00
  2.06276436E+00 -2.95201260E+00  2.51012183E+00  2.76705626E+00  2.86545667E+00
  2.76705626E+00  2.86545667E+00 -1.59900683E+00  2.86545667E+00  2.76705626E+00
 -1.59900683E+00  8.03913209E-01  8.03913209E-01  8.03913209E-01  2.65590022E+00
 -7.92305604E+00 -7.92305604E+00 -2.95201260E+00  2.51012183E+00 -7.92305604E+00
 -2.95201260E+00  2.51012183E+00  2.06094213E+00  2.06094213E+00  2.06094213E+00
  2.06094213E+00  2.65590022E+00  2.06094213E+00  2.06094213E+00  2.65590022E+00
 -2.24932427E+00 -2.24932427E+00 -2.24932427E+00 -2.24932427E+00 -2.24932427E+00
 -2.24932427E+00 -2.24932427E+00 -2.24932427E+00 -2.24932427E+00 -2.24932427E+00
 -2.24932427E+00 -2.24932427E+00 -2.96680911E+00  2.69006704E+00 -2.96680911E+00
  2.69006704E+00  2.69006704E+00 -2.96680911E+00  2.69006704E+00 -2.96680911E+00
 -2.96680911E+00  2.69006704E+00 -2.96680911E+00  2.69006704E+00 -2.96680911E+00
  2.69006704E+00 -2.96680911E+00  2.69006704E+00 -2.96680911E+00  2.69006704E+00
 -2.96680911E+00  2.69006704E+00 -2.96680911E+00  2.69006704E+00 -2.96680911E+00
  2.69006704E+00  1.91971931E+00  2.64678908E+00  2.64678908E+00  1.91971931E+00
  2.64678908E+00  2.64678908E+00  2.64678908E+00  1.91971931E+00  2.64678908E+00
  1.91971931E+00  2.64678908E+00  2.64678908E+00  1.91971931E+00  2.64678908E+00
  2.64678908E+00  1.91971931E+00  2.64678908E+00  2.64678908E+00 -5.95686987E+00
 -5.95686987E+00 -5.95686987E+00 -5.95686987E+00 -5.95686987E+00 -5.95686987E+00
  2.06276436E+00  2.06276436E+00  2.06276436E+00  2.06276436E+00  2.06276436E+00
  2.06276436E+00  8.03913209E-01  8.03913209E-01  8.03913209E-01  8.03913209E-01
  8.03913209E-01  8.03913209E-01  8.03913209E-01  8.03913209E-01  8.03913209E-01
  8.03913209E-01  8.03913209E-01  8.03913209E-01  8.03913209E-01  8.03913209E-01
  8.03913209E-01  8.03913209E-01  8.03913209E-01  8.03913209E-01 -5.95686987E+00
  1.91971931E+00  2.06276436E+00 -2.96680911E+00 -2.96680911E+00  8.03913209E-01
  8.03913209E-01  8.03913209E-01 -2.24932427E+00  2.64678908E+00 -2.24932427E+00
  2.64678908E+00  2.06094213E+00  2.69006704E+00  2.69006704E+00 -7.92305604E+00
  2.76705626E+00  2.06094213E+00 -2.40989918E+00 -2.95201260E+00 -2.24932427E+00
 -2.24932427E+00 -9.84915315E-01  2.86545667E+00 -1.59900683E+00  2.65590022E+00
 -2.96680911E+00  2.69006704E+00 -2.96680911E+00  2.69006704E+00 -1.02044880E+00
  2.46365496E+00  2.51012183E+00  1.91971931E+00  2.64678908E+00  2.64678908E+00
 -1.02044880E+00 -9.84915315E-01 -9.84915315E-01 -9.84915315E-01 -5.95686987E+00
 -1.59900683E+00 -2.40989918E+00 -2.40989918E+00 -1.02044880E+00 -2.40989918E+00
 -1.02044880E+00  2.06276436E+00 -2.95201260E+00  2.51012183E+00  2.76705626E+00
  2.86545667E+00  2.76705626E+00  2.86545667E+00 -1.59900683E+00  2.86545667E+00
  2.76705626E+00 -1.59900683E+00  8.03913209E-01  8.03913209E-01  8.03913209E-01
  2.65590022E+00 -7.92305604E+00 -7.92305604E+00 -2.95201260E+00  2.51012183E+00
 -7.92305604E+00 -2.95201260E+00  2.51012183E+00  2.06094213E+00  2.06094213E+00
  2.06094213E+00  2.06094213E+00  2.65590022E+00  2.06094213E+00  2.06094213E+00
  2.65590022E+00 -2.24932427E+00 -2.24932427E+00 -2.24932427E+00 -2.24932427E+00
 -2.24932427E+00 -2.24932427E+00 -2.24932427E+00 -2.24932427E+00 -2.24932427E+00
 -2.24932427E+00 -2.24932427E+00 -2.24932427E+00 -2.96680911E+00  2.69006704E+00
 -2.96680911E+00  2.69006704E+00  2.69006704E+00 -2.96680911E+00  2.69006704E+00
 -2.96680911E+00 -2.96680911E+00  2.69006704E+00 -2.96680911E+00  2.69006704E+00
 -2.96680911E+00  2.69006704E+00 -2.96680911E+00  2.69006704E+00 -2.96680911E+00
  2.69006704E+00 -2.96680911E+00  2.69006704E+00 -2.96680911E+00  2.69006704E+00
 -2.96680911E+00  2.69006704E+00  1.91971931E+00  2.64678908E+00  2.64678908E+00
  1.91971931E+00  2.64678908E+00  2.64678908E+00  2.64678908E+00  1.91971931E+00
  2.64678908E+00  1.91971931E+00  2.64678908E+00  2.64678908E+00  1.91971931E+00
  2.64678908E+00  2.64678908E+00  1.91971931E+00  2.64678908E+00  2.64678908E+00
 -5.95686987E+00 -5.95686987E+00 -5.95686987E+00 -5.95686987E+00 -5.95686987E+00
 -5.95686987E+00  2.06276436E+00  2.06276436E+00  2.06276436E+00  2.06276436E+00
  2.06276436E+00  2.06276436E+00  8.03913209E-01  8.03913209E-01  8.03913209E-01
  8.03913209E-01  8.03913209E-01  8.03913209E-01  8.03913209E-01  8.03913209E-01
  8.03913209E-01  8.03913209E-01  8.03913209E-01  8.03913209E-01  8.03913209E-01
  8.03913209E-01  8.03913209E-01  8.03913209E-01  8.03913209E-01  8.03913209E-01
 -5.95686987E+00  1.91971931E+00  2.06276436E+00 -2.96680911E+00 -2.96680911E+00
  8.03913209E-01  8.03913209E-01  8.03913209E-01 -2.24932427E+00  2.64678908E+00
 -2.24932427E+00  2.64678908E+00  2.06094213E+00  2.69006704E+00  2.69006704E+00
 -7.92305604E+00  2.76705626E+00  2.06094213E+00 -2.40989918E+00 -2.95201260E+00
 -2.24932427E+00 -2.24932427E+00 -9.84915315E-01  2.86545667E+00 -1.59900683E+00
  2.65590022E+00 -2.96680911E+00  2.69006704E+00 -2.96680911E+00  2.69006704E+00
 -1.02044880E+00  2.46365496E+00  2.51012183E+00  1.91971931E+00  2.64678908E+00
  2.64678908E+00 -1.02044880E+00 -9.84915315E-01 -9.84915315E-01 -9.84915315E-01
 -5.95686987E+00 -1.59900683E+00 -2.40989918E+00 -2.40989918E+00 -1.02044880E+00
 -2.40989918E+00 -1.02044880E+00  2.06276436E+00 -2.95201260E+00  2.51012183E+00
  2.76705626E+00  2.86545667E+00  2.76705626E+00  2.86545667E+00 -1.59900683E+00
  2.86545667E+00  2.76705626E+00 -1.59900683E+00  8.03913209E-01  8.03913209E-01
  8.03913209E-01  2.65590022E+00 -7.92305604E+00 -7.92305604E+00 -2.95201260E+00
  2.51012183E+00 -7.92305604E+00 -2.95201260E+00  2.51012183E+00  2.06094213E+00
  2.06094213E+00  2.06094213E+00  2.06094213E+00  2.65590022E+00  2.06094213E+00
  2.06094213E+00  2.65590022E+00 -2.24932427E+00 -2.24932427E+00 -2.24932427E+00
 -2.24932427E+00 -2.24932427E+00 -2.24932427E+00 -2.24932427E+00 -2.24932427E+00
 -2.24932427E+00 -2.24932427E+00 -2.24932427E+00 -2.24932427E+00 -2.96680911E+00
  2.69006704E+00 -2.96680911E+00  2.69006704E+00  2.69006704E+00 -2.96680911E+00
  2.69006704E+00 -2.96680911E+00 -2.96680911E+00  2.69006704E+00 -2.96680911E+00
  2.69006704E+00 -2.96680911E+00  2.69006704E+00 -2.96680911E+00  2.69006704E+00
 -2.96680911E+00  2.69006704E+00 -2.96680911E+00  2.69006704E+00 -2.96680911E+00
  2.69006704E+00 -2.96680911E+00  2.69006704E+00  1.91971931E+00  2.64678908E+00
  2.64678908E+00  1.91971931E+00  2.64678908E+00  2.64678908E+00  2.64678908E+00
  1.91971931E+00  2.64678908E+00  1.91971931E+00  2.64678908E+00  2.64678908E+00
  1.91971931E+00  2.64678908E+00  2.64678908E+00  1.91971931E+00  2.64678908E+00
  2.64678908E+00 -5.95686987E+00 -5.95686987E+00 -5.95686987E+00 -5.95686987E+00
 -5.95686987E+00 -5.95686987E+00  2.06276436E+00  2.06276436E+00  2.06276436E+00
  2.06276436E+00  2.06276436E+00  2.06276436E+00  8.03913209E-01  8.03913209E-01
  8.03913209E-01  8.03913209E-01  8.03913209E-01  8.03913209E-01  8.03913209E-01
  8.03913209E-01  8.03913209E-01  8.03913209E-01  8.03913209E-01  8.03913209E-01
  8.03913209E-01  8.03913209E-01  8.03913209E-01  8.03913209E-01  8.03913209E-01
  8.03913209E-01 -5.95686987E+00  1.91971931E+00  2.06276436E+00 -2.96680911E+00
 -2.96680911E+00  8.03913209E-01  8.03913209E-01  8.03913209E-01 -2.24932427E+00
  2.64678908E+00 -2.24932427E+00  2.64678908E+00  2.06094213E+00  2.69006704E+00
  2.69006704E+00 -7.92305604E+00  2.76705626E+00  2.06094213E+00 -2.40989918E+00
 -2.95201260E+00 -2.24932427E+00 -2.24932427E+00 -9.84915315E-01  2.86545667E+00
 -1.59900683E+00  2.65590022E+00 -2.96680911E+00  2.69006704E+00 -2.96680911E+00
  2.69006704E+00 -1.02044880E+00  2.46365496E+00  2.51012183E+00  1.91971931E+00
  2.64678908E+00  2.64678908E+00 -1.02044880E+00 -9.84915315E-01 -9.84915315E-01
 -9.84915315E-01 -5.95686987E+00 -1.59900683E+00 -2.40989918E+00 -2.40989918E+00
 -1.02044880E+00 -2.40989918E+00 -1.02044880E+00  2.06276436E+00 -2.95201260E+00
  2.51012183E+00  2.76705626E+00  2.86545667E+00  2.76705626E+00  2.86545667E+00
 -1.59900683E+00  2.86545667E+00  2.76705626E+00 -1.59900683E+00  8.03913209E-01
  8.03913209E-01  8.03913209E-01  2.65590022E+00 -7.92305604E+00 -7.92305604E+00
 -2.95201260E+00  2.51012183E+00 -7.92305604E+00 -2.95201260E+00  2.51012183E+00
  2.06094213E+00  2.06094213E+00  2.06094213E+00  2.06094213E+00  2.65590022E+00
  2.06094213E+00  2.06094213E+00  2.65590022E+00 -2.24932427E+00 -2.24932427E+00
 -2.24932427E+00 -2.24932427E+00 -2.24932427E+00 -2.24932427E+00 -2.24932427E+00
 -2.24932427E+00 -2.24932427E+00 -2.24932427E+00 -2.24932427E+00 -2.24932427E+00
 -2.96680911E+00  2.69006704E+00 -2.96680911E+00  2.69006704E+00  2.69006704E+00
 -2.96680911E+00  2.69006704E+00 -2.96680911E+00 -2.96680911E+00  2.69006704E+00
 -2.96680911E+00  2.69006704E+00 -2.96680911E+00  2.69006704E+00 -2.96680911E+00
  2.69006704E+00 -2.96680911E+00  2.69006704E+00 -2.96680911E+00  2.69006704E+00
 -2.96680911E+00  2.69006704E+00 -2.96680911E+00  2.69006704E+00  1.91971931E+00
  2.64678908E+00  2.64678908E+00  1.91971931E+00  2.64678908E+00  2.64678908E+00
  2.64678908E+00  1.91971931E+00  2.64678908E+00  1.91971931E+00  2.64678908E+00
  2.64678908E+00  1.91971931E+00  2.64678908E+00  2.64678908E+00  1.91971931E+00
  2.64678908E+00  2.64678908E+00 -5.95686987E+00 -5.95686987E+00 -5.95686987E+00
 -5.95686987E+00 -5.95686987E+00 -5.95686987E+00  2.06276436E+00  2.06276436E+00
  2.06276436E+00  2.06276436E+00  2.06276436E+00  2.06276436E+00  8.03913209E-01
  8.03913209E-01  8.03913209E-01  8.03913209E-01  8.03913209E-01  8.03913209E-01
  8.03913209E-01  8.03913209E-01  8.03913209E-01  8.03913209E-01  8.03913209E-01
  8.03913209E-01  8.03913209E-01  8.03913209E-01  8.03913209E-01  8.03913209E-01
  8.03913209E-01  8.03913209E-01 -5.95686987E+00  1.91971931E+00  2.06276436E+00
 -2.96680911E+00 -2.96680911E+00  8.03913209E-01  8.03913209E-01  8.03913209E-01
 -2.24932427E+00  2.64678908E+00 -2.24932427E+00  2.64678908E+00  2.06094213E+00
  2.69006704E+00  2.69006704E+00 -7.92305604E+00  2.76705626E+00  2.06094213E+00
 -2.40989918E+00 -2.95201260E+00 -2.24932427E+00 -2.24932427E+00 -9.84915315E-01
  2.86545667E+00 -1.59900683E+00  2.65590022E+00 -2.96680911E+00  2.69006704E+00
 -2.96680911E+00  2.69006704E+00 -1.02044880E+00  2.46365496E+00  2.51012183E+00
  1.91971931E+00  2.64678908E+00  2.64678908E+00 -1.02044880E+00 -9.84915315E-01
 -9.84915315E-01 -9.84915315E-01 -5.95686987E+00 -1.59900683E+00 -2.40989918E+00
 -2.40989918E+00 -1.02044880E+00 -2.40989918E+00 -1.02044880E+00  2.06276436E+00
 -2.95201260E+00  2.51012183E+00  2.76705626E+00  2.86545667E+00  2.76705626E+00
  2.86545667E+00 -1.59900683E+00  2.86545667E+00  2.76705626E+00 -1.59900683E+00
  8.03913209E-01  8.03913209E-01  8.03913209E-01  2.65590022E+00 -7.92305604E+00
 -7.92305604E+00 -2.95201260E+00  2.51012183E+00 -7.92305604E+00 -2.95201260E+00
  2.51012183E+00  2.06094213E+00  2.06094213E+00  2.06094213E+00  2.06094213E+00
  2.65590022E+00  2.06094213E+00  2.06094213E+00  2.65590022E+00 -2.24932427E+00
 -2.24932427E+00 -2.24932427E+00 -2.24932427E+00 -2.24932427E+00 -2.24932427E+00
 -2.24932427E+00 -2.24932427E+00 -2.24932427E+00 -2.24932427E+00 -2.24932427E+00
 -2.24932427E+00 -2.96680911E+00  2.69006704E+00 -2.96680911E+00  2.69006704E+00
  2.69006704E+00 -2.96680911E+00  2.69006704E+00 -2.96680911E+00 -2.96680911E+00
  2.69006704E+00 -2.96680911E+00  2.69006704E+00 -2.96680911E+00  2.69006704E+00
 -2.96680911E+00  2.69006704E+00 -2.96680911E+00  2.69006704E+00 -2.96680911E+00
  2.69006704E+00 -2.96680911E+00  2.69006704E+00 -2.96680911E+00  2.69006704E+00
  1.91971931E+00  2.64678908E+00  2.64678908E+00  1.91971931E+00  2.64678908E+00
  2.64678908E+00  2.64678908E+00  1.91971931E+00  2.64678908E+00  1.91971931E+00
  2.64678908E+00  2.64678908E+00  1.91971931E+00  2.64678908E+00  2.64678908E+00
  1.91971931E+00  2.64678908E+00  2.64678908E+00 -5.95686987E+00 -5.95686987E+00
 -5.95686987E+00 -5.95686987E+00 -5.95686987E+00 -5.95686987E+00  2.06276436E+00
  2.06276436E+00  2.06276436E+00  2.06276436E+00  2.06276436E+00  2.06276436E+00
  8.03913209E-01  8.03913209E-01  8.03913209E-01  8.03913209E-01  8.03913209E-01
  8.03913209E-01  8.03913209E-01  8.03913209E-01  8.03913209E-01  8.03913209E-01
  8.03913209E-01  8.03913209E-01  8.03913209E-01  8.03913209E-01  8.03913209E-01
  8.03913209E-01  8.03913209E-01  8.03913209E-01 -5.95686987E+00  1.91971931E+00
  2.06276436E+00 -2.96680911E+00 -2.96680911E+00  8.03913209E-01  8.03913209E-01
  8.03913209E-01 -2.24932427E+00  2.64678908E+00 -2.24932427E+00  2.64678908E+00
  2.06094213E+00  2.69006704E+00  2.69006704E+00 -7.92305604E+00  2.76705626E+00
  2.06094213E+00 -2.40989918E+00 -2.95201260E+00 -2.24932427E+00 -2.24932427E+00
 -9.84915315E-01  2.86545667E+00 -1.59900683E+00  2.65590022E+00 -2.96680911E+00
  2.69006704E+00 -2.96680911E+00  2.69006704E+00 -1.02044880E+00  2.46365496E+00
  2.51012183E+00  1.91971931E+00  2.64678908E+00  2.64678908E+00 -1.02044880E+00
 -9.84915315E-01 -9.84915315E-01 -9.84915315E-01 -5.95686987E+00 -1.59900683E+00
 -2.40989918E+00 -2.40989918E+00 -1.02044880E+00 -2.40989918E+00 -1.02044880E+00
  2.06276436E+00 -2.95201260E+00  2.51012183E+00  2.76705626E+00  2.86545667E+00
  2.76705626E+00  2.86545667E+00 -1.59900683E+00  2.86545667E+00  2.76705626E+00
 -1.59900683E+00  8.03913209E-01  8.03913209E-01  8.03913209E-01  2.65590022E+00
 -7.92305604E+00 -7.92305604E+00 -2.95201260E+00  2.51012183E+00 -7.92305604E+00
 -2.95201260E+00  2.51012183E+00  2.06094213E+00  2.06094213E+00  2.06094213E+00
  2.06094213E+00  2.65590022E+00  2.06094213E+00  2.06094213E+00  2.65590022E+00
 -2.24932427E+00 -2.24932427E+00 -2.24932427E+00 -2.24932427E+00 -2.24932427E+00
 -2.24932427E+00 -2.24932427E+00 -2.24932427E+00 -2.24932427E+00 -2.24932427E+00
 -2.24932427E+00 -2.24932427E+00 -2.96680911E+00  2.69006704E+00 -2.96680911E+00
  2.69006704E+00  2.69006704E+00 -2.96680911E+00  2.69006704E+00 -2.96680911E+00
 -2.96680911E+00  2.69006704E+00 -2.96680911E+00  2.69006704E+00 -2.96680911E+00
  2.69006704E+00 -2.96680911E+00  2.69006704E+00 -2.96680911E+00  2.69006704E+00
 -2.96680911E+00  2.69006704E+00 -2.96680911E+00  2.69006704E+00 -2.96680911E+00
  2.69006704E+00  1.91971931E+00  2.64678908E+00  2.64678908E+00  1.91971931E+00
  2.64678908E+00  2.64678908E+00  2.64678908E+00  1.91971931E+00  2.64678908E+00
  1.91971931E+00  2.64678908E+00  2.64678908E+00  1.91971931E+00  2.64678908E+00
  2.64678908E+00  1.91971931E+00  2.64678908E+00  2.64678908E+00 -5.95686987E+00
 -5.95686987E+00 -5.95686987E+00 -5.95686987E+00 -5.95686987E+00 -5.95686987E+00
  2.06276436E+00  2.06276436E+00  2.06276436E+00  2.06276436E+00  2.06276436E+00
  2.06276436E+00  8.03913209E-01  8.03913209E-01  8.03913209E-01  8.03913209E-01
  8.03913209E-01  8.03913209E-01  8.03913209E-01  8.03913209E-01  8.03913209E-01
  8.03913209E-01  8.03913209E-01  8.03913209E-01  8.03913209E-01  8.03913209E-01
  8.03913209E-01  8.03913209E-01  8.03913209E-01  8.03913209E-01 -5.95686987E+00
  1.91971931E+00  2.06276436E+00 -2.96680911E+00 -2.96680911E+00  8.03913209E-01
  8.03913209E-01  8.03913209E-01 -2.24932427E+00  2.64678908E+00 -2.24932427E+00
  2.64678908E+00  2.06094213E+00  2.69006704E+00  2.69006704E+00 -7.92305604E+00
  2.76705626E+00  2.06094213E+00 -2.40989918E+00 -2.95201260E+00 -2.24932427E+00
 -2.24932427E+00 -9.84915315E-01  2.86545667E+00 -1.59900683E+00  2.65590022E+00
 -2.96680911E+00  2.69006704E+00 -2.96680911E+00  2.69006704E+00 -1.02044880E+00
  2.46365496E+00  2.51012183E+00  1.91971931E+00  2.64678908E+00  2.64678908E+00
 -1.02044880E+00 -9.84915315E-01 -9.84915315E-01 -9.84915315E-01 -5.95686987E+00
 -1.59900683E+00 -2.40989918E+00 -2.40989918E+00 -1.02044880E+00 -2.40989918E+00
 -1.02044880E+00  2.06276436E+00 -2.95201260E+00  2.51012183E+00  2.76705626E+00
  2.86545667E+00  2.76705626E+00  2.86545667E+00 -1.59900683E+00  2.86545667E+00
  2.76705626E+00 -1.59900683E+00  8.03913209E-01  8.03913209E-01  8.03913209E-01
  2.65590022E+00 -7.92305604E+00 -7.92305604E+00 -2.95201260E+00  2.51012183E+00
 -7.92305604E+00 -2.95201260E+00  2.51012183E+00  2.06094213E+00  2.06094213E+00
  2.06094213E+00  2.06094213E+00  2.65590022E+00  2.06094213E+00  2.06094213E+00
  2.65590022E+00 -2.24932427E+00 -2.24932427E+00 -2.24932427E+00 -2.24932427E+00
 -2.24932427E+00 -2.24932427E+00 -2.24932427E+00 -2.24932427E+00 -2.24932427E+00
 -2.24932427E+00 -2.24932427E+00 -2.24932427E+00 -2.96680911E+00  2.69006704E+00
 -2.96680911E+00  2.69006704E+00  2.69006704E+00 -2.96680911E+00  2.69006704E+00
 -2.96680911E+00 -2.96680911E+00  2.69006704E+00 -2.96680911E+00  2.69006704E+00
 -2.96680911E+00  2.69006704E+00 -2.96680911E+00  2.69006704E+00 -2.96680911E+00
  2.69006704E+00 -2.96680911E+00  2.69006704E+00 -2.96680911E+00  2.69006704E+00
 -2.96680911E+00  2.69006704E+00  1.91971931E+00  2.64678908E+00  2.64678908E+00
  1.91971931E+00  2.64678908E+00  2.64678908E+00  2.64678908E+00  1.91971931E+00
  2.64678908E+00  1.91971931E+00  2.64678908E+00  2.64678908E+00  1.91971931E+00
  2.64678908E+00  2.64678908E+00  1.91971931E+00  2.64678908E+00  2.64678908E+00
 -5.95686987E+00 -5.95686987E+00 -5.95686987E+00 -5.95686987E+00 -5.95686987E+00
 -5.95686987E+00  2.06276436E+00  2.06276436E+00  2.06276436E+00  2.06276436E+00
  2.06276436E+00  2.06276436E+00  8.03913209E-01  8.03913209E-01  8.03913209E-01
  8.03913209E-01  8.03913209E-01  8.03913209E-01  8.03913209E-01  8.03913209E-01
  8.03913209E-01  8.03913209E-01  8.03913209E-01  8.03913209E-01  8.03913209E-01
  8.03913209E-01  8.03913209E-01  8.03913209E-01  8.03913209E-01  8.03913209E-01
 -5.95686987E+00  1.91971931E+00  2.06276436E+00 -2.96680911E+00 -2.96680911E+00
  8.03913209E-01  8.03913209E-01  8.03913209E-01 -2.24932427E+00  2.64678908E+00
 -2.24932427E+00  2.64678908E+00  2.06094213E+00  2.69006704E+00  2.69006704E+00
 -7.92305604E+00  2.76705626E+00  2.06094213E+00 -2.40989918E+00 -2.95201260E+00
 -2.24932427E+00 -2.24932427E+00 -9.84915315E-01  2.86545667E+00 -1.59900683E+00
  2.65590022E+00 -2.96680911E+00  2.69006704E+00 -2.96680911E+00  2.69006704E+00
 -1.02044880E+00  2.46365496E+00  2.51012183E+00  1.91971931E+00  2.64678908E+00
  2.64678908E+00 -1.02044880E+00 -9.84915315E-01 -9.84915315E-01 -9.84915315E-01
 -5.95686987E+00 -1.59900683E+00 -2.40989918E+00 -2.40989918E+00 -1.02044880E+00
 -2.40989918E+00 -1.02044880E+00  2.06276436E+00 -2.95201260E+00  2.51012183E+00
  2.76705626E+00  2.86545667E+00  2.76705626E+00  2.86545667E+00 -1.59900683E+00
  2.86545667E+00  2.76705626E+00 -1.59900683E+00  8.03913209E-01  8.03913209E-01
  8.03913209E-01  2.65590022E+00 -7.92305604E+00 -7.92305604E+00 -2.95201260E+00
  2.51012183E+00 -7.92305604E+00 -2.95201260E+00  2.51012183E+00  2.06094213E+00
  2.06094213E+00  2.06094213E+00  2.06094213E+00  2.65590022E+00  2.06094213E+00
  2.06094213E+00  2.65590022E+00 -2.24932427E+00 -2.24932427E+00 -2.24932427E+00
 -2.24932427E+00 -2.24932427E+00 -2.24932427E+00 -2.24932427E+00 -2.24932427E+00
 -2.24932427E+00 -2.24932427E+00 -2.24932427E+00 -2.24932427E+00 -2.96680911E+00
  2.69006704E+00 -2.96680911E+00  2.69006704E+00  2.69006704E+00 -2.96680911E+00
  2.69006704E+00 -2.96680911E+00 -2.96680911E+00  2.69006704E+00 -2.96680911E+00
  2.69006704E+00 -2.96680911E+00  2.69006704E+00 -2.96680911E+00  2.69006704E+00
 -2.96680911E+00  2.69006704E+00 -2.96680911E+00  2.69006704E+00 -2.96680911E+00
  2.69006704E+00 -2.96680911E+00  2.69006704E+00  1.91971931E+00  2.64678908E+00
  2.64678908E+00  1.91971931E+00  2.64678908E+00  2.64678908E+00  2.64678908E+00
  1.91971931E+00  2.64678908E+00  1.91971931E+00  2.64678908E+00  2.64678908E+00
  1.91971931E+00  2.64678908E+00  2.64678908E+00  1.91971931E+00  2.64678908E+00
  2.64678908E+00 -5.95686987E+00 -5.95686987E+00 -5.95686987E+00 -5.95686987E+00
 -5.95686987E+00 -5.95686987E+00  2.06276436E+00  2.06276436E+00  2.06276436E+00
  2.06276436E+00  2.06276436E+00  2.06276436E+00  8.03913209E-01  8.03913209E-01
  8.03913209E-01  8.03913209E-01  8.03913209E-01  8.03913209E-01  8.03913209E-01
  8.03913209E-01  8.03913209E-01  8.03913209E-01  8.03913209E-01  8.03913209E-01
  8.03913209E-01  8.03913209E-01  8.03913209E-01  8.03913209E-01  8.03913209E-01
  8.03913209E-01 -5.95686987E+00  1.91971931E+00  2.06276436E+00 -2.96680911E+00
 -2.96680911E+00  8.03913209E-01  8.03913209E-01  8.03913209E-01 -2.24932427E+00
  2.64678908E+00 -2.24932427E+00  2.64678908E+00  2.06094213E+00  2.69006704E+00
  2.69006704E+00 -7.92305604E+00  2.76705626E+00  2.06094213E+00 -2.40989918E+00
 -2.95201260E+00 -2.24932427E+00 -2.24932427E+00 -9.84915315E-01  2.86545667E+00
 -1.59900683E+00  2.65590022E+00 -2.96680911E+00  2.69006704E+00 -2.96680911E+00
  2.69006704E+00 -1.02044880E+00  2.46365496E+00  2.51012183E+00  1.91971931E+00
  2.64678908E+00  2.64678908E+00 -1.02044880E+00 -9.84915315E-01 -9.84915315E-01
 -9.84915315E-01 -5.95686987E+00 -1.59900683E+00 -2.40989918E+00 -2.40989918E+00
 -1.02044880E+00 -2.40989918E+00 -1.02044880E+00  2.06276436E+00 -2.95201260E+00
  2.51012183E+00  2.76705626E+00  2.86545667E+00  2.76705626E+00  2.86545667E+00
 -1.59900683E+00  2.86545667E+00  2.76705626E+00 -1.59900683E+00  8.03913209E-01
  8.03913209E-01  8.03913209E-01  2.65590022E+00 -7.92305604E+00 -7.92305604E+00
 -2.95201260E+00  2.51012183E+00 -7.92305604E+00 -2.95201260E+00  2.51012183E+00
  2.06094213E+00  2.06094213E+00  2.06094213E+00  2.06094213E+00  2.65590022E+00
  2.06094213E+00  2.06094213E+00  2.65590022E+00 -2.24932427E+00 -2.24932427E+00
 -2.24932427E+00 -2.24932427E+00 -2.24932427E+00 -2.24932427E+00 -2.24932427E+00
 -2.24932427E+00 -2.24932427E+00 -2.24932427E+00 -2.24932427E+00 -2.24932427E+00
 -2.96680911E+00  2.69006704E+00 -2.96680911E+00  2.69006704E+00  2.69006704E+00
 -2.96680911E+00  2.69006704E+00 -2.96680911E+00 -2.96680911E+00  2.69006704E+00
 -2.96680911E+00  2.69006704E+00 -2.96680911E+00  2.69006704E+00 -2.96680911E+00
  2.69006704E+00 -2.96680911E+00  2.69006704E+00 -2.96680911E+00  2.69006704E+00
 -2.96680911E+00  2.69006704E+00 -2.96680911E+00  2.69006704E+00  1.91971931E+00
  2.64678908E+00  2.64678908E+00  1.91971931E+00  2.64678908E+00  2.64678908E+00
  2.64678908E+00  1.91971931E+00  2.64678908E+00  1.91971931E+00  2.64678908E+00
  2.64678908E+00  1.91971931E+00  2.64678908E+00  2.64678908E+00  1.91971931E+00
  2.64678908E+00  2.64678908E+00 -5.95686987E+00 -5.95686987E+00 -5.95686987E+00
 -5.95686987E+00 -5.95686987E+00 -5.95686987E+00  2.06276436E+00  2.06276436E+00
  2.06276436E+00  2.06276436E+00  2.06276436E+00  2.06276436E+00  8.03913209E-01
  8.03913209E-01  8.03913209E-01  8.03913209E-01  8.03913209E-01  8.03913209E-01
  8.03913209E-01  8.03913209E-01  8.03913209E-01  8.03913209E-01  8.03913209E-01
  8.03913209E-01  8.03913209E-01  8.03913209E-01  8.03913209E-01  8.03913209E-01
  8.03913209E-01  8.03913209E-01 -5.95686987E+00  1.91971931E+00  2.06276436E+00
 -2.96680911E+00 -2.96680911E+00  8.03913209E-01  8.03913209E-01  8.03913209E-01
 -2.24932427E+00  2.64678908E+00 -2.24932427E+00  2.64678908E+00  2.06094213E+00
  2.69006704E+00  2.69006704E+00 -7.92305604E+00  2.76705626E+00  2.06094213E+00
 -2.40989918E+00 -2.95201260E+00 -2.24932427E+00 -2.24932427E+00 -9.84915315E-01
  2.86545667E+00 -1.59900683E+00  2.65590022E+00 -2.96680911E+00  2.69006704E+00
 -2.96680911E+00  2.69006704E+00 -1.02044880E+00  2.46365496E+00  2.51012183E+00
  1.91971931E+00  2.64678908E+00  2.64678908E+00 -1.02044880E+00 -9.84915315E-01
 -9.84915315E-01 -9.84915315E-01 -5.95686987E+00 -1.59900683E+00 -2.40989918E+00
 -2.40989918E+00 -1.02044880E+00 -2.40989918E+00 -1.02044880E+00  2.06276436E+00
 -2.95201260E+00  2.51012183E+00  2.76705626E+00  2.86545667E+00  2.76705626E+00
  2.86545667E+00 -1.59900683E+00  2.86545667E+00  2.76705626E+00 -1.59900683E+00
  8.03913209E-01  8.03913209E-01  8.03913209E-01  2.65590022E+00 -7.92305604E+00
 -7.92305604E+00 -2.95201260E+00  2.51012183E+00 -7.92305604E+00 -2.95201260E+00
  2.51012183E+00  2.06094213E+00  2.06094213E+00  2.06094213E+00  2.06094213E+00
  2.65590022E+00  2.06094213E+00  2.06094213E+00  2.65590022E+00 -2.24932427E+00
 -2.24932427E+00 -2.24932427E+00 -2.24932427E+00 -2.24932427E+00 -2.24932427E+00
 -2.24932427E+00 -2.24932427E+00 -2.24932427E+00 -2.24932427E+00 -2.24932427E+00
 -2.24932427E+00 -2.96680911E+00  2.69006704E+00 -2.96680911E+00  2.69006704E+00
  2.69006704E+00 -2.96680911E+00  2.69006704E+00 -2.96680911E+00 -2.96680911E+00
  2.69006704E+00 -2.96680911E+00  2.69006704E+00 -2.96680911E+00  2.69006704E+00
 -2.96680911E+00  2.69006704E+00 -2.96680911E+00  2.69006704E+00 -2.96680911E+00
  2.69006704E+00 -2.96680911E+00  2.69006704E+00 -2.96680911E+00  2.69006704E+00
  1.91971931E+00  2.64678908E+00  2.64678908E+00  1.91971931E+00  2.64678908E+00
  2.64678908E+00  2.64678908E+00  1.91971931E+00  2.64678908E+00  1.91971931E+00
  2.64678908E+00  2.64678908E+00  1.91971931E+00  2.64678908E+00  2.64678908E+00
  1.91971931E+00  2.64678908E+00  2.64678908E+00 -5.95686987E+00 -5.95686987E+00
 -5.95686987E+00 -5.95686987E+00 -5.95686987E+00 -5.95686987E+00  2.06276436E+00
  2.06276436E+00  2.06276436E+00  2.06276436E+00  2.06276436E+00  2.06276436E+00
  8.03913209E-01  8.03913209E-01  8.03913209E-01  8.03913209E-01  8.03913209E-01
  8.03913209E-01  8.03913209E-01  8.03913209E-01  8.03913209E-01  8.03913209E-01
  8.03913209E-01  8.03913209E-01  8.03913209E-01  8.03913209E-01  8.03913209E-01
  8.03913209E-01  8.03913209E-01  8.03913209E-01 -5.95686987E+00  1.91971931E+00
  2.06276436E+00 -2.96680911E+00 -2.96680911E+00  8.03913209E-01  8.03913209E-01
  8.03913209E-01 -2.24932427E+00  2.64678908E+00 -2.24932427E+00  2.64678908E+00
  2.06094213E+00  2.69006704E+00  2.69006704E+00 -7.92305604E+00  2.76705626E+00
  2.06094213E+00 -2.40989918E+00 -2.95201260E+00 -2.24932427E+00 -2.24932427E+00
 -9.84915315E-01  2.86545667E+00 -1.59900683E+00  2.65590022E+00 -2.96680911E+00
  2.69006704E+00 -2.96680911E+00  2.69006704E+00 -1.02044880E+00  2.46365496E+00
  2.51012183E+00  1.91971931E+00  2.64678908E+00  2.64678908E+00 -1.02044880E+00
 -9.84915315E-01 -9.84915315E-01 -9.84915315E-01 -5.95686987E+00 -1.59900683E+00
 -2.40989918E+00 -2.40989918E+00 -1.02044880E+00 -2.40989918E+00 -1.02044880E+00
  2.06276436E+00 -2.95201260E+00  2.51012183E+00  2.76705626E+00  2.86545667E+00
  2.76705626E+00  2.86545667E+00 -1.59900683E+00  2.86545667E+00  2.76705626E+00
 -1.59900683E+00  8.03913209E-01  8.03913209E-01  8.03913209E-01  2.65590022E+00
 -7.92305604E+00 -7.92305604E+00 -2.95201260E+00  2.51012183E+00 -7.92305604E+00
 -2.95201260E+00  2.51012183E+00  2.06094213E+00  2.06094213E+00  2.06094213E+00
  2.06094213E+00  2.65590022E+00  2.06094213E+00  2.06094213E+00  2.65590022E+00
 -2.24932427E+00 -2.24932427E+00 -2.24932427E+00 -2.24932427E+00 -2.24932427E+00
 -2.24932427E+00 -2.24932427E+00 -2.24932427E+00 -2.24932427E+00 -2.24932427E+00
 -2.24932427E+00 -2.24932427E+00 -2.96680911E+00  2.69006704E+00 -2.96680911E+00
  2.69006704E+00  2.69006704E+00 -2.96680911E+00  2.69006704E+00 -2.96680911E+00
 -2.96680911E+00  2.69006704E+00 -2.96680911E+00  2.69006704E+00 -2.96680911E+00
  2.69006704E+00 -2.96680911E+00  2.69006704E+00 -2.96680911E+00  2.69006704E+00
 -2.96680911E+00  2.69006704E+00 -2.96680911E+00  2.69006704E+00 -2.96680911E+00
  2.69006704E+00  1.91971931E+00  2.64678908E+00  2.64678908E+00  1.91971931E+00
  2.64678908E+00  2.64678908E+00  2.64678908E+00  1.91971931E+00  2.64678908E+00
  1.91971931E+00  2.64678908E+00  2.64678908E+00  1.91971931E+00  2.64678908E+00
  2.64678908E+00  1.91971931E+00  2.64678908E+00  2.64678908E+00 -5.95686987E+00
 -5.95686987E+00 -5.95686987E+00 -5.95686987E+00 -5.95686987E+00 -5.95686987E+00
  2.06276436E+00  2.06276436E+00  2.06276436E+00  2.06276436E+00  2.06276436E+00
  2.06276436E+00  8.03913209E-01  8.03913209E-01  8.03913209E-01  8.03913209E-01
  8.03913209E-01  8.03913209E-01  8.03913209E-01  8.03913209E-01  8.03913209E-01
  8.03913209E-01  8.03913209E-01  8.03913209E-01  8.03913209E-01  8.03913209E-01
  8.03913209E-01  8.03913209E-01  8.03913209E-01  8.03913209E-01 -5.95686987E+00
  1.91971931E+00  2.06276436E+00 -2.96680911E+00 -2.96680911E+00  8.03913209E-01
  8.03913209E-01  8.03913209E-01 -2.24932427E+00  2.64678908E+00 -2.24932427E+00
  2.64678908E+00  2.06094213E+00  2.69006704E+00  2.69006704E+00 -7.92305604E+00
  2.76705626E+00  2.06094213E+00 -2.40989918E+00 -2.95201260E+00 -2.24932427E+00
 -2.24932427E+00 -9.84915315E-01  2.86545667E+00 -1.59900683E+00  2.65590022E+00
 -2.96680911E+00  2.69006704E+00 -2.96680911E+00  2.69006704E+00 -1.02044880E+00
  2.46365496E+00  2.51012183E+00  1.91971931E+00  2.64678908E+00  2.64678908E+00
 -1.02044880E+00 -9.84915315E-01 -9.84915315E-01 -9.84915315E-01 -5.95686987E+00
 -1.59900683E+00 -2.40989918E+00 -2.40989918E+00 -1.02044880E+00 -2.40989918E+00
 -1.02044880E+00  2.06276436E+00 -2.95201260E+00  2.51012183E+00  2.76705626E+00
  2.86545667E+00  2.76705626E+00  2.86545667E+00 -1.59900683E+00  2.86545667E+00
  2.76705626E+00 -1.59900683E+00  8.03913209E-01  8.03913209E-01  8.03913209E-01
  2.65590022E+00 -7.92305604E+00 -7.92305604E+00 -2.95201260E+00  2.51012183E+00
 -7.92305604E+00 -2.95201260E+00  2.51012183E+00  2.06094213E+00  2.06094213E+00
  2.06094213E+00  2.06094213E+00  2.65590022E+00  2.06094213E+00  2.06094213E+00
  2.65590022E+00 -2.24932427E+00 -2.24932427E+00 -2.24932427E+00 -2.24932427E+00
 -2.24932427E+00 -2.24932427E+00 -2.24932427E+00 -2.24932427E+00 -2.24932427E+00
 -2.24932427E+00 -2.24932427E+00 -2.24932427E+00 -2.96680911E+00  2.69006704E+00
 -2.96680911E+00  2.69006704E+00  2.69006704E+00 -2.96680911E+00  2.69006704E+00
 -2.96680911E+00 -2.96680911E+00  2.69006704E+00 -2.96680911E+00  2.69006704E+00
 -2.96680911E+00  2.69006704E+00 -2.96680911E+00  2.69006704E+00 -2.96680911E+00
  2.69006704E+00 -2.96680911E+00  2.69006704E+00 -2.96680911E+00  2.69006704E+00
 -2.96680911E+00  2.69006704E+00  1.91971931E+00  2.64678908E+00  2.64678908E+00
  1.91971931E+00  2.64678908E+00  2.64678908E+00  2.64678908E+00  1.91971931E+00
  2.64678908E+00  1.91971931E+00  2.64678908E+00  2.64678908E+00  1.91971931E+00
  2.64678908E+00  2.64678908E+00  1.91971931E+00  2.64678908E+00  2.64678908E+00
 -5.95686987E+00 -5.95686987E+00 -5.95686987E+00 -5.95686987E+00 -5.95686987E+00
 -5.95686987E+00  2.06276436E+00  2.06276436E+00  2.06276436E+00  2.06276436E+00
  2.06276436E+00  2.06276436E+00  8.03913209E-01  8.03913209E-01  8.03913209E-01
  8.03913209E-01  8.03913209E-01  8.03913209E-01  8.03913209E-01  8.03913209E-01
  8.03913209E-01  8.03913209E-01  8.03913209E-01  8.03913209E-01  8.03913209E-01
  8.03913209E-01  8.03913209E-01  8.03913209E-01  8.03913209E-01  8.03913209E-01
 -5.95686987E+00  1.91971931E+00  2.06276436E+00 -2.96680911E+00 -2.96680911E+00
  8.03913209E-01  8.03913209E-01  8.03913209E-01 -2.24932427E+00  2.64678908E+00
 -2.24932427E+00  2.64678908E+00  2.06094213E+00  2.69006704E+00  2.69006704E+00
 -7.92305604E+00  2.76705626E+00  2.06094213E+00 -2.40989918E+00 -2.95201260E+00
 -2.24932427E+00 -2.24932427E+00 -9.84915315E-01  2.86545667E+00 -1.59900683E+00
  2.65590022E+00 -2.96680911E+00  2.69006704E+00 -2.96680911E+00  2.69006704E+00
 -1.02044880E+00  2.46365496E+00  2.51012183E+00  1.91971931E+00  2.64678908E+00
  2.64678908E+00 -1.02044880E+00 -9.84915315E-01 -9.84915315E-01 -9.84915315E-01
 -5.95686987E+00 -1.59900683E+00 -2.40989918E+00 -2.40989918E+00 -1.02044880E+00
 -2.40989918E+00 -1.02044880E+00  2.06276436E+00 -2.95201260E+00  2.51012183E+00
  2.76705626E+00  2.86545667E+00  2.76705626E+00  2.86545667E+00 -1.59900683E+00
  2.86545667E+00  2.76705626E+00 -1.59900683E+00  8.03913209E-01  8.03913209E-01
  8.03913209E-01  2.65590022E+00 -7.92305604E+00 -7.92305604E+00 -2.95201260E+00
  2.51012183E+00 -7.92305604E+00 -2.95201260E+00  2.51012183E+00  2.06094213E+00
  2.06094213E+00  2.06094213E+00  2.06094213E+00  2.65590022E+00  2.06094213E+00
  2.06094213E+00  2.65590022E+00 -2.24932427E+00 -2.24932427E+00 -2.24932427E+00
 -2.24932427E+00 -2.24932427E+00 -2.24932427E+00 -2.24932427E+00 -2.24932427E+00
 -2.24932427E+00 -2.24932427E+00 -2.24932427E+00 -2.24932427E+00 -2.96680911E+00
  2.69006704E+00 -2.96680911E+00  2.69006704E+00  2.69006704E+00 -2.96680911E+00
  2.69006704E+00 -2.96680911E+00 -2.96680911E+00  2.69006704E+00 -2.96680911E+00
  2.69006704E+00 -2.96680911E+00  2.69006704E+00 -2.96680911E+00  2.69006704E+00
 -2.96680911E+00  2.69006704E+00 -2.96680911E+00  2.69006704E+00 -2.96680911E+00
  2.69006704E+00 -2.96680911E+00  2.69006704E+00  1.91971931E+00  2.64678908E+00
  2.64678908E+00  1.91971931E+00  2.64678908E+00  2.64678908E+00  2.64678908E+00
  1.91971931E+00  2.64678908E+00  1.91971931E+00  2.64678908E+00  2.64678908E+00
  1.91971931E+00  2.64678908E+00  2.64678908E+00  1.91971931E+00  2.64678908E+00
  2.64678908E+00 -5.95686987E+00 -5.95686987E+00 -5.95686987E+00 -5.95686987E+00
 -5.95686987E+00 -5.95686987E+00  2.06276436E+00  2.06276436E+00  2.06276436E+00
  2.06276436E+00  2.06276436E+00  2.06276436E+00  8.03913209E-01  8.03913209E-01
  8.03913209E-01  8.03913209E-01  8.03913209E-01  8.03913209E-01  8.03913209E-01
  8.03913209E-01  8.03913209E-01  8.03913209E-01  8.03913209E-01  8.03913209E-01
  8.03913209E-01  8.03913209E-01  8.03913209E-01  8.03913209E-01  8.03913209E-01
  8.03913209E-01 -5.95686987E+00  1.91971931E+00  2.06276436E+00 -2.96680911E+00
 -2.96680911E+00  8.03913209E-01  8.03913209E-01  8.03913209E-01 -2.24932427E+00
  2.64678908E+00 -2.24932427E+00  2.64678908E+00  2.06094213E+00  2.69006704E+00
  2.69006704E+00 -7.92305604E+00  2.76705626E+00  2.06094213E+00 -2.40989918E+00
 -2.95201260E+00 -2.24932427E+00 -2.24932427E+00 -9.84915315E-01  2.86545667E+00
 -1.59900683E+00  2.65590022E+00 -2.96680911E+00  2.69006704E+00 -2.96680911E+00
  2.69006704E+00 -1.02044880E+00  2.46365496E+00  2.51012183E+00  1.91971931E+00
  2.64678908E+00  2.64678908E+00 -1.02044880E+00 -9.84915315E-01 -9.84915315E-01
 -9.84915315E-01 -5.95686987E+00 -1.59900683E+00 -2.40989918E+00 -2.40989918E+00
 -1.02044880E+00 -2.40989918E+00 -1.02044880E+00  2.06276436E+00 -2.95201260E+00
  2.51012183E+00  2.76705626E+00  2.86545667E+00  2.76705626E+00  2.86545667E+00
 -1.59900683E+00  2.86545667E+00  2.76705626E+00 -1.59900683E+00  8.03913209E-01
  8.03913209E-01  8.03913209E-01  2.65590022E+00 -7.92305604E+00 -7.92305604E+00
 -2.95201260E+00  2.51012183E+00 -7.92305604E+00 -2.95201260E+00  2.51012183E+00
  2.06094213E+00  2.06094213E+00  2.06094213E+00  2.06094213E+00  2.65590022E+00
  2.06094213E+00  2.06094213E+00  2.65590022E+00 -2.24932427E+00 -2.24932427E+00
 -2.24932427E+00 -2.24932427E+00 -2.24932427E+00 -2.24932427E+00 -2.24932427E+00
 -2.24932427E+00 -2.24932427E+00 -2.24932427E+00 -2.24932427E+00 -2.24932427E+00
 -2.96680911E+00  2.69006704E+00 -2.96680911E+00  2.69006704E+00  2.69006704E+00
 -2.96680911E+00  2.69006704E+00 -2.96680911E+00 -2.96680911E+00  2.69006704E+00
 -2.96680911E+00  2.69006704E+00 -2.96680911E+00  2.69006704E+00 -2.96680911E+00
  2.69006704E+00 -2.96680911E+00  2.69006704E+00 -2.96680911E+00  2.69006704E+00
 -2.96680911E+00  2.69006704E+00 -2.96680911E+00  2.69006704E+00  1.91971931E+00
  2.64678908E+00  2.64678908E+00  1.91971931E+00  2.64678908E+00  2.64678908E+00
  2.64678908E+00  1.91971931E+00  2.64678908E+00  1.91971931E+00  2.64678908E+00
  2.64678908E+00  1.91971931E+00  2.64678908E+00  2.64678908E+00  1.91971931E+00
  2.64678908E+00  2.64678908E+00 -5.95686987E+00 -5.95686987E+00 -5.95686987E+00
 -5.95686987E+00 -5.95686987E+00 -5.95686987E+00  2.06276436E+00  2.06276436E+00
  2.06276436E+00  2.06276436E+00  2.06276436E+00  2.06276436E+00  8.03913209E-01
  8.03913209E-01  8.03913209E-01  8.03913209E-01  8.03913209E-01  8.03913209E-01
  8.03913209E-01  8.03913209E-01  8.03913209E-01  8.03913209E-01  8.03913209E-01
  8.03913209E-01  8.03913209E-01  8.03913209E-01  8.03913209E-01  8.03913209E-01
  8.03913209E-01  8.03913209E-01 -5.95686987E+00  1.91971931E+00  2.06276436E+00
 -2.96680911E+00 -2.96680911E+00  8.03913209E-01  8.03913209E-01  8.03913209E-01
 -2.24932427E+00  2.64678908E+00 -2.24932427E+00  2.64678908E+00  2.06094213E+00
  2.69006704E+00  2.69006704E+00 -7.92305604E+00  2.76705626E+00  2.06094213E+00
 -2.40989918E+00 -2.95201260E+00 -2.24932427E+00 -2.24932427E+00 -9.84915315E-01
  2.86545667E+00 -1.59900683E+00  2.65590022E+00 -2.96680911E+00  2.69006704E+00
 -2.96680911E+00  2.69006704E+00 -1.02044880E+00  2.46365496E+00  2.51012183E+00
  1.91971931E+00  2.64678908E+00  2.64678908E+00 -1.02044880E+00 -9.84915315E-01
 -9.84915315E-01 -9.84915315E-01 -5.95686987E+00 -1.59900683E+00 -2.40989918E+00
 -2.40989918E+00 -1.02044880E+00 -2.40989918E+00 -1.02044880E+00  2.06276436E+00
 -2.95201260E+00  2.51012183E+00  2.76705626E+00  2.86545667E+00  2.76705626E+00
  2.86545667E+00 -1.59900683E+00  2.86545667E+00  2.76705626E+00 -1.59900683E+00
  8.03913209E-01  8.03913209E-01  8.03913209E-01  2.65590022E+00 -7.92305604E+00
 -7.92305604E+00 -2.95201260E+00  2.51012183E+00 -7.92305604E+00 -2.95201260E+00
  2.51012183E+00  2.06094213E+00  2.06094213E+00  2.06094213E+00  2.06094213E+00
  2.65590022E+00  2.06094213E+00  2.06094213E+00  2.65590022E+00 -2.24932427E+00
 -2.24932427E+00 -2.24932427E+00 -2.24932427E+00 -2.24932427E+00 -2.24932427E+00
 -2.24932427E+00 -2.24932427E+00 -2.24932427E+00 -2.24932427E+00 -2.24932427E+00
 -2.24932427E+00 -2.96680911E+00  2.69006704E+00 -2.96680911E+00  2.69006704E+00
  2.69006704E+00 -2.96680911E+00  2.69006704E+00 -2.96680911E+00 -2.96680911E+00
  2.69006704E+00 -2.96680911E+00  2.69006704E+00 -2.96680911E+00  2.69006704E+00
 -2.96680911E+00  2.69006704E+00 -2.96680911E+00  2.69006704E+00 -2.96680911E+00
  2.69006704E+00 -2.96680911E+00  2.69006704E+00 -2.96680911E+00  2.69006704E+00
  1.91971931E+00  2.64678908E+00  2.64678908E+00  1.91971931E+00  2.64678908E+00
  2.64678908E+00  2.64678908E+00  1.91971931E+00  2.64678908E+00  1.91971931E+00
  2.64678908E+00  2.64678908E+00  1.91971931E+00  2.64678908E+00  2.64678908E+00
  1.91971931E+00  2.64678908E+00  2.64678908E+00 -5.95686987E+00 -5.95686987E+00
 -5.95686987E+00 -5.95686987E+00 -5.95686987E+00 -5.95686987E+00  2.06276436E+00
  2.06276436E+00  2.06276436E+00  2.06276436E+00  2.06276436E+00  2.06276436E+00
  8.03913209E-01  8.03913209E-01  8.03913209E-01  8.03913209E-01  8.03913209E-01
  8.03913209E-01  8.03913209E-01  8.03913209E-01  8.03913209E-01  8.03913209E-01
  8.03913209E-01  8.03913209E-01  8.03913209E-01  8.03913209E-01  8.03913209E-01
  8.03913209E-01  8.03913209E-01  8.03913209E-01 -5.95686987E+00  1.91971931E+00
  2.06276436E+00 -2.96680911E+00 -2.96680911E+00  8.03913209E-01  8.03913209E-01
  8.03913209E-01 -2.24932427E+00  2.64678908E+00 -2.24932427E+00  2.64678908E+00
  2.06094213E+00  2.69006704E+00  2.69006704E+00 -7.92305604E+00  2.76705626E+00
  2.06094213E+00 -2.40989918E+00 -2.95201260E+00 -2.24932427E+00 -2.24932427E+00
 -9.84915315E-01  2.86545667E+00 -1.59900683E+00  2.65590022E+00 -2.96680911E+00
  2.69006704E+00 -2.96680911E+00  2.69006704E+00 -1.02044880E+00  2.46365496E+00
  2.51012183E+00  1.91971931E+00  2.64678908E+00  2.64678908E+00 -1.02044880E+00
 -9.84915315E-01 -9.84915315E-01 -9.84915315E-01 -5.95686987E+00 -1.59900683E+00
 -2.40989918E+00 -2.40989918E+00 -1.02044880E+00 -2.40989918E+00 -1.02044880E+00
  2.06276436E+00 -2.95201260E+00  2.51012183E+00  2.76705626E+00  2.86545667E+00
  2.76705626E+00  2.86545667E+00 -1.59900683E+00  2.86545667E+00  2.76705626E+00
 -1.59900683E+00  8.03913209E-01  8.03913209E-01  8.03913209E-01  2.65590022E+00
 -7.92305604E+00 -7.92305604E+00 -2.95201260E+00  2.51012183E+00 -7.92305604E+00
 -2.95201260E+00  2.51012183E+00  2.06094213E+00  2.06094213E+00  2.06094213E+00
  2.06094213E+00  2.65590022E+00  2.06094213E+00  2.06094213E+00  2.65590022E+00
 -2.24932427E+00 -2.24932427E+00 -2.24932427E+00 -2.24932427E+00 -2.24932427E+00
 -2.24932427E+00 -2.24932427E+00 -2.24932427E+00 -2.24932427E+00 -2.24932427E+00
 -2.24932427E+00 -2.24932427E+00 -2.96680911E+00  2.69006704E+00 -2.96680911E+00
  2.69006704E+00  2.69006704E+00 -2.96680911E+00  2.69006704E+00 -2.96680911E+00
 -2.96680911E+00  2.69006704E+00 -2.96680911E+00  2.69006704E+00 -2.96680911E+00
  2.69006704E+00 -2.96680911E+00  2.69006704E+00 -2.96680911E+00  2.69006704E+00
 -2.96680911E+00  2.69006704E+00 -2.96680911E+00  2.69006704E+00 -2.96680911E+00
  2.69006704E+00  1.91971931E+00  2.64678908E+00  2.64678908E+00  1.91971931E+00
  2.64678908E+00  2.64678908E+00  2.64678908E+00  1.91971931E+00  2.64678908E+00
  1.91971931E+00  2.64678908E+00  2.64678908E+00  1.91971931E+00  2.64678908E+00
  2.64678908E+00  1.91971931E+00  2.64678908E+00  2.64678908E+00 -5.95686987E+00
 -5.95686987E+00 -5.95686987E+00 -5.95686987E+00 -5.95686987E+00 -5.95686987E+00
  2.06276436E+00  2.06276436E+00  2.06276436E+00  2.06276436E+00  2.06276436E+00
  2.06276436E+00  8.03913209E-01  8.03913209E-01  8.03913209E-01  8.03913209E-01
  8.03913209E-01  8.03913209E-01  8.03913209E-01  8.03913209E-01  8.03913209E-01
  8.03913209E-01  8.03913209E-01  8.03913209E-01  8.03913209E-01  8.03913209E-01
  8.03913209E-01  8.03913209E-01  8.03913209E-01  8.03913209E-01 -5.95686987E+00
  1.91971931E+00  2.06276436E+00 -2.96680911E+00 -2.96680911E+00  8.03913209E-01
  8.03913209E-01  8.03913209E-01 -2.24932427E+00  2.64678908E+00 -2.24932427E+00
  2.64678908E+00  2.06094213E+00  2.69006704E+00  2.69006704E+00 -7.92305604E+00
  2.76705626E+00  2.06094213E+00 -2.40989918E+00 -2.95201260E+00 -2.24932427E+00
 -2.24932427E+00 -9.84915315E-01  2.86545667E+00 -1.59900683E+00  2.65590022E+00
 -2.96680911E+00  2.69006704E+00 -2.96680911E+00  2.69006704E+00 -1.02044880E+00
  2.46365496E+00  2.51012183E+00  1.91971931E+00  2.64678908E+00  2.64678908E+00
 -1.02044880E+00 -9.84915315E-01 -9.84915315E-01 -9.84915315E-01 -5.95686987E+00
 -1.59900683E+00 -2.40989918E+00 -2.40989918E+00 -1.02044880E+00 -2.40989918E+00
 -1.02044880E+00  2.06276436E+00 -2.95201260E+00  2.51012183E+00  2.76705626E+00
  2.86545667E+00  2.76705626E+00  2.86545667E+00 -1.59900683E+00  2.86545667E+00
  2.76705626E+00 -1.59900683E+00  8.03913209E-01  8.03913209E-01  8.03913209E-01
  2.65590022E+00 -7.92305604E+00 -7.92305604E+00 -2.95201260E+00  2.51012183E+00
 -7.92305604E+00 -2.95201260E+00  2.51012183E+00  2.06094213E+00  2.06094213E+00
  2.06094213E+00  2.06094213E+00  2.65590022E+00  2.06094213E+00  2.06094213E+00
  2.65590022E+00 -2.24932427E+00 -2.24932427E+00 -2.24932427E+00 -2.24932427E+00
 -2.24932427E+00 -2.24932427E+00 -2.24932427E+00 -2.24932427E+00 -2.24932427E+00
 -2.24932427E+00 -2.24932427E+00 -2.24932427E+00 -2.96680911E+00  2.69006704E+00
 -2.96680911E+00  2.69006704E+00  2.69006704E+00 -2.96680911E+00  2.69006704E+00
 -2.96680911E+00 -2.96680911E+00  2.69006704E+00 -2.96680911E+00  2.69006704E+00
 -2.96680911E+00  2.69006704E+00 -2.96680911E+00  2.69006704E+00 -2.96680911E+00
  2.69006704E+00 -2.96680911E+00  2.69006704E+00 -2.96680911E+00  2.69006704E+00
 -2.96680911E+00  2.69006704E+00  1.91971931E+00  2.64678908E+00  2.64678908E+00
  1.91971931E+00  2.64678908E+00  2.64678908E+00  2.64678908E+00  1.91971931E+00
  2.64678908E+00  1.91971931E+00  2.64678908E+00  2.64678908E+00  1.91971931E+00
  2.64678908E+00  2.64678908E+00  1.91971931E+00  2.64678908E+00  2.64678908E+00
 -5.95686987E+00 -5.95686987E+00 -5.95686987E+00 -5.95686987E+00 -5.95686987E+00
 -5.95686987E+00  2.06276436E+00  2.06276436E+00  2.06276436E+00  2.06276436E+00
  2.06276436E+00  2.06276436E+00  8.03913209E-01  8.03913209E-01  8.03913209E-01
  8.03913209E-01  8.03913209E-01  8.03913209E-01  8.03913209E-01  8.03913209E-01
  8.03913209E-01  8.03913209E-01  8.03913209E-01  8.03913209E-01  8.03913209E-01
  8.03913209E-01  8.03913209E-01  8.03913209E-01  8.03913209E-01  8.03913209E-01
 -5.95686987E+00  1.91971931E+00  2.06276436E+00 -2.96680911E+00 -2.96680911E+00
  8.03913209E-01  8.03913209E-01  8.03913209E-01 -2.24932427E+00  2.64678908E+00
 -2.24932427E+00  2.64678908E+00  2.06094213E+00  2.69006704E+00  2.69006704E+00
 -7.92305604E+00  2.76705626E+00  2.06094213E+00 -2.40989918E+00 -2.95201260E+00
 -2.24932427E+00 -2.24932427E+00 -9.84915315E-01  2.86545667E+00 -1.59900683E+00
  2.65590022E+00 -2.96680911E+00  2.69006704E+00 -2.96680911E+00  2.69006704E+00
 -1.02044880E+00  2.46365496E+00  2.51012183E+00  1.91971931E+00  2.64678908E+00
  2.64678908E+00 -1.02044880E+00 -9.84915315E-01 -9.84915315E-01 -9.84915315E-01
 -5.95686987E+00 -1.59900683E+00 -2.40989918E+00 -2.40989918E+00 -1.02044880E+00
 -2.40989918E+00 -1.02044880E+00  2.06276436E+00 -2.95201260E+00  2.51012183E+00
  2.76705626E+00  2.86545667E+00  2.76705626E+00  2.86545667E+00 -1.59900683E+00
  2.86545667E+00  2.76705626E+00 -1.59900683E+00  8.03913209E-01  8.03913209E-01
  8.03913209E-01  2.65590022E+00 -7.92305604E+00 -7.92305604E+00 -2.95201260E+00
  2.51012183E+00 -7.92305604E+00 -2.95201260E+00  2.51012183E+00  2.06094213E+00
  2.06094213E+00  2.06094213E+00  2.06094213E+00  2.65590022E+00  2.06094213E+00
  2.06094213E+00  2.65590022E+00 -2.24932427E+00 -2.24932427E+00 -2.24932427E+00
 -2.24932427E+00 -2.24932427E+00 -2.24932427E+00 -2.24932427E+00 -2.24932427E+00
 -2.24932427E+00 -2.24932427E+00 -2.24932427E+00 -2.24932427E+00 -2.96680911E+00
  2.69006704E+00 -2.96680911E+00  2.69006704E+00  2.69006704E+00 -2.96680911E+00
  2.69006704E+00 -2.96680911E+00 -2.96680911E+00  2.69006704E+00 -2.96680911E+00
  2.69006704E+00 -2.96680911E+00  2.69006704E+00 -2.96680911E+00  2.69006704E+00
 -2.96680911E+00  2.69006704E+00 -2.96680911E+00  2.69006704E+00 -2.96680911E+00
  2.69006704E+00 -2.96680911E+00  2.69006704E+00  1.91971931E+00  2.64678908E+00
  2.64678908E+00  1.91971931E+00  2.64678908E+00  2.64678908E+00  2.64678908E+00
  1.91971931E+00  2.64678908E+00  1.91971931E+00  2.64678908E+00  2.64678908E+00
  1.91971931E+00  2.64678908E+00  2.64678908E+00  1.91971931E+00  2.64678908E+00
  2.64678908E+00 -5.95686987E+00 -5.95686987E+00 -5.95686987E+00 -5.95686987E+00
 -5.95686987E+00 -5.95686987E+00  2.06276436E+00  2.06276436E+00  2.06276436E+00
  2.06276436E+00  2.06276436E+00  2.06276436E+00  8.03913209E-01  8.03913209E-01
  8.03913209E-01  8.03913209E-01  8.03913209E-01  8.03913209E-01  8.03913209E-01
  8.03913209E-01  8.03913209E-01  8.03913209E-01  8.03913209E-01  8.03913209E-01
  8.03913209E-01  8.03913209E-01  8.03913209E-01  8.03913209E-01  8.03913209E-01
  8.03913209E-01 -5.95686987E+00  1.91971931E+00  2.06276436E+00 -2.96680911E+00
 -2.96680911E+00  8.03913209E-01  8.03913209E-01  8.03913209E-01 -2.24932427E+00
  2.64678908E+00 -2.24932427E+00  2.64678908E+00  2.06094213E+00  2.69006704E+00
  2.69006704E+00 -7.92305604E+00  2.76705626E+00  2.06094213E+00 -2.40989918E+00
 -2.95201260E+00 -2.24932427E+00 -2.24932427E+00 -9.84915315E-01  2.86545667E+00
 -1.59900683E+00  2.65590022E+00 -2.96680911E+00  2.69006704E+00 -2.96680911E+00
  2.69006704E+00 -1.02044880E+00  2.46365496E+00  2.51012183E+00  1.91971931E+00
  2.64678908E+00  2.64678908E+00 -1.02044880E+00 -9.84915315E-01 -9.84915315E-01
 -9.84915315E-01 -5.95686987E+00 -1.59900683E+00 -2.40989918E+00 -2.40989918E+00
 -1.02044880E+00 -2.40989918E+00 -1.02044880E+00  2.06276436E+00 -2.95201260E+00
  2.51012183E+00  2.76705626E+00  2.86545667E+00  2.76705626E+00  2.86545667E+00
 -1.59900683E+00  2.86545667E+00  2.76705626E+00 -1.59900683E+00  8.03913209E-01
  8.03913209E-01  8.03913209E-01  2.65590022E+00 -7.92305604E+00 -7.92305604E+00
 -2.95201260E+00  2.51012183E+00 -7.92305604E+00 -2.95201260E+00  2.51012183E+00
  2.06094213E+00  2.06094213E+00  2.06094213E+00  2.06094213E+00  2.65590022E+00
  2.06094213E+00  2.06094213E+00  2.65590022E+00 -2.24932427E+00 -2.24932427E+00
 -2.24932427E+00 -2.24932427E+00 -2.24932427E+00 -2.24932427E+00 -2.24932427E+00
 -2.24932427E+00 -2.24932427E+00 -2.24932427E+00 -2.24932427E+00 -2.24932427E+00
 -2.96680911E+00  2.69006704E+00 -2.96680911E+00  2.69006704E+00  2.69006704E+00
 -2.96680911E+00  2.69006704E+00 -2.96680911E+00 -2.96680911E+00  2.69006704E+00
 -2.96680911E+00  2.69006704E+00 -2.96680911E+00  2.69006704E+00 -2.96680911E+00
  2.69006704E+00 -2.96680911E+00  2.69006704E+00 -2.96680911E+00  2.69006704E+00
 -2.96680911E+00  2.69006704E+00 -2.96680911E+00  2.69006704E+00  1.91971931E+00
  2.64678908E+00  2.64678908E+00  1.91971931E+00  2.64678908E+00  2.64678908E+00
  2.64678908E+00  1.91971931E+00  2.64678908E+00  1.91971931E+00  2.64678908E+00
  2.64678908E+00  1.91971931E+00  2.64678908E+00  2.64678908E+00  1.91971931E+00
  2.64678908E+00  2.64678908E+00 -5.95686987E+00 -5.95686987E+00 -5.95686987E+00
 -5.95686987E+00 -5.95686987E+00 -5.95686987E+00  2.06276436E+00  2.06276436E+00
  2.06276436E+00  2.06276436E+00  2.06276436E+00  2.06276436E+00  8.03913209E-01
  8.03913209E-01  8.03913209E-01  8.03913209E-01  8.03913209E-01  8.03913209E-01
  8.03913209E-01  8.03913209E-01  8.03913209E-01  8.03913209E-01  8.03913209E-01
  8.03913209E-01  8.03913209E-01  8.03913209E-01  8.03913209E-01  8.03913209E-01
  8.03913209E-01  8.03913209E-01 -5.95686987E+00  1.91971931E+00  2.06276436E+00
 -2.96680911E+00 -2.96680911E+00  8.03913209E-01  8.03913209E-01  8.03913209E-01
 -2.24932427E+00  2.64678908E+00 -2.24932427E+00  2.64678908E+00  2.06094213E+00
  2.69006704E+00  2.69006704E+00 -7.92305604E+00  2.76705626E+00  2.06094213E+00
 -2.40989918E+00 -2.95201260E+00 -2.24932427E+00 -2.24932427E+00 -9.84915315E-01
  2.86545667E+00 -1.59900683E+00  2.65590022E+00 -2.96680911E+00  2.69006704E+00
 -2.96680911E+00  2.69006704E+00 -1.02044880E+00  2.46365496E+00  2.51012183E+00
  1.91971931E+00  2.64678908E+00  2.64678908E+00 -1.02044880E+00 -9.84915315E-01
 -9.84915315E-01 -9.84915315E-01 -5.95686987E+00 -1.59900683E+00 -2.40989918E+00
 -2.40989918E+00 -1.02044880E+00 -2.40989918E+00 -1.02044880E+00  2.06276436E+00
 -2.95201260E+00  2.51012183E+00  2.76705626E+00  2.86545667E+00  2.76705626E+00
  2.86545667E+00 -1.59900683E+00  2.86545667E+00  2.76705626E+00 -1.59900683E+00
  8.03913209E-01  8.03913209E-01  8.03913209E-01  2.65590022E+00 -7.92305604E+00
 -7.92305604E+00 -2.95201260E+00  2.51012183E+00 -7.92305604E+00 -2.95201260E+00
  2.51012183E+00  2.06094213E+00  2.06094213E+00  2.06094213E+00  2.06094213E+00
  2.65590022E+00  2.06094213E+00  2.06094213E+00  2.65590022E+00 -2.24932427E+00
 -2.24932427E+00 -2.24932427E+00 -2.24932427E+00 -2.24932427E+00 -2.24932427E+00
 -2.24932427E+00 -2.24932427E+00 -2.24932427E+00 -2.24932427E+00 -2.24932427E+00
 -2.24932427E+00 -2.96680911E+00  2.69006704E+00 -2.96680911E+00  2.69006704E+00
  2.69006704E+00 -2.96680911E+00  2.69006704E+00 -2.96680911E+00 -2.96680911E+00
  2.69006704E+00 -2.96680911E+00  2.69006704E+00 -2.96680911E+00  2.69006704E+00
 -2.96680911E+00  2.69006704E+00 -2.96680911E+00  2.69006704E+00 -2.96680911E+00
  2.69006704E+00 -2.96680911E+00  2.69006704E+00 -2.96680911E+00  2.69006704E+00
  1.91971931E+00  2.64678908E+00  2.64678908E+00  1.91971931E+00  2.64678908E+00
  2.64678908E+00  2.64678908E+00  1.91971931E+00  2.64678908E+00  1.91971931E+00
  2.64678908E+00  2.64678908E+00  1.91971931E+00  2.64678908E+00  2.64678908E+00
  1.91971931E+00  2.64678908E+00  2.64678908E+00 -5.95686987E+00 -5.95686987E+00
 -5.95686987E+00 -5.95686987E+00 -5.95686987E+00 -5.95686987E+00  2.06276436E+00
  2.06276436E+00  2.06276436E+00  2.06276436E+00  2.06276436E+00  2.06276436E+00
  8.03913209E-01  8.03913209E-01  8.03913209E-01  8.03913209E-01  8.03913209E-01
  8.03913209E-01  8.03913209E-01  8.03913209E-01  8.03913209E-01  8.03913209E-01
  8.03913209E-01  8.03913209E-01  8.03913209E-01  8.03913209E-01  8.03913209E-01
  8.03913209E-01  8.03913209E-01  8.03913209E-01 -5.95686987E+00  1.91971931E+00
  2.06276436E+00 -2.96680911E+00 -2.96680911E+00  8.03913209E-01  8.03913209E-01
  8.03913209E-01 -2.24932427E+00  2.64678908E+00 -2.24932427E+00  2.64678908E+00
  2.06094213E+00  2.69006704E+00  2.69006704E+00 -7.92305604E+00  2.76705626E+00
  2.06094213E+00 -2.40989918E+00 -2.95201260E+00 -2.24932427E+00 -2.24932427E+00
 -9.84915315E-01  2.86545667E+00 -1.59900683E+00  2.65590022E+00 -2.96680911E+00
  2.69006704E+00 -2.96680911E+00  2.69006704E+00 -1.02044880E+00  2.46365496E+00
  2.51012183E+00  1.91971931E+00  2.64678908E+00  2.64678908E+00 -1.02044880E+00
 -9.84915315E-01 -9.84915315E-01 -9.84915315E-01 -5.95686987E+00 -1.59900683E+00
 -2.40989918E+00 -2.40989918E+00 -1.02044880E+00 -2.40989918E+00 -1.02044880E+00
  2.06276436E+00 -2.95201260E+00  2.51012183E+00  2.76705626E+00  2.86545667E+00
  2.76705626E+00  2.86545667E+00 -1.59900683E+00  2.86545667E+00  2.76705626E+00
 -1.59900683E+00  8.03913209E-01  8.03913209E-01  8.03913209E-01  2.65590022E+00
 -7.92305604E+00 -7.92305604E+00 -2.95201260E+00  2.51012183E+00 -7.92305604E+00
 -2.95201260E+00  2.51012183E+00  2.06094213E+00  2.06094213E+00  2.06094213E+00
  2.06094213E+00  2.65590022E+00  2.06094213E+00  2.06094213E+00  2.65590022E+00
 -2.24932427E+00 -2.24932427E+00 -2.24932427E+00 -2.24932427E+00 -2.24932427E+00
 -2.24932427E+00 -2.24932427E+00 -2.24932427E+00 -2.24932427E+00 -2.24932427E+00
 -2.24932427E+00 -2.24932427E+00 -2.96680911E+00  2.69006704E+00 -2.96680911E+00
  2.69006704E+00  2.69006704E+00 -2.96680911E+00  2.69006704E+00 -2.96680911E+00
 -2.96680911E+00  2.69006704E+00 -2.96680911E+00  2.69006704E+00 -2.96680911E+00
  2.69006704E+00 -2.96680911E+00  2.69006704E+00 -2.96680911E+00  2.69006704E+00
 -2.96680911E+00  2.69006704E+00 -2.96680911E+00  2.69006704E+00 -2.96680911E+00
  2.69006704E+00  1.91971931E+00  2.64678908E+00  2.64678908E+00  1.91971931E+00
  2.64678908E+00  2.64678908E+00  2.64678908E+00  1.91971931E+00  2.64678908E+00
  1.91971931E+00  2.64678908E+00  2.64678908E+00  1.91971931E+00  2.64678908E+00
  2.64678908E+00  1.91971931E+00  2.64678908E+00  2.64678908E+00 -5.95686987E+00
 -5.95686987E+00 -5.95686987E+00 -5.95686987E+00 -5.95686987E+00 -5.95686987E+00
  2.06276436E+00  2.06276436E+00  2.06276436E+00  2.06276436E+00  2.06276436E+00
  2.06276436E+00  8.03913209E-01  8.03913209E-01  8.03913209E-01  8.03913209E-01
  8.03913209E-01  8.03913209E-01  8.03913209E-01  8.03913209E-01  8.03913209E-01
  8.03913209E-01  8.03913209E-01  8.03913209E-01  8.03913209E-01  8.03913209E-01
  8.03913209E-01  8.03913209E-01  8.03913209E-01  8.03913209E-01 -5.95686987E+00
  1.91971931E+00  2.06276436E+00 -2.96680911E+00 -2.96680911E+00  8.03913209E-01
  8.03913209E-01  8.03913209E-01 -2.24932427E+00  2.64678908E+00 -2.24932427E+00
  2.64678908E+00  2.06094213E+00  2.69006704E+00  2.69006704E+00 -7.92305604E+00
  2.76705626E+00  2.06094213E+00 -2.40989918E+00 -2.95201260E+00 -2.24932427E+00
 -2.24932427E+00 -9.84915315E-01  2.86545667E+00 -1.59900683E+00  2.65590022E+00
 -2.96680911E+00  2.69006704E+00 -2.96680911E+00  2.69006704E+00 -1.02044880E+00
  2.46365496E+00  2.51012183E+00  1.91971931E+00  2.64678908E+00  2.64678908E+00
 -1.02044880E+00 -9.84915315E-01 -9.84915315E-01 -9.84915315E-01 -5.95686987E+00
 -1.59900683E+00 -2.40989918E+00 -2.40989918E+00 -1.02044880E+00 -2.40989918E+00
 -1.02044880E+00  2.06276436E+00 -2.95201260E+00  2.51012183E+00  2.76705626E+00
  2.86545667E+00  2.76705626E+00  2.86545667E+00 -1.59900683E+00  2.86545667E+00
  2.76705626E+00 -1.59900683E+00  8.03913209E-01  8.03913209E-01  8.03913209E-01
  2.65590022E+00 -7.92305604E+00 -7.92305604E+00 -2.95201260E+00  2.51012183E+00
 -7.92305604E+00 -2.95201260E+00  2.51012183E+00  2.06094213E+00  2.06094213E+00
  2.06094213E+00  2.06094213E+00  2.65590022E+00  2.06094213E+00  2.06094213E+00
  2.65590022E+00 -2.24932427E+00 -2.24932427E+00 -2.24932427E+00 -2.24932427E+00
 -2.24932427E+00 -2.24932427E+00 -2.24932427E+00 -2.24932427E+00 -2.24932427E+00
 -2.24932427E+00 -2.24932427E+00 -2.24932427E+00 -2.96680911E+00  2.69006704E+00
 -2.96680911E+00  2.69006704E+00  2.69006704E+00 -2.96680911E+00  2.69006704E+00
 -2.96680911E+00 -2.96680911E+00  2.69006704E+00 -2.96680911E+00  2.69006704E+00
 -2.96680911E+00  2.69006704E+00 -2.96680911E+00  2.69006704E+00 -2.96680911E+00
  2.69006704E+00 -2.96680911E+00  2.69006704E+00 -2.96680911E+00  2.69006704E+00
 -2.96680911E+00  2.69006704E+00  1.91971931E+00  2.64678908E+00  2.64678908E+00
  1.91971931E+00  2.64678908E+00  2.64678908E+00  2.64678908E+00  1.91971931E+00
  2.64678908E+00  1.91971931E+00  2.64678908E+00  2.64678908E+00  1.91971931E+00
  2.64678908E+00  2.64678908E+00  1.91971931E+00  2.64678908E+00  2.64678908E+00
 -5.95686987E+00 -5.95686987E+00 -5.95686987E+00 -5.95686987E+00 -5.95686987E+00
 -5.95686987E+00  2.06276436E+00  2.06276436E+00  2.06276436E+00  2.06276436E+00
  2.06276436E+00  2.06276436E+00  8.03913209E-01  8.03913209E-01  8.03913209E-01
  8.03913209E-01  8.03913209E-01  8.03913209E-01  8.03913209E-01  8.03913209E-01
  8.03913209E-01  8.03913209E-01  8.03913209E-01  8.03913209E-01  8.03913209E-01
  8.03913209E-01  8.03913209E-01  8.03913209E-01  8.03913209E-01  8.03913209E-01
 -5.95686987E+00  1.91971931E+00  2.06276436E+00 -2.96680911E+00 -2.96680911E+00
  8.03913209E-01  8.03913209E-01  8.03913209E-01 -2.24932427E+00  2.64678908E+00
 -2.24932427E+00  2.64678908E+00  2.06094213E+00  2.69006704E+00  2.69006704E+00
 -7.92305604E+00  2.76705626E+00  2.06094213E+00 -2.40989918E+00 -2.95201260E+00
 -2.24932427E+00 -2.24932427E+00 -9.84915315E-01  2.86545667E+00 -1.59900683E+00
  2.65590022E+00 -2.96680911E+00  2.69006704E+00 -2.96680911E+00  2.69006704E+00
 -1.02044880E+00  2.46365496E+00  2.51012183E+00  1.91971931E+00  2.64678908E+00
  2.64678908E+00 -1.02044880E+00 -9.84915315E-01 -9.84915315E-01 -9.84915315E-01
 -5.95686987E+00 -1.59900683E+00 -2.40989918E+00 -2.40989918E+00 -1.02044880E+00
 -2.40989918E+00 -1.02044880E+00  2.06276436E+00 -2.95201260E+00  2.51012183E+00
  2.76705626E+00  2.86545667E+00  2.76705626E+00  2.86545667E+00 -1.59900683E+00
  2.86545667E+00  2.76705626E+00 -1.59900683E+00  8.03913209E-01  8.03913209E-01
  8.03913209E-01  2.65590022E+00 -7.92305604E+00 -7.92305604E+00 -2.95201260E+00
  2.51012183E+00 -7.92305604E+00 -2.95201260E+00  2.51012183E+00  2.06094213E+00
  2.06094213E+00  2.06094213E+00  2.06094213E+00  2.65590022E+00  2.06094213E+00
  2.06094213E+00  2.65590022E+00 -2.24932427E+00 -2.24932427E+00 -2.24932427E+00
 -2.24932427E+00 -2.24932427E+00 -2.24932427E+00 -2.24932427E+00 -2.24932427E+00
 -2.24932427E+00 -2.24932427E+00 -2.24932427E+00 -2.24932427E+00 -2.96680911E+00
  2.69006704E+00 -2.96680911E+00  2.69006704E+00  2.69006704E+00 -2.96680911E+00
  2.69006704E+00 -2.96680911E+00 -2.96680911E+00  2.69006704E+00 -2.96680911E+00
  2.69006704E+00 -2.96680911E+00  2.69006704E+00 -2.96680911E+00  2.69006704E+00
 -2.96680911E+00  2.69006704E+00 -2.96680911E+00  2.69006704E+00 -2.96680911E+00
  2.69006704E+00 -2.96680911E+00  2.69006704E+00  1.91971931E+00  2.64678908E+00
  2.64678908E+00  1.91971931E+00  2.64678908E+00  2.64678908E+00  2.64678908E+00
  1.91971931E+00  2.64678908E+00  1.91971931E+00  2.64678908E+00  2.64678908E+00
  1.91971931E+00  2.64678908E+00  2.64678908E+00  1.91971931E+00  2.64678908E+00
  2.64678908E+00 -5.95686987E+00 -5.95686987E+00 -5.95686987E+00 -5.95686987E+00
 -5.95686987E+00 -5.95686987E+00  2.06276436E+00  2.06276436E+00  2.06276436E+00
  2.06276436E+00  2.06276436E+00  2.06276436E+00  8.03913209E-01  8.03913209E-01
  8.03913209E-01  8.03913209E-01  8.03913209E-01  8.03913209E-01  8.03913209E-01
  8.03913209E-01  8.03913209E-01  8.03913209E-01  8.03913209E-01  8.03913209E-01
  8.03913209E-01  8.03913209E-01  8.03913209E-01  8.03913209E-01  8.03913209E-01
  8.03913209E-01 -5.95686987E+00  1.91971931E+00  2.06276436E+00 -2.96680911E+00
 -2.96680911E+00  8.03913209E-01  8.03913209E-01  8.03913209E-01 -2.24932427E+00
  2.64678908E+00 -2.24932427E+00  2.64678908E+00  2.06094213E+00  2.69006704E+00
  2.69006704E+00 -7.92305604E+00  2.76705626E+00  2.06094213E+00 -2.40989918E+00
 -2.95201260E+00 -2.24932427E+00 -2.24932427E+00 -9.84915315E-01  2.86545667E+00
 -1.59900683E+00  2.65590022E+00 -2.96680911E+00  2.69006704E+00 -2.96680911E+00
  2.69006704E+00 -1.02044880E+00  2.46365496E+00  2.51012183E+00  1.91971931E+00
  2.64678908E+00  2.64678908E+00 -1.02044880E+00 -9.84915315E-01 -9.84915315E-01
 -9.84915315E-01 -5.95686987E+00 -1.59900683E+00 -2.40989918E+00 -2.40989918E+00
 -1.02044880E+00 -2.40989918E+00 -1.02044880E+00  2.06276436E+00 -2.95201260E+00
  2.51012183E+00  2.76705626E+00  2.86545667E+00  2.76705626E+00  2.86545667E+00
 -1.59900683E+00  2.86545667E+00  2.76705626E+00 -1.59900683E+00  8.03913209E-01
  8.03913209E-01  8.03913209E-01  2.65590022E+00 -7.92305604E+00 -7.92305604E+00
 -2.95201260E+00  2.51012183E+00 -7.92305604E+00 -2.95201260E+00  2.51012183E+00
  2.06094213E+00  2.06094213E+00  2.06094213E+00  2.06094213E+00  2.65590022E+00
  2.06094213E+00  2.06094213E+00  2.65590022E+00 -2.24932427E+00 -2.24932427E+00
 -2.24932427E+00 -2.24932427E+00 -2.24932427E+00 -2.24932427E+00 -2.24932427E+00
 -2.24932427E+00 -2.24932427E+00 -2.24932427E+00 -2.24932427E+00 -2.24932427E+00
 -2.96680911E+00  2.69006704E+00 -2.96680911E+00  2.69006704E+00  2.69006704E+00
 -2.96680911E+00  2.69006704E+00 -2.96680911E+00 -2.96680911E+00  2.69006704E+00
 -2.96680911E+00  2.69006704E+00 -2.96680911E+00  2.69006704E+00 -2.96680911E+00
  2.69006704E+00 -2.96680911E+00  2.69006704E+00 -2.96680911E+00  2.69006704E+00
 -2.96680911E+00  2.69006704E+00 -2.96680911E+00  2.69006704E+00  1.91971931E+00
  2.64678908E+00  2.64678908E+00  1.91971931E+00  2.64678908E+00  2.64678908E+00
  2.64678908E+00  1.91971931E+00  2.64678908E+00  1.91971931E+00  2.64678908E+00
  2.64678908E+00  1.91971931E+00  2.64678908E+00  2.64678908E+00  1.91971931E+00
  2.64678908E+00  2.64678908E+00 -5.95686987E+00 -5.95686987E+00 -5.95686987E+00
 -5.95686987E+00 -5.95686987E+00 -5.95686987E+00  2.06276436E+00  2.06276436E+00
  2.06276436E+00  2.06276436E+00  2.06276436E+00  2.06276436E+00  8.03913209E-01
  8.03913209E-01  8.03913209E-01  8.03913209E-01  8.03913209E-01  8.03913209E-01
  8.03913209E-01  8.03913209E-01  8.03913209E-01  8.03913209E-01  8.03913209E-01
  8.03913209E-01  8.03913209E-01  8.03913209E-01  8.03913209E-01  8.03913209E-01
  8.03913209E-01  8.03913209E-01 -5.95686987E+00  1.91971931E+00  2.06276436E+00
 -2.96680911E+00 -2.96680911E+00  8.03913209E-01  8.03913209E-01  8.03913209E-01
 -2.24932427E+00  2.64678908E+00 -2.24932427E+00  2.64678908E+00  2.06094213E+00
  2.69006704E+00  2.69006704E+00 -7.92305604E+00  2.76705626E+00  2.06094213E+00
 -2.40989918E+00 -2.95201260E+00 -2.24932427E+00 -2.24932427E+00 -9.84915315E-01
  2.86545667E+00 -1.59900683E+00  2.65590022E+00 -2.96680911E+00  2.69006704E+00
 -2.96680911E+00  2.69006704E+00 -1.02044880E+00  2.46365496E+00  2.51012183E+00
  1.91971931E+00  2.64678908E+00  2.64678908E+00 -1.02044880E+00 -9.84915315E-01
 -9.84915315E-01 -9.84915315E-01 -5.95686987E+00 -1.59900683E+00 -2.40989918E+00
 -2.40989918E+00 -1.02044880E+00 -2.40989918E+00 -1.02044880E+00  2.06276436E+00
 -2.95201260E+00  2.51012183E+00  2.76705626E+00  2.86545667E+00  2.76705626E+00
  2.86545667E+00 -1.59900683E+00  2.86545667E+00  2.76705626E+00 -1.59900683E+00
  8.03913209E-01  8.03913209E-01  8.03913209E-01  2.65590022E+00 -7.92305604E+00
 -7.92305604E+00 -2.95201260E+00  2.51012183E+00 -7.92305604E+00 -2.95201260E+00
  2.51012183E+00  2.06094213E+00  2.06094213E+00  2.06094213E+00  2.06094213E+00
  2.65590022E+00  2.06094213E+00  2.06094213E+00  2.65590022E+00 -2.24932427E+00
 -2.24932427E+00 -2.24932427E+00 -2.24932427E+00 -2.24932427E+00 -2.24932427E+00
 -2.24932427E+00 -2.24932427E+00 -2.24932427E+00 -2.24932427E+00 -2.24932427E+00
 -2.24932427E+00 -2.96680911E+00  2.69006704E+00 -2.96680911E+00  2.69006704E+00
  2.69006704E+00 -2.96680911E+00  2.69006704E+00 -2.96680911E+00 -2.96680911E+00
  2.69006704E+00 -2.96680911E+00  2.69006704E+00 -2.96680911E+00  2.69006704E+00
 -2.96680911E+00  2.69006704E+00 -2.96680911E+00  2.69006704E+00 -2.96680911E+00
  2.69006704E+00 -2.96680911E+00  2.69006704E+00 -2.96680911E+00  2.69006704E+00
  1.91971931E+00  2.64678908E+00  2.64678908E+00  1.91971931E+00  2.64678908E+00
  2.64678908E+00  2.64678908E+00  1.91971931E+00  2.64678908E+00  1.91971931E+00
  2.64678908E+00  2.64678908E+00  1.91971931E+00  2.64678908E+00  2.64678908E+00
  1.91971931E+00  2.64678908E+00  2.64678908E+00 -5.95686987E+00 -5.95686987E+00
 -5.95686987E+00 -5.95686987E+00 -5.95686987E+00 -5.95686987E+00  2.06276436E+00
  2.06276436E+00  2.06276436E+00  2.06276436E+00  2.06276436E+00  2.06276436E+00
  8.03913209E-01  8.03913209E-01  8.03913209E-01  8.03913209E-01  8.03913209E-01
  8.03913209E-01  8.03913209E-01  8.03913209E-01  8.03913209E-01  8.03913209E-01
  8.03913209E-01  8.03913209E-01  8.03913209E-01  8.03913209E-01  8.03913209E-01
  8.03913209E-01  8.03913209E-01  8.03913209E-01 -5.95686987E+00  1.91971931E+00
  2.06276436E+00 -2.96680911E+00 -2.96680911E+00  8.03913209E-01  8.03913209E-01
  8.03913209E-01 -2.24932427E+00  2.64678908E+00 -2.24932427E+00  2.64678908E+00
  2.06094213E+00  2.69006704E+00  2.69006704E+00 -7.92305604E+00  2.76705626E+00
  2.06094213E+00 -2.40989918E+00 -2.95201260E+00 -2.24932427E+00 -2.24932427E+00
 -9.84915315E-01  2.86545667E+00 -1.59900683E+00  2.65590022E+00 -2.96680911E+00
  2.69006704E+00 -2.96680911E+00  2.69006704E+00 -1.02044880E+00  2.46365496E+00
  2.51012183E+00  1.91971931E+00  2.64678908E+00  2.64678908E+00 -1.02044880E+00
 -9.84915315E-01 -9.84915315E-01 -9.84915315E-01 -5.95686987E+00 -1.59900683E+00
 -2.40989918E+00 -2.40989918E+00 -1.02044880E+00 -2.40989918E+00 -1.02044880E+00
  2.06276436E+00 -2.95201260E+00  2.51012183E+00  2.76705626E+00  2.86545667E+00
  2.76705626E+00  2.86545667E+00 -1.59900683E+00  2.86545667E+00  2.76705626E+00
 -1.59900683E+00  8.03913209E-01  8.03913209E-01  8.03913209E-01  2.65590022E+00
 -7.92305604E+00 -7.92305604E+00 -2.95201260E+00  2.51012183E+00 -7.92305604E+00
 -2.95201260E+00  2.51012183E+00  2.06094213E+00  2.06094213E+00  2.06094213E+00
  2.06094213E+00  2.65590022E+00  2.06094213E+00  2.06094213E+00  2.65590022E+00
 -2.24932427E+00 -2.24932427E+00 -2.24932427E+00 -2.24932427E+00 -2.24932427E+00
 -2.24932427E+00 -2.24932427E+00 -2.24932427E+00 -2.24932427E+00 -2.24932427E+00
 -2.24932427E+00 -2.24932427E+00 -2.96680911E+00  2.69006704E+00 -2.96680911E+00
  2.69006704E+00  2.69006704E+00 -2.96680911E+00  2.69006704E+00 -2.96680911E+00
 -2.96680911E+00  2.69006704E+00 -2.96680911E+00  2.69006704E+00 -2.96680911E+00
  2.69006704E+00 -2.96680911E+00  2.69006704E+00 -2.96680911E+00  2.69006704E+00
 -2.96680911E+00  2.69006704E+00 -2.96680911E+00  2.69006704E+00 -2.96680911E+00
  2.69006704E+00  1.91971931E+00  2.64678908E+00  2.64678908E+00  1.91971931E+00
  2.64678908E+00  2.64678908E+00  2.64678908E+00  1.91971931E+00  2.64678908E+00
  1.91971931E+00  2.64678908E+00  2.64678908E+00  1.91971931E+00  2.64678908E+00
  2.64678908E+00  1.91971931E+00  2.64678908E+00  2.64678908E+00 -5.95686987E+00
 -5.95686987E+00 -5.95686987E+00 -5.95686987E+00 -5.95686987E+00 -5.95686987E+00
  2.06276436E+00  2.06276436E+00  2.06276436E+00  2.06276436E+00  2.06276436E+00
  2.06276436E+00  8.03913209E-01  8.03913209E-01  8.03913209E-01  8.03913209E-01
  8.03913209E-01  8.03913209E-01  8.03913209E-01  8.03913209E-01  8.03913209E-01
  8.03913209E-01  8.03913209E-01  8.03913209E-01  8.03913209E-01  8.03913209E-01
  8.03913209E-01  8.03913209E-01  8.03913209E-01  8.03913209E-01 -5.95686987E+00
  1.91971931E+00  2.06276436E+00 -2.96680911E+00 -2.96680911E+00  8.03913209E-01
  8.03913209E-01  8.03913209E-01 -2.24932427E+00  2.64678908E+00 -2.24932427E+00
  2.64678908E+00  2.06094213E+00  2.69006704E+00  2.69006704E+00 -7.92305604E+00
  2.76705626E+00  2.06094213E+00 -2.40989918E+00 -2.95201260E+00 -2.24932427E+00
 -2.24932427E+00 -9.84915315E-01  2.86545667E+00 -1.59900683E+00  2.65590022E+00
 -2.96680911E+00  2.69006704E+00 -2.96680911E+00  2.69006704E+00 -1.02044880E+00
  2.46365496E+00  2.51012183E+00  1.91971931E+00  2.64678908E+00  2.64678908E+00
 -1.02044880E+00 -9.84915315E-01 -9.84915315E-01 -9.84915315E-01 -5.95686987E+00
 -1.59900683E+00 -2.40989918E+00 -2.40989918E+00 -1.02044880E+00 -2.40989918E+00
 -1.02044880E+00  2.06276436E+00 -2.95201260E+00  2.51012183E+00  2.76705626E+00
  2.86545667E+00  2.76705626E+00  2.86545667E+00 -1.59900683E+00  2.86545667E+00
  2.76705626E+00 -1.59900683E+00  8.03913209E-01  8.03913209E-01  8.03913209E-01
  2.65590022E+00 -7.92305604E+00 -7.92305604E+00 -2.95201260E+00  2.51012183E+00
 -7.92305604E+00 -2.95201260E+00  2.51012183E+00  2.06094213E+00  2.06094213E+00
  2.06094213E+00  2.06094213E+00  2.65590022E+00  2.06094213E+00  2.06094213E+00
  2.65590022E+00 -2.24932427E+00 -2.24932427E+00 -2.24932427E+00 -2.24932427E+00
 -2.24932427E+00 -2.24932427E+00 -2.24932427E+00 -2.24932427E+00 -2.24932427E+00
 -2.24932427E+00 -2.24932427E+00 -2.24932427E+00 -2.96680911E+00  2.69006704E+00
 -2.96680911E+00  2.69006704E+00  2.69006704E+00 -2.96680911E+00  2.69006704E+00
 -2.96680911E+00 -2.96680911E+00  2.69006704E+00 -2.96680911E+00  2.69006704E+00
 -2.96680911E+00  2.69006704E+00 -2.96680911E+00  2.69006704E+00 -2.96680911E+00
  2.69006704E+00 -2.96680911E+00  2.69006704E+00 -2.96680911E+00  2.69006704E+00
 -2.96680911E+00  2.69006704E+00  1.91971931E+00  2.64678908E+00  2.64678908E+00
  1.91971931E+00  2.64678908E+00  2.64678908E+00  2.64678908E+00  1.91971931E+00
  2.64678908E+00  1.91971931E+00  2.64678908E+00  2.64678908E+00  1.91971931E+00
  2.64678908E+00  2.64678908E+00  1.91971931E+00  2.64678908E+00  2.64678908E+00
 -5.95686987E+00 -5.95686987E+00 -5.95686987E+00 -5.95686987E+00 -5.95686987E+00
 -5.95686987E+00  2.06276436E+00  2.06276436E+00  2.06276436E+00  2.06276436E+00
  2.06276436E+00  2.06276436E+00  8.03913209E-01  8.03913209E-01  8.03913209E-01
  8.03913209E-01  8.03913209E-01  8.03913209E-01  8.03913209E-01  8.03913209E-01
  8.03913209E-01  8.03913209E-01  8.03913209E-01  8.03913209E-01  8.03913209E-01
  8.03913209E-01  8.03913209E-01  8.03913209E-01  8.03913209E-01  8.03913209E-01
 -5.95686987E+00  1.91971931E+00  2.06276436E+00 -2.96680911E+00 -2.96680911E+00
  8.03913209E-01  8.03913209E-01  8.03913209E-01 -2.24932427E+00  2.64678908E+00
 -2.24932427E+00  2.64678908E+00  2.06094213E+00  2.69006704E+00  2.69006704E+00
 -7.92305604E+00  2.76705626E+00  2.06094213E+00 -2.40989918E+00 -2.95201260E+00
 -2.24932427E+00 -2.24932427E+00 -9.84915315E-01  2.86545667E+00 -1.59900683E+00
  2.65590022E+00 -2.96680911E+00  2.69006704E+00 -2.96680911E+00  2.69006704E+00
 -1.02044880E+00  2.46365496E+00  2.51012183E+00  1.91971931E+00  2.64678908E+00
  2.64678908E+00 -1.02044880E+00 -9.84915315E-01 -9.84915315E-01 -9.84915315E-01
 -5.95686987E+00 -1.59900683E+00 -2.40989918E+00 -2.40989918E+00 -1.02044880E+00
 -2.40989918E+00 -1.02044880E+00  2.06276436E+00 -2.95201260E+00  2.51012183E+00
  2.76705626E+00  2.86545667E+00  2.76705626E+00  2.86545667E+00 -1.59900683E+00
  2.86545667E+00  2.76705626E+00 -1.59900683E+00  8.03913209E-01  8.03913209E-01
  8.03913209E-01  2.65590022E+00 -7.92305604E+00 -7.92305604E+00 -2.95201260E+00
  2.51012183E+00 -7.92305604E+00 -2.95201260E+00  2.51012183E+00  2.06094213E+00
  2.06094213E+00  2.06094213E+00  2.06094213E+00  2.65590022E+00  2.06094213E+00
  2.06094213E+00  2.65590022E+00 -2.24932427E+00 -2.24932427E+00 -2.24932427E+00
 -2.24932427E+00 -2.24932427E+00 -2.24932427E+00 -2.24932427E+00 -2.24932427E+00
 -2.24932427E+00 -2.24932427E+00 -2.24932427E+00 -2.24932427E+00 -2.96680911E+00
  2.69006704E+00 -2.96680911E+00  2.69006704E+00  2.69006704E+00 -2.96680911E+00
  2.69006704E+00 -2.96680911E+00 -2.96680911E+00  2.69006704E+00 -2.96680911E+00
  2.69006704E+00 -2.96680911E+00  2.69006704E+00 -2.96680911E+00  2.69006704E+00
 -2.96680911E+00  2.69006704E+00 -2.96680911E+00  2.69006704E+00 -2.96680911E+00
  2.69006704E+00 -2.96680911E+00  2.69006704E+00  1.91971931E+00  2.64678908E+00
  2.64678908E+00  1.91971931E+00  2.64678908E+00  2.64678908E+00  2.64678908E+00
  1.91971931E+00  2.64678908E+00  1.91971931E+00  2.64678908E+00  2.64678908E+00
  1.91971931E+00  2.64678908E+00  2.64678908E+00  1.91971931E+00  2.64678908E+00
  2.64678908E+00 -5.95686987E+00 -5.95686987E+00 -5.95686987E+00 -5.95686987E+00
 -5.95686987E+00 -5.95686987E+00  2.06276436E+00  2.06276436E+00  2.06276436E+00
  2.06276436E+00  2.06276436E+00  2.06276436E+00  8.03913209E-01  8.03913209E-01
  8.03913209E-01  8.03913209E-01  8.03913209E-01  8.03913209E-01  8.03913209E-01
  8.03913209E-01  8.03913209E-01  8.03913209E-01  8.03913209E-01  8.03913209E-01
  8.03913209E-01  8.03913209E-01  8.03913209E-01  8.03913209E-01  8.03913209E-01
  8.03913209E-01 -5.95686987E+00  1.91971931E+00  2.06276436E+00 -2.96680911E+00
 -2.96680911E+00  8.03913209E-01  8.03913209E-01  8.03913209E-01 -2.24932427E+00
  2.64678908E+00 -2.24932427E+00  2.64678908E+00  2.06094213E+00  2.69006704E+00
  2.69006704E+00 -7.92305604E+00  2.76705626E+00  2.06094213E+00 -2.40989918E+00
 -2.95201260E+00 -2.24932427E+00 -2.24932427E+00 -9.84915315E-01  2.86545667E+00
 -1.59900683E+00  2.65590022E+00 -2.96680911E+00  2.69006704E+00 -2.96680911E+00
  2.69006704E+00 -1.02044880E+00  2.46365496E+00  2.51012183E+00  1.91971931E+00
  2.64678908E+00  2.64678908E+00 -1.02044880E+00 -9.84915315E-01 -9.84915315E-01
 -9.84915315E-01 -5.95686987E+00 -1.59900683E+00 -2.40989918E+00 -2.40989918E+00
 -1.02044880E+00 -2.40989918E+00 -1.02044880E+00  2.06276436E+00 -2.95201260E+00
  2.51012183E+00  2.76705626E+00  2.86545667E+00  2.76705626E+00  2.86545667E+00
 -1.59900683E+00  2.86545667E+00  2.76705626E+00 -1.59900683E+00  8.03913209E-01
  8.03913209E-01  8.03913209E-01  2.65590022E+00 -7.92305604E+00 -7.92305604E+00
 -2.95201260E+00  2.51012183E+00 -7.92305604E+00 -2.95201260E+00  2.51012183E+00
  2.06094213E+00  2.06094213E+00  2.06094213E+00  2.06094213E+00  2.65590022E+00
  2.06094213E+00  2.06094213E+00  2.65590022E+00 -2.24932427E+00 -2.24932427E+00
 -2.24932427E+00 -2.24932427E+00 -2.24932427E+00 -2.24932427E+00 -2.24932427E+00
 -2.24932427E+00 -2.24932427E+00 -2.24932427E+00 -2.24932427E+00 -2.24932427E+00
 -2.96680911E+00  2.69006704E+00 -2.96680911E+00  2.69006704E+00  2.69006704E+00
 -2.96680911E+00  2.69006704E+00 -2.96680911E+00 -2.96680911E+00  2.69006704E+00
 -2.96680911E+00  2.69006704E+00 -2.96680911E+00  2.69006704E+00 -2.96680911E+00
  2.69006704E+00 -2.96680911E+00  2.69006704E+00 -2.96680911E+00  2.69006704E+00
 -2.96680911E+00  2.69006704E+00 -2.96680911E+00  2.69006704E+00  1.91971931E+00
  2.64678908E+00  2.64678908E+00  1.91971931E+00  2.64678908E+00  2.64678908E+00
  2.64678908E+00  1.91971931E+00  2.64678908E+00  1.91971931E+00  2.64678908E+00
  2.64678908E+00  1.91971931E+00  2.64678908E+00  2.64678908E+00  1.91971931E+00
  2.64678908E+00  2.64678908E+00 -5.95686987E+00 -5.95686987E+00 -5.95686987E+00
 -5.95686987E+00 -5.95686987E+00 -5.95686987E+00  2.06276436E+00  2.06276436E+00
  2.06276436E+00  2.06276436E+00  2.06276436E+00  2.06276436E+00  8.03913209E-01
  8.03913209E-01  8.03913209E-01  8.03913209E-01  8.03913209E-01  8.03913209E-01
  8.03913209E-01  8.03913209E-01  8.03913209E-01  8.03913209E-01  8.03913209E-01
  8.03913209E-01  8.03913209E-01  8.03913209E-01  8.03913209E-01  8.03913209E-01
  8.03913209E-01  8.03913209E-01 -5.95686987E+00  1.91971931E+00  2.06276436E+00
 -2.96680911E+00 -2.96680911E+00  8.03913209E-01  8.03913209E-01  8.03913209E-01
 -2.24932427E+00  2.64678908E+00 -2.24932427E+00  2.64678908E+00  2.06094213E+00
  2.69006704E+00  2.69006704E+00 -7.92305604E+00  2.76705626E+00  2.06094213E+00
 -2.40989918E+00 -2.95201260E+00 -2.24932427E+00 -2.24932427E+00 -9.84915315E-01
  2.86545667E+00 -1.59900683E+00  2.65590022E+00 -2.96680911E+00  2.69006704E+00
 -2.96680911E+00  2.69006704E+00 -1.02044880E+00  2.46365496E+00  2.51012183E+00
  1.91971931E+00  2.64678908E+00  2.64678908E+00 -1.02044880E+00 -9.84915315E-01
 -9.84915315E-01 -9.84915315E-01 -5.95686987E+00 -1.59900683E+00 -2.40989918E+00
 -2.40989918E+00 -1.02044880E+00 -2.40989918E+00 -1.02044880E+00  2.06276436E+00
 -2.95201260E+00  2.51012183E+00  2.76705626E+00  2.86545667E+00  2.76705626E+00
  2.86545667E+00 -1.59900683E+00  2.86545667E+00  2.76705626E+00 -1.59900683E+00
  8.03913209E-01  8.03913209E-01  8.03913209E-01  2.65590022E+00 -7.92305604E+00
 -7.92305604E+00 -2.95201260E+00  2.51012183E+00 -7.92305604E+00 -2.95201260E+00
  2.51012183E+00  2.06094213E+00  2.06094213E+00  2.06094213E+00  2.06094213E+00
  2.65590022E+00  2.06094213E+00  2.06094213E+00  2.65590022E+00 -2.24932427E+00
 -2.24932427E+00 -2.24932427E+00 -2.24932427E+00 -2.24932427E+00 -2.24932427E+00
 -2.24932427E+00 -2.24932427E+00 -2.24932427E+00 -2.24932427E+00 -2.24932427E+00
 -2.24932427E+00 -2.96680911E+00  2.69006704E+00 -2.96680911E+00  2.69006704E+00
  2.69006704E+00 -2.96680911E+00  2.69006704E+00 -2.96680911E+00 -2.96680911E+00
  2.69006704E+00 -2.96680911E+00  2.69006704E+00 -2.96680911E+00  2.69006704E+00
 -2.96680911E+00  2.69006704E+00 -2.96680911E+00  2.69006704E+00 -2.96680911E+00
  2.69006704E+00 -2.96680911E+00  2.69006704E+00 -2.96680911E+00  2.69006704E+00
  1.91971931E+00  2.64678908E+00  2.64678908E+00  1.91971931E+00  2.64678908E+00
  2.64678908E+00  2.64678908E+00  1.91971931E+00  2.64678908E+00  1.91971931E+00
  2.64678908E+00  2.64678908E+00  1.91971931E+00  2.64678908E+00  2.64678908E+00
  1.91971931E+00  2.64678908E+00  2.64678908E+00 -5.95686987E+00 -5.95686987E+00
 -5.95686987E+00 -5.95686987E+00 -5.95686987E+00 -5.95686987E+00  2.06276436E+00
  2.06276436E+00  2.06276436E+00  2.06276436E+00  2.06276436E+00  2.06276436E+00
  8.03913209E-01  8.03913209E-01  8.03913209E-01  8.03913209E-01  8.03913209E-01
  8.03913209E-01  8.03913209E-01  8.03913209E-01  8.03913209E-01  8.03913209E-01
  8.03913209E-01  8.03913209E-01  8.03913209E-01  8.03913209E-01  8.03913209E-01
  8.03913209E-01  8.03913209E-01  8.03913209E-01 -5.95686987E+00  1.91971931E+00
  2.06276436E+00 -2.96680911E+00 -2.96680911E+00  8.03913209E-01  8.03913209E-01
  8.03913209E-01 -2.24932427E+00  2.64678908E+00 -2.24932427E+00  2.64678908E+00
  2.06094213E+00  2.69006704E+00  2.69006704E+00 -7.92305604E+00  2.76705626E+00
  2.06094213E+00 -2.40989918E+00 -2.95201260E+00 -2.24932427E+00 -2.24932427E+00
 -9.84915315E-01  2.86545667E+00 -1.59900683E+00  2.65590022E+00 -2.96680911E+00
  2.69006704E+00 -2.96680911E+00  2.69006704E+00 -1.02044880E+00  2.46365496E+00
  2.51012183E+00  1.91971931E+00  2.64678908E+00  2.64678908E+00 -1.02044880E+00
 -9.84915315E-01 -9.84915315E-01 -9.84915315E-01 -5.95686987E+00 -1.59900683E+00
 -2.40989918E+00 -2.40989918E+00 -1.02044880E+00 -2.40989918E+00 -1.02044880E+00
  2.06276436E+00 -2.95201260E+00  2.51012183E+00  2.76705626E+00  2.86545667E+00
  2.76705626E+00  2.86545667E+00 -1.59900683E+00  2.86545667E+00  2.76705626E+00
 -1.59900683E+00  8.03913209E-01  8.03913209E-01  8.03913209E-01  2.65590022E+00
 -7.92305604E+00 -7.92305604E+00 -2.95201260E+00  2.51012183E+00 -7.92305604E+00
 -2.95201260E+00  2.51012183E+00  2.06094213E+00  2.06094213E+00  2.06094213E+00
  2.06094213E+00  2.65590022E+00  2.06094213E+00  2.06094213E+00  2.65590022E+00
 -2.24932427E+00 -2.24932427E+00 -2.24932427E+00 -2.24932427E+00 -2.24932427E+00
 -2.24932427E+00 -2.24932427E+00 -2.24932427E+00 -2.24932427E+00 -2.24932427E+00
 -2.24932427E+00 -2.24932427E+00 -2.96680911E+00  2.69006704E+00 -2.96680911E+00
  2.69006704E+00  2.69006704E+00 -2.96680911E+00  2.69006704E+00 -2.96680911E+00
 -2.96680911E+00  2.69006704E+00 -2.96680911E+00  2.69006704E+00 -2.96680911E+00
  2.69006704E+00 -2.96680911E+00  2.69006704E+00 -2.96680911E+00  2.69006704E+00
 -2.96680911E+00  2.69006704E+00 -2.96680911E+00  2.69006704E+00 -2.96680911E+00
  2.69006704E+00  1.91971931E+00  2.64678908E+00  2.64678908E+00  1.91971931E+00
  2.64678908E+00  2.64678908E+00  2.64678908E+00  1.91971931E+00  2.64678908E+00
  1.91971931E+00  2.64678908E+00  2.64678908E+00  1.91971931E+00  2.64678908E+00
  2.64678908E+00  1.91971931E+00  2.64678908E+00  2.64678908E+00 -5.95686987E+00
 -5.95686987E+00 -5.95686987E+00 -5.95686987E+00 -5.95686987E+00 -5.95686987E+00
  2.06276436E+00  2.06276436E+00  2.06276436E+00  2.06276436E+00  2.06276436E+00
  2.06276436E+00  8.03913209E-01  8.03913209E-01  8.03913209E-01  8.03913209E-01
  8.03913209E-01  8.03913209E-01  8.03913209E-01  8.03913209E-01  8.03913209E-01
  8.03913209E-01  8.03913209E-01  8.03913209E-01  8.03913209E-01  8.03913209E-01
  8.03913209E-01  8.03913209E-01  8.03913209E-01  8.03913209E-01 -5.95686987E+00
  1.91971931E+00  2.06276436E+00 -2.96680911E+00 -2.96680911E+00  8.03913209E-01
  8.03913209E-01  8.03913209E-01 -2.24932427E+00  2.64678908E+00 -2.24932427E+00
  2.64678908E+00  2.06094213E+00  2.69006704E+00  2.69006704E+00 -7.92305604E+00
  2.76705626E+00  2.06094213E+00 -2.40989918E+00 -2.95201260E+00 -2.24932427E+00
 -2.24932427E+00 -9.84915315E-01  2.86545667E+00 -1.59900683E+00  2.65590022E+00
 -2.96680911E+00  2.69006704E+00 -2.96680911E+00  2.69006704E+00 -1.02044880E+00
  2.46365496E+00  2.51012183E+00  1.91971931E+00  2.64678908E+00  2.64678908E+00
 -1.02044880E+00 -9.84915315E-01 -9.84915315E-01 -9.84915315E-01 -5.95686987E+00
 -1.59900683E+00 -2.40989918E+00 -2.40989918E+00 -1.02044880E+00 -2.40989918E+00
 -1.02044880E+00  2.06276436E+00 -2.95201260E+00  2.51012183E+00  2.76705626E+00
  2.86545667E+00  2.76705626E+00  2.86545667E+00 -1.59900683E+00  2.86545667E+00
  2.76705626E+00 -1.59900683E+00  8.03913209E-01  8.03913209E-01  8.03913209E-01
  2.65590022E+00 -7.92305604E+00 -7.92305604E+00 -2.95201260E+00  2.51012183E+00
 -7.92305604E+00 -2.95201260E+00  2.51012183E+00  2.06094213E+00  2.06094213E+00
  2.06094213E+00  2.06094213E+00  2.65590022E+00  2.06094213E+00  2.06094213E+00
  2.65590022E+00 -2.24932427E+00 -2.24932427E+00 -2.24932427E+00 -2.24932427E+00
 -2.24932427E+00 -2.24932427E+00 -2.24932427E+00 -2.24932427E+00 -2.24932427E+00
 -2.24932427E+00 -2.24932427E+00 -2.24932427E+00 -2.96680911E+00  2.69006704E+00
 -2.96680911E+00  2.69006704E+00  2.69006704E+00 -2.96680911E+00  2.69006704E+00
 -2.96680911E+00 -2.96680911E+00  2.69006704E+00 -2.96680911E+00  2.69006704E+00
 -2.96680911E+00  2.69006704E+00 -2.96680911E+00  2.69006704E+00 -2.96680911E+00
  2.69006704E+00 -2.96680911E+00  2.69006704E+00 -2.96680911E+00  2.69006704E+00
 -2.96680911E+00  2.69006704E+00  1.91971931E+00  2.64678908E+00  2.64678908E+00
  1.91971931E+00  2.64678908E+00  2.64678908E+00  2.64678908E+00  1.91971931E+00
  2.64678908E+00  1.91971931E+00  2.64678908E+00  2.64678908E+00  1.91971931E+00
  2.64678908E+00  2.64678908E+00  1.91971931E+00  2.64678908E+00  2.64678908E+00
 -5.95686987E+00 -5.95686987E+00 -5.95686987E+00 -5.95686987E+00 -5.95686987E+00
 -5.95686987E+00  2.06276436E+00  2.06276436E+00  2.06276436E+00  2.06276436E+00
  2.06276436E+00  2.06276436E+00  8.03913209E-01  8.03913209E-01  8.03913209E-01
  8.03913209E-01  8.03913209E-01  8.03913209E-01  8.03913209E-01  8.03913209E-01
  8.03913209E-01  8.03913209E-01  8.03913209E-01  8.03913209E-01  8.03913209E-01
  8.03913209E-01  8.03913209E-01  8.03913209E-01  8.03913209E-01  8.03913209E-01
 -5.95686987E+00  1.91971931E+00  2.06276436E+00 -2.96680911E+00 -2.96680911E+00
  8.03913209E-01  8.03913209E-01  8.03913209E-01 -2.24932427E+00  2.64678908E+00
 -2.24932427E+00  2.64678908E+00  2.06094213E+00  2.69006704E+00  2.69006704E+00
 -7.92305604E+00  2.76705626E+00  2.06094213E+00 -2.40989918E+00 -2.95201260E+00
 -2.24932427E+00 -2.24932427E+00 -9.84915315E-01  2.86545667E+00 -1.59900683E+00
  2.65590022E+00 -2.96680911E+00  2.69006704E+00 -2.96680911E+00  2.69006704E+00
 -1.02044880E+00  2.46365496E+00  2.51012183E+00  1.91971931E+00  2.64678908E+00
  2.64678908E+00 -1.02044880E+00 -9.84915315E-01 -9.84915315E-01 -9.84915315E-01
 -5.95686987E+00 -1.59900683E+00 -2.40989918E+00 -2.40989918E+00 -1.02044880E+00
 -2.40989918E+00 -1.02044880E+00  2.06276436E+00 -2.95201260E+00  2.51012183E+00
  2.76705626E+00  2.86545667E+00  2.76705626E+00  2.86545667E+00 -1.59900683E+00
  2.86545667E+00  2.76705626E+00 -1.59900683E+00  8.03913209E-01  8.03913209E-01
  8.03913209E-01  2.65590022E+00 -7.92305604E+00 -7.92305604E+00 -2.95201260E+00
  2.51012183E+00 -7.92305604E+00 -2.95201260E+00  2.51012183E+00  2.06094213E+00
  2.06094213E+00  2.06094213E+00  2.06094213E+00  2.65590022E+00  2.06094213E+00
  2.06094213E+00  2.65590022E+00 -2.24932427E+00 -2.24932427E+00 -2.24932427E+00
 -2.24932427E+00 -2.24932427E+00 -2.24932427E+00 -2.24932427E+00 -2.24932427E+00
 -2.24932427E+00 -2.24932427E+00 -2.24932427E+00 -2.24932427E+00 -2.96680911E+00
  2.69006704E+00 -2.96680911E+00  2.69006704E+00  2.69006704E+00 -2.96680911E+00
  2.69006704E+00 -2.96680911E+00 -2.96680911E+00  2.69006704E+00 -2.96680911E+00
  2.69006704E+00 -2.96680911E+00  2.69006704E+00 -2.96680911E+00  2.69006704E+00
 -2.96680911E+00  2.69006704E+00 -2.96680911E+00  2.69006704E+00 -2.96680911E+00
  2.69006704E+00 -2.96680911E+00  2.69006704E+00  1.91971931E+00  2.64678908E+00
  2.64678908E+00  1.91971931E+00  2.64678908E+00  2.64678908E+00  2.64678908E+00
  1.91971931E+00  2.64678908E+00  1.91971931E+00  2.64678908E+00  2.64678908E+00
  1.91971931E+00  2.64678908E+00  2.64678908E+00  1.91971931E+00  2.64678908E+00
  2.64678908E+00 -5.95686987E+00 -5.95686987E+00 -5.95686987E+00 -5.95686987E+00
 -5.95686987E+00 -5.95686987E+00  2.06276436E+00  2.06276436E+00  2.06276436E+00
  2.06276436E+00  2.06276436E+00  2.06276436E+00  8.03913209E-01  8.03913209E-01
  8.03913209E-01  8.03913209E-01  8.03913209E-01  8.03913209E-01  8.03913209E-01
  8.03913209E-01  8.03913209E-01  8.03913209E-01  8.03913209E-01  8.03913209E-01
  8.03913209E-01  8.03913209E-01  8.03913209E-01  8.03913209E-01  8.03913209E-01
  8.03913209E-01 -5.95686987E+00  1.91971931E+00  2.06276436E+00 -2.96680911E+00
 -2.96680911E+00  8.03913209E-01  8.03913209E-01  8.03913209E-01 -2.24932427E+00
  2.64678908E+00 -2.24932427E+00  2.64678908E+00  2.06094213E+00  2.69006704E+00
  2.69006704E+00 -7.92305604E+00  2.76705626E+00  2.06094213E+00 -2.40989918E+00
 -2.95201260E+00 -2.24932427E+00 -2.24932427E+00 -9.84915315E-01  2.86545667E+00
 -1.59900683E+00  2.65590022E+00 -2.96680911E+00  2.69006704E+00 -2.96680911E+00
  2.69006704E+00 -1.02044880E+00  2.46365496E+00  2.51012183E+00  1.91971931E+00
  2.64678908E+00  2.64678908E+00 -1.02044880E+00 -9.84915315E-01 -9.84915315E-01
 -9.84915315E-01 -5.95686987E+00 -1.59900683E+00 -2.40989918E+00 -2.40989918E+00
 -1.02044880E+00 -2.40989918E+00 -1.02044880E+00  2.06276436E+00 -2.95201260E+00
  2.51012183E+00  2.76705626E+00  2.86545667E+00  2.76705626E+00  2.86545667E+00
 -1.59900683E+00  2.86545667E+00  2.76705626E+00 -1.59900683E+00  8.03913209E-01
  8.03913209E-01  8.03913209E-01  2.65590022E+00 -7.92305604E+00 -7.92305604E+00
 -2.95201260E+00  2.51012183E+00 -7.92305604E+00 -2.95201260E+00  2.51012183E+00
  2.06094213E+00  2.06094213E+00  2.06094213E+00  2.06094213E+00  2.65590022E+00
  2.06094213E+00  2.06094213E+00  2.65590022E+00 -2.24932427E+00 -2.24932427E+00
 -2.24932427E+00 -2.24932427E+00 -2.24932427E+00 -2.24932427E+00 -2.24932427E+00
 -2.24932427E+00 -2.24932427E+00 -2.24932427E+00 -2.24932427E+00 -2.24932427E+00
 -2.96680911E+00  2.69006704E+00 -2.96680911E+00  2.69006704E+00  2.69006704E+00
 -2.96680911E+00  2.69006704E+00 -2.96680911E+00 -2.96680911E+00  2.69006704E+00
 -2.96680911E+00  2.69006704E+00 -2.96680911E+00  2.69006704E+00 -2.96680911E+00
  2.69006704E+00 -2.96680911E+00  2.69006704E+00 -2.96680911E+00  2.69006704E+00
 -2.96680911E+00  2.69006704E+00 -2.96680911E+00  2.69006704E+00  1.91971931E+00
  2.64678908E+00  2.64678908E+00  1.91971931E+00  2.64678908E+00  2.64678908E+00
  2.64678908E+00  1.91971931E+00  2.64678908E+00  1.91971931E+00  2.64678908E+00
  2.64678908E+00  1.91971931E+00  2.64678908E+00  2.64678908E+00  1.91971931E+00
  2.64678908E+00  2.64678908E+00 -5.95686987E+00 -5.95686987E+00 -5.95686987E+00
 -5.95686987E+00 -5.95686987E+00 -5.95686987E+00  2.06276436E+00  2.06276436E+00
  2.06276436E+00  2.06276436E+00  2.06276436E+00  2.06276436E+00  8.03913209E-01
  8.03913209E-01  8.03913209E-01  8.03913209E-01  8.03913209E-01  8.03913209E-01
  8.03913209E-01  8.03913209E-01  8.03913209E-01  8.03913209E-01  8.03913209E-01
  8.03913209E-01  8.03913209E-01  8.03913209E-01  8.03913209E-01  8.03913209E-01
  8.03913209E-01  8.03913209E-01 -5.95686987E+00  1.91971931E+00  2.06276436E+00
 -2.96680911E+00 -2.96680911E+00  8.03913209E-01  8.03913209E-01  8.03913209E-01
 -2.24932427E+00  2.64678908E+00 -2.24932427E+00  2.64678908E+00  2.06094213E+00
  2.69006704E+00  2.69006704E+00 -7.92305604E+00  2.76705626E+00  2.06094213E+00
 -2.40989918E+00 -2.95201260E+00 -2.24932427E+00 -2.24932427E+00 -9.84915315E-01
  2.86545667E+00 -1.59900683E+00  2.65590022E+00 -2.96680911E+00  2.69006704E+00
 -2.96680911E+00  2.69006704E+00 -1.02044880E+00  2.46365496E+00  2.51012183E+00
  1.91971931E+00  2.64678908E+00  2.64678908E+00 -1.02044880E+00 -9.84915315E-01
 -9.84915315E-01 -9.84915315E-01 -5.95686987E+00 -1.59900683E+00 -2.40989918E+00
 -2.40989918E+00 -1.02044880E+00 -2.40989918E+00 -1.02044880E+00  2.06276436E+00
 -2.95201260E+00  2.51012183E+00  2.76705626E+00  2.86545667E+00  2.76705626E+00
  2.86545667E+00 -1.59900683E+00  2.86545667E+00  2.76705626E+00 -1.59900683E+00
  8.03913209E-01  8.03913209E-01  8.03913209E-01  2.65590022E+00 -7.92305604E+00
 -7.92305604E+00 -2.95201260E+00  2.51012183E+00 -7.92305604E+00 -2.95201260E+00
  2.51012183E+00  2.06094213E+00  2.06094213E+00  2.06094213E+00  2.06094213E+00
  2.65590022E+00  2.06094213E+00  2.06094213E+00  2.65590022E+00 -2.24932427E+00
 -2.24932427E+00 -2.24932427E+00 -2.24932427E+00 -2.24932427E+00 -2.24932427E+00
 -2.24932427E+00 -2.24932427E+00 -2.24932427E+00 -2.24932427E+00 -2.24932427E+00
 -2.24932427E+00 -2.96680911E+00  2.69006704E+00 -2.96680911E+00  2.69006704E+00
  2.69006704E+00 -2.96680911E+00  2.69006704E+00 -2.96680911E+00 -2.96680911E+00
  2.69006704E+00 -2.96680911E+00  2.69006704E+00 -2.96680911E+00  2.69006704E+00
 -2.96680911E+00  2.69006704E+00 -2.96680911E+00  2.69006704E+00 -2.96680911E+00
  2.69006704E+00 -2.96680911E+00  2.69006704E+00 -2.96680911E+00  2.69006704E+00
  1.91971931E+00  2.64678908E+00  2.64678908E+00  1.91971931E+00  2.64678908E+00
  2.64678908E+00  2.64678908E+00  1.91971931E+00  2.64678908E+00  1.91971931E+00
  2.64678908E+00  2.64678908E+00  1.91971931E+00  2.64678908E+00  2.64678908E+00
  1.91971931E+00  2.64678908E+00  2.64678908E+00 -5.95686987E+00 -5.95686987E+00
 -5.95686987E+00 -5.95686987E+00 -5.95686987E+00 -5.95686987E+00  2.06276436E+00
  2.06276436E+00  2.06276436E+00  2.06276436E+00  2.06276436E+00  2.06276436E+00
  8.03913209E-01  8.03913209E-01  8.03913209E-01  8.03913209E-01  8.03913209E-01
  8.03913209E-01  8.03913209E-01  8.03913209E-01  8.03913209E-01  8.03913209E-01
  8.03913209E-01  8.03913209E-01  8.03913209E-01  8.03913209E-01  8.03913209E-01
  8.03913209E-01  8.03913209E-01  8.03913209E-01 -5.95686987E+00  1.91971931E+00
  2.06276436E+00 -2.96680911E+00 -2.96680911E+00  8.03913209E-01  8.03913209E-01
  8.03913209E-01 -2.24932427E+00  2.64678908E+00 -2.24932427E+00  2.64678908E+00
  2.06094213E+00  2.69006704E+00  2.69006704E+00 -7.92305604E+00  2.76705626E+00
  2.06094213E+00 -2.40989918E+00 -2.95201260E+00 -2.24932427E+00 -2.24932427E+00
 -9.84915315E-01  2.86545667E+00 -1.59900683E+00  2.65590022E+00 -2.96680911E+00
  2.69006704E+00 -2.96680911E+00  2.69006704E+00 -1.02044880E+00  2.46365496E+00
  2.51012183E+00  1.91971931E+00  2.64678908E+00  2.64678908E+00 -1.02044880E+00
 -9.84915315E-01 -9.84915315E-01 -9.84915315E-01 -5.95686987E+00 -1.59900683E+00
 -2.40989918E+00 -2.40989918E+00 -1.02044880E+00 -2.40989918E+00 -1.02044880E+00
  2.06276436E+00 -2.95201260E+00  2.51012183E+00  2.76705626E+00  2.86545667E+00
  2.76705626E+00  2.86545667E+00 -1.59900683E+00  2.86545667E+00  2.76705626E+00
 -1.59900683E+00  8.03913209E-01  8.03913209E-01  8.03913209E-01  2.65590022E+00
 -7.92305604E+00 -7.92305604E+00 -2.95201260E+00  2.51012183E+00 -7.92305604E+00
 -2.95201260E+00  2.51012183E+00  2.06094213E+00  2.06094213E+00  2.06094213E+00
  2.06094213E+00  2.65590022E+00  2.06094213E+00  2.06094213E+00  2.65590022E+00
 -2.24932427E+00 -2.24932427E+00 -2.24932427E+00 -2.24932427E+00 -2.24932427E+00
 -2.24932427E+00 -2.24932427E+00 -2.24932427E+00 -2.24932427E+00 -2.24932427E+00
 -2.24932427E+00 -2.24932427E+00 -2.96680911E+00  2.69006704E+00 -2.96680911E+00
  2.69006704E+00  2.69006704E+00 -2.96680911E+00  2.69006704E+00 -2.96680911E+00
 -2.96680911E+00  2.69006704E+00 -2.96680911E+00  2.69006704E+00 -2.96680911E+00
  2.69006704E+00 -2.96680911E+00  2.69006704E+00 -2.96680911E+00  2.69006704E+00
 -2.96680911E+00  2.69006704E+00 -2.96680911E+00  2.69006704E+00 -2.96680911E+00
  2.69006704E+00  1.91971931E+00  2.64678908E+00  2.64678908E+00  1.91971931E+00
  2.64678908E+00  2.64678908E+00  2.64678908E+00  1.91971931E+00  2.64678908E+00
  1.91971931E+00  2.64678908E+00  2.64678908E+00  1.91971931E+00  2.64678908E+00
  2.64678908E+00  1.91971931E+00  2.64678908E+00  2.64678908E+00 -5.95686987E+00
 -5.95686987E+00 -5.95686987E+00 -5.95686987E+00 -5.95686987E+00 -5.95686987E+00
  2.06276436E+00  2.06276436E+00  2.06276436E+00  2.06276436E+00  2.06276436E+00
  2.06276436E+00  8.03913209E-01  8.03913209E-01  8.03913209E-01  8.03913209E-01
  8.03913209E-01  8.03913209E-01  8.03913209E-01  8.03913209E-01  8.03913209E-01
  8.03913209E-01  8.03913209E-01  8.03913209E-01  8.03913209E-01  8.03913209E-01
  8.03913209E-01  8.03913209E-01  8.03913209E-01  8.03913209E-01 -5.95686987E+00
  1.91971931E+00  2.06276436E+00 -2.96680911E+00 -2.96680911E+00  8.03913209E-01
  8.03913209E-01  8.03913209E-01 -2.24932427E+00  2.64678908E+00 -2.24932427E+00
  2.64678908E+00  2.06094213E+00  2.69006704E+00  2.69006704E+00 -7.92305604E+00
  2.76705626E+00  2.06094213E+00 -2.40989918E+00 -2.95201260E+00 -2.24932427E+00
 -2.24932427E+00 -9.84915315E-01  2.86545667E+00 -1.59900683E+00  2.65590022E+00
 -2.96680911E+00  2.69006704E+00 -2.96680911E+00  2.69006704E+00 -1.02044880E+00
  2.46365496E+00  2.51012183E+00  1.91971931E+00  2.64678908E+00  2.64678908E+00
 -1.02044880E+00 -9.84915315E-01 -9.84915315E-01 -9.84915315E-01 -5.95686987E+00
 -1.59900683E+00 -2.40989918E+00 -2.40989918E+00 -1.02044880E+00 -2.40989918E+00
 -1.02044880E+00  2.06276436E+00 -2.95201260E+00  2.51012183E+00  2.76705626E+00
  2.86545667E+00  2.76705626E+00  2.86545667E+00 -1.59900683E+00  2.86545667E+00
  2.76705626E+00 -1.59900683E+00  8.03913209E-01  8.03913209E-01  8.03913209E-01
  2.65590022E+00 -7.92305604E+00 -7.92305604E+00 -2.95201260E+00  2.51012183E+00
 -7.92305604E+00 -2.95201260E+00  2.51012183E+00  2.06094213E+00  2.06094213E+00
  2.06094213E+00  2.06094213E+00  2.65590022E+00  2.06094213E+00  2.06094213E+00
  2.65590022E+00 -2.24932427E+00 -2.24932427E+00 -2.24932427E+00 -2.24932427E+00
 -2.24932427E+00 -2.24932427E+00 -2.24932427E+00 -2.24932427E+00 -2.24932427E+00
 -2.24932427E+00 -2.24932427E+00 -2.24932427E+00 -2.96680911E+00  2.69006704E+00
 -2.96680911E+00  2.69006704E+00  2.69006704E+00 -2.96680911E+00  2.69006704E+00
 -2.96680911E+00 -2.96680911E+00  2.69006704E+00 -2.96680911E+00  2.69006704E+00
 -2.96680911E+00  2.69006704E+00 -2.96680911E+00  2.69006704E+00 -2.96680911E+00
  2.69006704E+00 -2.96680911E+00  2.69006704E+00 -2.96680911E+00  2.69006704E+00
 -2.96680911E+00  2.69006704E+00  1.91971931E+00  2.64678908E+00  2.64678908E+00
  1.91971931E+00  2.64678908E+00  2.64678908E+00  2.64678908E+00  1.91971931E+00
  2.64678908E+00  1.91971931E+00  2.64678908E+00  2.64678908E+00  1.91971931E+00
  2.64678908E+00  2.64678908E+00  1.91971931E+00  2.64678908E+00  2.64678908E+00
 -5.95686987E+00 -5.95686987E+00 -5.95686987E+00 -5.95686987E+00 -5.95686987E+00
 -5.95686987E+00  2.06276436E+00  2.06276436E+00  2.06276436E+00  2.06276436E+00
  2.06276436E+00  2.06276436E+00  8.03913209E-01  8.03913209E-01  8.03913209E-01
  8.03913209E-01  8.03913209E-01  8.03913209E-01  8.03913209E-01  8.03913209E-01
  8.03913209E-01  8.03913209E-01  8.03913209E-01  8.03913209E-01  8.03913209E-01
  8.03913209E-01  8.03913209E-01  8.03913209E-01  8.03913209E-01  8.03913209E-01
 -5.95686987E+00  1.91971931E+00  2.06276436E+00 -2.96680911E+00 -2.96680911E+00
  8.03913209E-01  8.03913209E-01  8.03913209E-01 -2.24932427E+00  2.64678908E+00
 -2.24932427E+00  2.64678908E+00  2.06094213E+00  2.69006704E+00  2.69006704E+00
 -7.92305604E+00  2.76705626E+00  2.06094213E+00 -2.40989918E+00 -2.95201260E+00
 -2.24932427E+00 -2.24932427E+00 -9.84915315E-01  2.86545667E+00 -1.59900683E+00
  2.65590022E+00 -2.96680911E+00  2.69006704E+00 -2.96680911E+00  2.69006704E+00
 -1.02044880E+00  2.46365496E+00  2.51012183E+00  1.91971931E+00  2.64678908E+00
  2.64678908E+00 -1.02044880E+00 -9.84915315E-01 -9.84915315E-01 -9.84915315E-01
 -5.95686987E+00 -1.59900683E+00 -2.40989918E+00 -2.40989918E+00 -1.02044880E+00
 -2.40989918E+00 -1.02044880E+00  2.06276436E+00 -2.95201260E+00  2.51012183E+00
  2.76705626E+00  2.86545667E+00  2.76705626E+00  2.86545667E+00 -1.59900683E+00
  2.86545667E+00  2.76705626E+00 -1.59900683E+00  8.03913209E-01  8.03913209E-01
  8.03913209E-01  2.65590022E+00 -7.92305604E+00 -7.92305604E+00 -2.95201260E+00
  2.51012183E+00 -7.92305604E+00 -2.95201260E+00  2.51012183E+00  2.06094213E+00
  2.06094213E+00  2.06094213E+00  2.06094213E+00  2.65590022E+00  2.06094213E+00
  2.06094213E+00  2.65590022E+00 -2.24932427E+00 -2.24932427E+00 -2.24932427E+00
 -2.24932427E+00 -2.24932427E+00 -2.24932427E+00 -2.24932427E+00 -2.24932427E+00
 -2.24932427E+00 -2.24932427E+00 -2.24932427E+00 -2.24932427E+00 -2.96680911E+00
  2.69006704E+00 -2.96680911E+00  2.69006704E+00  2.69006704E+00 -2.96680911E+00
  2.69006704E+00 -2.96680911E+00 -2.96680911E+00  2.69006704E+00 -2.96680911E+00
  2.69006704E+00 -2.96680911E+00  2.69006704E+00 -2.96680911E+00  2.69006704E+00
 -2.96680911E+00  2.69006704E+00 -2.96680911E+00  2.69006704E+00 -2.96680911E+00
  2.69006704E+00 -2.96680911E+00  2.69006704E+00  1.91971931E+00  2.64678908E+00
  2.64678908E+00  1.91971931E+00  2.64678908E+00  2.64678908E+00  2.64678908E+00
  1.91971931E+00  2.64678908E+00  1.91971931E+00  2.64678908E+00  2.64678908E+00
  1.91971931E+00  2.64678908E+00  2.64678908E+00  1.91971931E+00  2.64678908E+00
  2.64678908E+00 -5.95686987E+00 -5.95686987E+00 -5.95686987E+00 -5.95686987E+00
 -5.95686987E+00 -5.95686987E+00  2.06276436E+00  2.06276436E+00  2.06276436E+00
  2.06276436E+00  2.06276436E+00  2.06276436E+00  8.03913209E-01  8.03913209E-01
  8.03913209E-01  8.03913209E-01  8.03913209E-01  8.03913209E-01  8.03913209E-01
  8.03913209E-01  8.03913209E-01  8.03913209E-01  8.03913209E-01  8.03913209E-01
  8.03913209E-01  8.03913209E-01  8.03913209E-01  8.03913209E-01  8.03913209E-01
  8.03913209E-01 -5.95686987E+00  1.91971931E+00  2.06276436E+00 -2.96680911E+00
 -2.96680911E+00  8.03913209E-01  8.03913209E-01  8.03913209E-01 -2.24932427E+00
  2.64678908E+00 -2.24932427E+00  2.64678908E+00  2.06094213E+00  2.69006704E+00
  2.69006704E+00 -7.92305604E+00  2.76705626E+00  2.06094213E+00 -2.40989918E+00
 -2.95201260E+00 -2.24932427E+00 -2.24932427E+00 -9.84915315E-01  2.86545667E+00
 -1.59900683E+00  2.65590022E+00 -2.96680911E+00  2.69006704E+00 -2.96680911E+00
  2.69006704E+00 -1.02044880E+00  2.46365496E+00  2.51012183E+00  1.91971931E+00
  2.64678908E+00  2.64678908E+00 -1.02044880E+00 -9.84915315E-01 -9.84915315E-01
 -9.84915315E-01 -5.95686987E+00 -1.59900683E+00 -2.40989918E+00 -2.40989918E+00
 -1.02044880E+00 -2.40989918E+00 -1.02044880E+00  2.06276436E+00 -2.95201260E+00
  2.51012183E+00  2.76705626E+00  2.86545667E+00  2.76705626E+00  2.86545667E+00
 -1.59900683E+00  2.86545667E+00  2.76705626E+00 -1.59900683E+00  8.03913209E-01
  8.03913209E-01  8.03913209E-01  2.65590022E+00 -7.92305604E+00 -7.92305604E+00
 -2.95201260E+00  2.51012183E+00 -7.92305604E+00 -2.95201260E+00  2.51012183E+00
  2.06094213E+00  2.06094213E+00  2.06094213E+00  2.06094213E+00  2.65590022E+00
  2.06094213E+00  2.06094213E+00  2.65590022E+00 -2.24932427E+00 -2.24932427E+00
 -2.24932427E+00 -2.24932427E+00 -2.24932427E+00 -2.24932427E+00 -2.24932427E+00
 -2.24932427E+00 -2.24932427E+00 -2.24932427E+00 -2.24932427E+00 -2.24932427E+00
 -2.96680911E+00  2.69006704E+00 -2.96680911E+00  2.69006704E+00  2.69006704E+00
 -2.96680911E+00  2.69006704E+00 -2.96680911E+00 -2.96680911E+00  2.69006704E+00
 -2.96680911E+00  2.69006704E+00 -2.96680911E+00  2.69006704E+00 -2.96680911E+00
  2.69006704E+00 -2.96680911E+00  2.69006704E+00 -2.96680911E+00  2.69006704E+00
 -2.96680911E+00  2.69006704E+00 -2.96680911E+00  2.69006704E+00  1.91971931E+00
  2.64678908E+00  2.64678908E+00  1.91971931E+00  2.64678908E+00  2.64678908E+00
  2.64678908E+00  1.91971931E+00  2.64678908E+00  1.91971931E+00  2.64678908E+00
  2.64678908E+00  1.91971931E+00  2.64678908E+00  2.64678908E+00  1.91971931E+00
  2.64678908E+00  2.64678908E+00 -5.95686987E+00 -5.95686987E+00 -5.95686987E+00
 -5.95686987E+00 -5.95686987E+00 -5.95686987E+00  2.06276436E+00  2.06276436E+00
  2.06276436E+00  2.06276436E+00  2.06276436E+00  2.06276436E+00  8.03913209E-01
  8.03913209E-01  8.03913209E-01  8.03913209E-01  8.03913209E-01  8.03913209E-01
  8.03913209E-01  8.03913209E-01  8.03913209E-01  8.03913209E-01  8.03913209E-01
  8.03913209E-01  8.03913209E-01  8.03913209E-01  8.03913209E-01  8.03913209E-01
  8.03913209E-01  8.03913209E-01 -5.95686987E+00  1.91971931E+00  2.06276436E+00
 -2.96680911E+00 -2.96680911E+00  8.03913209E-01  8.03913209E-01  8.03913209E-01
 -2.24932427E+00  2.64678908E+00 -2.24932427E+00  2.64678908E+00  2.06094213E+00
  2.69006704E+00  2.69006704E+00 -7.92305604E+00  2.76705626E+00  2.06094213E+00
 -2.40989918E+00 -2.95201260E+00 -2.24932427E+00 -2.24932427E+00 -9.84915315E-01
  2.86545667E+00 -1.59900683E+00  2.65590022E+00 -2.96680911E+00  2.69006704E+00
 -2.96680911E+00  2.69006704E+00 -1.02044880E+00  2.46365496E+00  2.51012183E+00
  1.91971931E+00  2.64678908E+00  2.64678908E+00 -1.02044880E+00 -9.84915315E-01
 -9.84915315E-01 -9.84915315E-01 -5.95686987E+00 -1.59900683E+00 -2.40989918E+00
 -2.40989918E+00 -1.02044880E+00 -2.40989918E+00 -1.02044880E+00  2.06276436E+00
 -2.95201260E+00  2.51012183E+00  2.76705626E+00  2.86545667E+00  2.76705626E+00
  2.86545667E+00 -1.59900683E+00  2.86545667E+00  2.76705626E+00 -1.59900683E+00
  8.03913209E-01  8.03913209E-01  8.03913209E-01  2.65590022E+00 -7.92305604E+00
 -7.92305604E+00 -2.95201260E+00  2.51012183E+00 -7.92305604E+00 -2.95201260E+00
  2.51012183E+00  2.06094213E+00  2.06094213E+00  2.06094213E+00  2.06094213E+00
  2.65590022E+00  2.06094213E+00  2.06094213E+00  2.65590022E+00 -2.24932427E+00
 -2.24932427E+00 -2.24932427E+00 -2.24932427E+00 -2.24932427E+00 -2.24932427E+00
 -2.24932427E+00 -2.24932427E+00 -2.24932427E+00 -2.24932427E+00 -2.24932427E+00
 -2.24932427E+00 -2.96680911E+00  2.69006704E+00 -2.96680911E+00  2.69006704E+00
  2.69006704E+00 -2.96680911E+00  2.69006704E+00 -2.96680911E+00 -2.96680911E+00
  2.69006704E+00 -2.96680911E+00  2.69006704E+00 -2.96680911E+00  2.69006704E+00
 -2.96680911E+00  2.69006704E+00 -2.96680911E+00  2.69006704E+00 -2.96680911E+00
  2.69006704E+00 -2.96680911E+00  2.69006704E+00 -2.96680911E+00  2.69006704E+00
  1.91971931E+00  2.64678908E+00  2.64678908E+00  1.91971931E+00  2.64678908E+00
  2.64678908E+00  2.64678908E+00  1.91971931E+00  2.64678908E+00  1.91971931E+00
  2.64678908E+00  2.64678908E+00  1.91971931E+00  2.64678908E+00  2.64678908E+00
  1.91971931E+00  2.64678908E+00  2.64678908E+00 -5.95686987E+00 -5.95686987E+00
 -5.95686987E+00 -5.95686987E+00 -5.95686987E+00 -5.95686987E+00  2.06276436E+00
  2.06276436E+00  2.06276436E+00  2.06276436E+00  2.06276436E+00  2.06276436E+00
  8.03913209E-01  8.03913209E-01  8.03913209E-01  8.03913209E-01  8.03913209E-01
  8.03913209E-01  8.03913209E-01  8.03913209E-01  8.03913209E-01  8.03913209E-01
  8.03913209E-01  8.03913209E-01  8.03913209E-01  8.03913209E-01  8.03913209E-01
  8.03913209E-01  8.03913209E-01  8.03913209E-01 -5.95686987E+00  1.91971931E+00
  2.06276436E+00 -2.96680911E+00 -2.96680911E+00  8.03913209E-01  8.03913209E-01
  8.03913209E-01 -2.24932427E+00  2.64678908E+00 -2.24932427E+00  2.64678908E+00
  2.06094213E+00  2.69006704E+00  2.69006704E+00 -7.92305604E+00  2.76705626E+00
  2.06094213E+00 -2.40989918E+00 -2.95201260E+00 -2.24932427E+00 -2.24932427E+00
 -9.84915315E-01  2.86545667E+00 -1.59900683E+00  2.65590022E+00 -2.96680911E+00
  2.69006704E+00 -2.96680911E+00  2.69006704E+00 -1.02044880E+00  2.46365496E+00
  2.51012183E+00  1.91971931E+00  2.64678908E+00  2.64678908E+00 -1.02044880E+00
 -9.84915315E-01 -9.84915315E-01 -9.84915315E-01 -5.95686987E+00 -1.59900683E+00
 -2.40989918E+00 -2.40989918E+00 -1.02044880E+00 -2.40989918E+00 -1.02044880E+00
  2.06276436E+00 -2.95201260E+00  2.51012183E+00  2.76705626E+00  2.86545667E+00
  2.76705626E+00  2.86545667E+00 -1.59900683E+00  2.86545667E+00  2.76705626E+00
 -1.59900683E+00  8.03913209E-01  8.03913209E-01  8.03913209E-01  2.65590022E+00
 -7.92305604E+00 -7.92305604E+00 -2.95201260E+00  2.51012183E+00 -7.92305604E+00
 -2.95201260E+00  2.51012183E+00  2.06094213E+00  2.06094213E+00  2.06094213E+00
  2.06094213E+00  2.65590022E+00  2.06094213E+00  2.06094213E+00  2.65590022E+00
 -2.24932427E+00 -2.24932427E+00 -2.24932427E+00 -2.24932427E+00 -2.24932427E+00
 -2.24932427E+00 -2.24932427E+00 -2.24932427E+00 -2.24932427E+00 -2.24932427E+00
 -2.24932427E+00 -2.24932427E+00 -2.96680911E+00  2.69006704E+00 -2.96680911E+00
  2.69006704E+00  2.69006704E+00 -2.96680911E+00  2.69006704E+00 -2.96680911E+00
 -2.96680911E+00  2.69006704E+00 -2.96680911E+00  2.69006704E+00 -2.96680911E+00
  2.69006704E+00 -2.96680911E+00  2.69006704E+00 -2.96680911E+00  2.69006704E+00
 -2.96680911E+00  2.69006704E+00 -2.96680911E+00  2.69006704E+00 -2.96680911E+00
  2.69006704E+00  1.91971931E+00  2.64678908E+00  2.64678908E+00  1.91971931E+00
  2.64678908E+00  2.64678908E+00  2.64678908E+00  1.91971931E+00  2.64678908E+00
  1.91971931E+00  2.64678908E+00  2.64678908E+00  1.91971931E+00  2.64678908E+00
  2.64678908E+00  1.91971931E+00  2.64678908E+00  2.64678908E+00 -5.95686987E+00
 -5.95686987E+00 -5.95686987E+00 -5.95686987E+00 -5.95686987E+00 -5.95686987E+00
  2.06276436E+00  2.06276436E+00  2.06276436E+00  2.06276436E+00  2.06276436E+00
  2.06276436E+00  8.03913209E-01  8.03913209E-01  8.03913209E-01  8.03913209E-01
  8.03913209E-01  8.03913209E-01  8.03913209E-01  8.03913209E-01  8.03913209E-01
  8.03913209E-01  8.03913209E-01  8.03913209E-01  8.03913209E-01  8.03913209E-01
  8.03913209E-01  8.03913209E-01  8.03913209E-01  8.03913209E-01 -5.95686987E+00
  1.91971931E+00  2.06276436E+00 -2.96680911E+00 -2.96680911E+00  8.03913209E-01
  8.03913209E-01  8.03913209E-01 -2.24932427E+00  2.64678908E+00 -2.24932427E+00
  2.64678908E+00  2.06094213E+00  2.69006704E+00  2.69006704E+00 -7.92305604E+00
  2.76705626E+00  2.06094213E+00 -2.40989918E+00 -2.95201260E+00 -2.24932427E+00
 -2.24932427E+00 -9.84915315E-01  2.86545667E+00 -1.59900683E+00  2.65590022E+00
 -2.96680911E+00  2.69006704E+00 -2.96680911E+00  2.69006704E+00 -1.02044880E+00
  2.46365496E+00  2.51012183E+00  1.91971931E+00  2.64678908E+00  2.64678908E+00
 -1.02044880E+00 -9.84915315E-01 -9.84915315E-01 -9.84915315E-01 -5.95686987E+00
 -1.59900683E+00 -2.40989918E+00 -2.40989918E+00 -1.02044880E+00 -2.40989918E+00
 -1.02044880E+00  2.06276436E+00 -2.95201260E+00  2.51012183E+00  2.76705626E+00
  2.86545667E+00  2.76705626E+00  2.86545667E+00 -1.59900683E+00  2.86545667E+00
  2.76705626E+00 -1.59900683E+00  8.03913209E-01  8.03913209E-01  8.03913209E-01
  2.65590022E+00 -7.92305604E+00 -7.92305604E+00 -2.95201260E+00  2.51012183E+00
 -7.92305604E+00 -2.95201260E+00  2.51012183E+00  2.06094213E+00  2.06094213E+00
  2.06094213E+00  2.06094213E+00  2.65590022E+00  2.06094213E+00  2.06094213E+00
  2.65590022E+00 -2.24932427E+00 -2.24932427E+00 -2.24932427E+00 -2.24932427E+00
 -2.24932427E+00 -2.24932427E+00 -2.24932427E+00 -2.24932427E+00 -2.24932427E+00
 -2.24932427E+00 -2.24932427E+00 -2.24932427E+00 -2.96680911E+00  2.69006704E+00
 -2.96680911E+00  2.69006704E+00  2.69006704E+00 -2.96680911E+00  2.69006704E+00
 -2.96680911E+00 -2.96680911E+00  2.69006704E+00 -2.96680911E+00  2.69006704E+00
 -2.96680911E+00  2.69006704E+00 -2.96680911E+00  2.69006704E+00 -2.96680911E+00
  2.69006704E+00 -2.96680911E+00  2.69006704E+00 -2.96680911E+00  2.69006704E+00
 -2.96680911E+00  2.69006704E+00  1.91971931E+00  2.64678908E+00  2.64678908E+00
  1.91971931E+00  2.64678908E+00  2.64678908E+00  2.64678908E+00  1.91971931E+00
  2.64678908E+00  1.91971931E+00  2.64678908E+00  2.64678908E+00  1.91971931E+00
  2.64678908E+00  2.64678908E+00  1.91971931E+00  2.64678908E+00  2.64678908E+00
 -5.95686987E+00 -5.95686987E+00 -5.95686987E+00 -5.95686987E+00 -5.95686987E+00
 -5.95686987E+00  2.06276436E+00  2.06276436E+00  2.06276436E+00  2.06276436E+00
  2.06276436E+00  2.06276436E+00  8.03913209E-01  8.03913209E-01  8.03913209E-01
  8.03913209E-01  8.03913209E-01  8.03913209E-01  8.03913209E-01  8.03913209E-01
  8.03913209E-01  8.03913209E-01  8.03913209E-01  8.03913209E-01  8.03913209E-01
  8.03913209E-01  8.03913209E-01  8.03913209E-01  8.03913209E-01  8.03913209E-01
 -5.95686987E+00  1.91971931E+00  2.06276436E+00 -2.96680911E+00 -2.96680911E+00
  8.03913209E-01  8.03913209E-01  8.03913209E-01 -2.24932427E+00  2.64678908E+00
 -2.24932427E+00  2.64678908E+00  2.06094213E+00  2.69006704E+00  2.69006704E+00
 -7.92305604E+00  2.76705626E+00  2.06094213E+00 -2.40989918E+00 -2.95201260E+00
 -2.24932427E+00 -2.24932427E+00 -9.84915315E-01  2.86545667E+00 -1.59900683E+00
  2.65590022E+00 -2.96680911E+00  2.69006704E+00 -2.96680911E+00  2.69006704E+00
 -1.02044880E+00  2.46365496E+00  2.51012183E+00  1.91971931E+00  2.64678908E+00
  2.64678908E+00 -1.02044880E+00 -9.84915315E-01 -9.84915315E-01 -9.84915315E-01
 -5.95686987E+00 -1.59900683E+00 -2.40989918E+00 -2.40989918E+00 -1.02044880E+00
 -2.40989918E+00 -1.02044880E+00  2.06276436E+00 -2.95201260E+00  2.51012183E+00
  2.76705626E+00  2.86545667E+00  2.76705626E+00  2.86545667E+00 -1.59900683E+00
  2.86545667E+00  2.76705626E+00 -1.59900683E+00  8.03913209E-01  8.03913209E-01
  8.03913209E-01  2.65590022E+00 -7.92305604E+00 -7.92305604E+00 -2.95201260E+00
  2.51012183E+00 -7.92305604E+00 -2.95201260E+00  2.51012183E+00  2.06094213E+00
  2.06094213E+00  2.06094213E+00  2.06094213E+00  2.65590022E+00  2.06094213E+00
  2.06094213E+00  2.65590022E+00 -2.24932427E+00 -2.24932427E+00 -2.24932427E+00
 -2.24932427E+00 -2.24932427E+00 -2.24932427E+00 -2.24932427E+00 -2.24932427E+00
 -2.24932427E+00 -2.24932427E+00 -2.24932427E+00 -2.24932427E+00 -2.96680911E+00
  2.69006704E+00 -2.96680911E+00  2.69006704E+00  2.69006704E+00 -2.96680911E+00
  2.69006704E+00 -2.96680911E+00 -2.96680911E+00  2.69006704E+00 -2.96680911E+00
  2.69006704E+00 -2.96680911E+00  2.69006704E+00 -2.96680911E+00  2.69006704E+00
 -2.96680911E+00  2.69006704E+00 -2.96680911E+00  2.69006704E+00 -2.96680911E+00
  2.69006704E+00 -2.96680911E+00  2.69006704E+00  1.91971931E+00  2.64678908E+00
  2.64678908E+00  1.91971931E+00  2.64678908E+00  2.64678908E+00  2.64678908E+00
  1.91971931E+00  2.64678908E+00  1.91971931E+00  2.64678908E+00  2.64678908E+00
  1.91971931E+00  2.64678908E+00  2.64678908E+00  1.91971931E+00  2.64678908E+00
  2.64678908E+00 -5.95686987E+00 -5.95686987E+00 -5.95686987E+00 -5.95686987E+00
 -5.95686987E+00 -5.95686987E+00  2.06276436E+00  2.06276436E+00  2.06276436E+00
  2.06276436E+00  2.06276436E+00  2.06276436E+00  8.03913209E-01  8.03913209E-01
  8.03913209E-01  8.03913209E-01  8.03913209E-01  8.03913209E-01  8.03913209E-01
  8.03913209E-01  8.03913209E-01  8.03913209E-01  8.03913209E-01  8.03913209E-01
  8.03913209E-01  8.03913209E-01  8.03913209E-01  8.03913209E-01  8.03913209E-01
  8.03913209E-01 -5.95686987E+00  1.91971931E+00  2.06276436E+00 -2.96680911E+00
 -2.96680911E+00  8.03913209E-01  8.03913209E-01  8.03913209E-01 -2.24932427E+00
  2.64678908E+00 -2.24932427E+00  2.64678908E+00  2.06094213E+00  2.69006704E+00
  2.69006704E+00 -7.92305604E+00  2.76705626E+00  2.06094213E+00 -2.40989918E+00
 -2.95201260E+00 -2.24932427E+00 -2.24932427E+00 -9.84915315E-01  2.86545667E+00
 -1.59900683E+00  2.65590022E+00 -2.96680911E+00  2.69006704E+00 -2.96680911E+00
  2.69006704E+00 -1.02044880E+00  2.46365496E+00  2.51012183E+00  1.91971931E+00
  2.64678908E+00  2.64678908E+00 -1.02044880E+00 -9.84915315E-01 -9.84915315E-01
 -9.84915315E-01 -5.95686987E+00 -1.59900683E+00 -2.40989918E+00 -2.40989918E+00
 -1.02044880E+00 -2.40989918E+00 -1.02044880E+00  2.06276436E+00 -2.95201260E+00
  2.51012183E+00  2.76705626E+00  2.86545667E+00  2.76705626E+00  2.86545667E+00
 -1.59900683E+00  2.86545667E+00  2.76705626E+00 -1.59900683E+00  8.03913209E-01
  8.03913209E-01  8.03913209E-01  2.65590022E+00 -7.92305604E+00 -7.92305604E+00
 -2.95201260E+00  2.51012183E+00 -7.92305604E+00 -2.95201260E+00  2.51012183E+00
  2.06094213E+00  2.06094213E+00  2.06094213E+00  2.06094213E+00  2.65590022E+00
  2.06094213E+00  2.06094213E+00  2.65590022E+00 -2.24932427E+00 -2.24932427E+00
 -2.24932427E+00 -2.24932427E+00 -2.24932427E+00 -2.24932427E+00 -2.24932427E+00
 -2.24932427E+00 -2.24932427E+00 -2.24932427E+00 -2.24932427E+00 -2.24932427E+00
 -2.96680911E+00  2.69006704E+00 -2.96680911E+00  2.69006704E+00  2.69006704E+00
 -2.96680911E+00  2.69006704E+00 -2.96680911E+00 -2.96680911E+00  2.69006704E+00
 -2.96680911E+00  2.69006704E+00 -2.96680911E+00  2.69006704E+00 -2.96680911E+00
  2.69006704E+00 -2.96680911E+00  2.69006704E+00 -2.96680911E+00  2.69006704E+00
 -2.96680911E+00  2.69006704E+00 -2.96680911E+00  2.69006704E+00  1.91971931E+00
  2.64678908E+00  2.64678908E+00  1.91971931E+00  2.64678908E+00  2.64678908E+00
  2.64678908E+00  1.91971931E+00  2.64678908E+00  1.91971931E+00  2.64678908E+00
  2.64678908E+00  1.91971931E+00  2.64678908E+00  2.64678908E+00  1.91971931E+00
  2.64678908E+00  2.64678908E+00 -5.95686987E+00 -5.95686987E+00 -5.95686987E+00
 -5.95686987E+00 -5.95686987E+00 -5.95686987E+00  2.06276436E+00  2.06276436E+00
  2.06276436E+00  2.06276436E+00  2.06276436E+00  2.06276436E+00  8.03913209E-01
  8.03913209E-01  8.03913209E-01  8.03913209E-01  8.03913209E-01  8.03913209E-01
  8.03913209E-01  8.03913209E-01  8.03913209E-01  8.03913209E-01  8.03913209E-01
  8.03913209E-01  8.03913209E-01  8.03913209E-01  8.03913209E-01  8.03913209E-01
  8.03913209E-01  8.03913209E-01 -5.95686987E+00  1.91971931E+00  2.06276436E+00
 -2.96680911E+00 -2.96680911E+00  8.03913209E-01  8.03913209E-01  8.03913209E-01
 -2.24932427E+00  2.64678908E+00 -2.24932427E+00  2.64678908E+00  2.06094213E+00
  2.69006704E+00  2.69006704E+00 -7.92305604E+00  2.76705626E+00  2.06094213E+00
 -2.40989918E+00 -2.95201260E+00 -2.24932427E+00 -2.24932427E+00 -9.84915315E-01
  2.86545667E+00 -1.59900683E+00  2.65590022E+00 -2.96680911E+00  2.69006704E+00
 -2.96680911E+00  2.69006704E+00 -1.02044880E+00  2.46365496E+00  2.51012183E+00
  1.91971931E+00  2.64678908E+00  2.64678908E+00 -1.02044880E+00 -9.84915315E-01
 -9.84915315E-01 -9.84915315E-01 -5.95686987E+00 -1.59900683E+00 -2.40989918E+00
 -2.40989918E+00 -1.02044880E+00 -2.40989918E+00 -1.02044880E+00  2.06276436E+00
 -2.95201260E+00  2.51012183E+00  2.76705626E+00  2.86545667E+00  2.76705626E+00
  2.86545667E+00 -1.59900683E+00  2.86545667E+00  2.76705626E+00 -1.59900683E+00
  8.03913209E-01  8.03913209E-01  8.03913209E-01  2.65590022E+00 -7.92305604E+00
 -7.92305604E+00 -2.95201260E+00  2.51012183E+00 -7.92305604E+00 -2.95201260E+00
  2.51012183E+00  2.06094213E+00  2.06094213E+00  2.06094213E+00  2.06094213E+00
  2.65590022E+00  2.06094213E+00  2.06094213E+00  2.65590022E+00 -2.24932427E+00
 -2.24932427E+00 -2.24932427E+00 -2.24932427E+00 -2.24932427E+00 -2.24932427E+00
 -2.24932427E+00 -2.24932427E+00 -2.24932427E+00 -2.24932427E+00 -2.24932427E+00
 -2.24932427E+00 -2.96680911E+00  2.69006704E+00 -2.96680911E+00  2.69006704E+00
  2.69006704E+00 -2.96680911E+00  2.69006704E+00 -2.96680911E+00 -2.96680911E+00
  2.69006704E+00 -2.96680911E+00  2.69006704E+00 -2.96680911E+00  2.69006704E+00
 -2.96680911E+00  2.69006704E+00 -2.96680911E+00  2.69006704E+00 -2.96680911E+00
  2.69006704E+00 -2.96680911E+00  2.69006704E+00 -2.96680911E+00  2.69006704E+00
  1.91971931E+00  2.64678908E+00  2.64678908E+00  1.91971931E+00  2.64678908E+00
  2.64678908E+00  2.64678908E+00  1.91971931E+00  2.64678908E+00  1.91971931E+00
  2.64678908E+00  2.64678908E+00  1.91971931E+00  2.64678908E+00  2.64678908E+00
  1.91971931E+00  2.64678908E+00  2.64678908E+00 -5.95686987E+00 -5.95686987E+00
 -5.95686987E+00 -5.95686987E+00 -5.95686987E+00 -5.95686987E+00  2.06276436E+00
  2.06276436E+00  2.06276436E+00  2.06276436E+00  2.06276436E+00  2.06276436E+00
  8.03913209E-01  8.03913209E-01  8.03913209E-01  8.03913209E-01  8.03913209E-01
  8.03913209E-01  8.03913209E-01  8.03913209E-01  8.03913209E-01  8.03913209E-01
  8.03913209E-01  8.03913209E-01  8.03913209E-01  8.03913209E-01  8.03913209E-01
  8.03913209E-01  8.03913209E-01  8.03913209E-01 -5.95686987E+00  1.91971931E+00
  2.06276436E+00 -2.96680911E+00 -2.96680911E+00  8.03913209E-01  8.03913209E-01
  8.03913209E-01 -2.24932427E+00  2.64678908E+00 -2.24932427E+00  2.64678908E+00
  2.06094213E+00  2.69006704E+00  2.69006704E+00 -7.92305604E+00  2.76705626E+00
  2.06094213E+00 -2.40989918E+00 -2.95201260E+00 -2.24932427E+00 -2.24932427E+00
 -9.84915315E-01  2.86545667E+00 -1.59900683E+00  2.65590022E+00 -2.96680911E+00
  2.69006704E+00 -2.96680911E+00  2.69006704E+00 -1.02044880E+00  2.46365496E+00
  2.51012183E+00  1.91971931E+00  2.64678908E+00  2.64678908E+00 -1.02044880E+00
 -9.84915315E-01 -9.84915315E-01 -9.84915315E-01 -5.95686987E+00 -1.59900683E+00
 -2.40989918E+00 -2.40989918E+00 -1.02044880E+00 -2.40989918E+00 -1.02044880E+00
  2.06276436E+00 -2.95201260E+00  2.51012183E+00  2.76705626E+00  2.86545667E+00
  2.76705626E+00  2.86545667E+00 -1.59900683E+00  2.86545667E+00  2.76705626E+00
 -1.59900683E+00  8.03913209E-01  8.03913209E-01  8.03913209E-01  2.65590022E+00
 -7.92305604E+00 -7.92305604E+00 -2.95201260E+00  2.51012183E+00 -7.92305604E+00
 -2.95201260E+00  2.51012183E+00  2.06094213E+00  2.06094213E+00  2.06094213E+00
  2.06094213E+00  2.65590022E+00  2.06094213E+00  2.06094213E+00  2.65590022E+00
 -2.24932427E+00 -2.24932427E+00 -2.24932427E+00 -2.24932427E+00 -2.24932427E+00
 -2.24932427E+00 -2.24932427E+00 -2.24932427E+00 -2.24932427E+00 -2.24932427E+00
 -2.24932427E+00 -2.24932427E+00 -2.96680911E+00  2.69006704E+00 -2.96680911E+00
  2.69006704E+00  2.69006704E+00 -2.96680911E+00  2.69006704E+00 -2.96680911E+00
 -2.96680911E+00  2.69006704E+00 -2.96680911E+00  2.69006704E+00 -2.96680911E+00
  2.69006704E+00 -2.96680911E+00  2.69006704E+00 -2.96680911E+00  2.69006704E+00
 -2.96680911E+00  2.69006704E+00 -2.96680911E+00  2.69006704E+00 -2.96680911E+00
  2.69006704E+00  1.91971931E+00  2.64678908E+00  2.64678908E+00  1.91971931E+00
  2.64678908E+00  2.64678908E+00  2.64678908E+00  1.91971931E+00  2.64678908E+00
  1.91971931E+00  2.64678908E+00  2.64678908E+00  1.91971931E+00  2.64678908E+00
  2.64678908E+00  1.91971931E+00  2.64678908E+00  2.64678908E+00 -5.95686987E+00
 -5.95686987E+00 -5.95686987E+00 -5.95686987E+00 -5.95686987E+00 -5.95686987E+00
  2.06276436E+00  2.06276436E+00  2.06276436E+00  2.06276436E+00  2.06276436E+00
  2.06276436E+00  8.03913209E-01  8.03913209E-01  8.03913209E-01  8.03913209E-01
  8.03913209E-01  8.03913209E-01  8.03913209E-01  8.03913209E-01  8.03913209E-01
  8.03913209E-01  8.03913209E-01  8.03913209E-01  8.03913209E-01  8.03913209E-01
  8.03913209E-01  8.03913209E-01  8.03913209E-01  8.03913209E-01 -5.95686987E+00
  1.91971931E+00  2.06276436E+00 -2.96680911E+00 -2.96680911E+00  8.03913209E-01
  8.03913209E-01  8.03913209E-01 -2.24932427E+00  2.64678908E+00 -2.24932427E+00
  2.64678908E+00  2.06094213E+00  2.69006704E+00  2.69006704E+00 -7.92305604E+00
  2.76705626E+00  2.06094213E+00 -2.40989918E+00 -2.95201260E+00 -2.24932427E+00
 -2.24932427E+00 -9.84915315E-01  2.86545667E+00 -1.59900683E+00  2.65590022E+00
 -2.96680911E+00  2.69006704E+00 -2.96680911E+00  2.69006704E+00 -1.02044880E+00
  2.46365496E+00  2.51012183E+00  1.91971931E+00  2.64678908E+00  2.64678908E+00
 -1.02044880E+00 -9.84915315E-01 -9.84915315E-01 -9.84915315E-01 -5.95686987E+00
 -1.59900683E+00 -2.40989918E+00 -2.40989918E+00 -1.02044880E+00 -2.40989918E+00
 -1.02044880E+00  2.06276436E+00 -2.95201260E+00  2.51012183E+00  2.76705626E+00
  2.86545667E+00  2.76705626E+00  2.86545667E+00 -1.59900683E+00  2.86545667E+00
  2.76705626E+00 -1.59900683E+00  8.03913209E-01  8.03913209E-01  8.03913209E-01
  2.65590022E+00 -7.92305604E+00 -7.92305604E+00 -2.95201260E+00  2.51012183E+00
 -7.92305604E+00 -2.95201260E+00  2.51012183E+00  2.06094213E+00  2.06094213E+00
  2.06094213E+00  2.06094213E+00  2.65590022E+00  2.06094213E+00  2.06094213E+00
  2.65590022E+00 -2.24932427E+00 -2.24932427E+00 -2.24932427E+00 -2.24932427E+00
 -2.24932427E+00 -2.24932427E+00 -2.24932427E+00 -2.24932427E+00 -2.24932427E+00
 -2.24932427E+00 -2.24932427E+00 -2.24932427E+00 -2.96680911E+00  2.69006704E+00
 -2.96680911E+00  2.69006704E+00  2.69006704E+00 -2.96680911E+00  2.69006704E+00
 -2.96680911E+00 -2.96680911E+00  2.69006704E+00 -2.96680911E+00  2.69006704E+00
 -2.96680911E+00  2.69006704E+00 -2.96680911E+00  2.69006704E+00 -2.96680911E+00
  2.69006704E+00 -2.96680911E+00  2.69006704E+00 -2.96680911E+00  2.69006704E+00
 -2.96680911E+00  2.69006704E+00  1.91971931E+00  2.64678908E+00  2.64678908E+00
  1.91971931E+00  2.64678908E+00  2.64678908E+00  2.64678908E+00  1.91971931E+00
  2.64678908E+00  1.91971931E+00  2.64678908E+00  2.64678908E+00  1.91971931E+00
  2.64678908E+00  2.64678908E+00  1.91971931E+00  2.64678908E+00  2.64678908E+00
 -5.95686987E+00 -5.95686987E+00 -5.95686987E+00 -5.95686987E+00 -5.95686987E+00
 -5.95686987E+00  2.06276436E+00  2.06276436E+00  2.06276436E+00  2.06276436E+00
  2.06276436E+00  2.06276436E+00  8.03913209E-01  8.03913209E-01  8.03913209E-01
  8.03913209E-01  8.03913209E-01  8.03913209E-01  8.03913209E-01  8.03913209E-01
  8.03913209E-01  8.03913209E-01  8.03913209E-01  8.03913209E-01  8.03913209E-01
  8.03913209E-01  8.03913209E-01  8.03913209E-01  8.03913209E-01  8.03913209E-01
 -5.95686987E+00  1.91971931E+00  2.06276436E+00 -2.96680911E+00 -2.96680911E+00
  8.03913209E-01  8.03913209E-01  8.03913209E-01 -2.24932427E+00  2.64678908E+00
 -2.24932427E+00  2.64678908E+00  2.06094213E+00  2.69006704E+00  2.69006704E+00
 -7.92305604E+00  2.76705626E+00  2.06094213E+00 -2.40989918E+00 -2.95201260E+00
 -2.24932427E+00 -2.24932427E+00 -9.84915315E-01  2.86545667E+00 -1.59900683E+00
  2.65590022E+00 -2.96680911E+00  2.69006704E+00 -2.96680911E+00  2.69006704E+00
 -1.02044880E+00  2.46365496E+00  2.51012183E+00  1.91971931E+00  2.64678908E+00
  2.64678908E+00 -1.02044880E+00 -9.84915315E-01 -9.84915315E-01 -9.84915315E-01
 -5.95686987E+00 -1.59900683E+00 -2.40989918E+00 -2.40989918E+00 -1.02044880E+00
 -2.40989918E+00 -1.02044880E+00  2.06276436E+00 -2.95201260E+00  2.51012183E+00
  2.76705626E+00  2.86545667E+00  2.76705626E+00  2.86545667E+00 -1.59900683E+00
  2.86545667E+00  2.76705626E+00 -1.59900683E+00  8.03913209E-01  8.03913209E-01
  8.03913209E-01  2.65590022E+00 -7.92305604E+00 -7.92305604E+00 -2.95201260E+00
  2.51012183E+00 -7.92305604E+00 -2.95201260E+00  2.51012183E+00  2.06094213E+00
  2.06094213E+00  2.06094213E+00  2.06094213E+00  2.65590022E+00  2.06094213E+00
  2.06094213E+00  2.65590022E+00 -2.24932427E+00 -2.24932427E+00 -2.24932427E+00
 -2.24932427E+00 -2.24932427E+00 -2.24932427E+00 -2.24932427E+00 -2.24932427E+00
 -2.24932427E+00 -2.24932427E+00 -2.24932427E+00 -2.24932427E+00 -2.96680911E+00
  2.69006704E+00 -2.96680911E+00  2.69006704E+00  2.69006704E+00 -2.96680911E+00
  2.69006704E+00 -2.96680911E+00 -2.96680911E+00  2.69006704E+00 -2.96680911E+00
  2.69006704E+00 -2.96680911E+00  2.69006704E+00 -2.96680911E+00  2.69006704E+00
 -2.96680911E+00  2.69006704E+00 -2.96680911E+00  2.69006704E+00 -2.96680911E+00
  2.69006704E+00 -2.96680911E+00  2.69006704E+00  1.91971931E+00  2.64678908E+00
  2.64678908E+00  1.91971931E+00  2.64678908E+00  2.64678908E+00  2.64678908E+00
  1.91971931E+00  2.64678908E+00  1.91971931E+00  2.64678908E+00  2.64678908E+00
  1.91971931E+00  2.64678908E+00  2.64678908E+00  1.91971931E+00  2.64678908E+00
  2.64678908E+00 -5.95686987E+00 -5.95686987E+00 -5.95686987E+00 -5.95686987E+00
 -5.95686987E+00 -5.95686987E+00  2.06276436E+00  2.06276436E+00  2.06276436E+00
  2.06276436E+00  2.06276436E+00  2.06276436E+00  8.03913209E-01  8.03913209E-01
  8.03913209E-01  8.03913209E-01  8.03913209E-01  8.03913209E-01  8.03913209E-01
  8.03913209E-01  8.03913209E-01  8.03913209E-01  8.03913209E-01  8.03913209E-01
  8.03913209E-01  8.03913209E-01  8.03913209E-01  8.03913209E-01  8.03913209E-01
  8.03913209E-01 -5.95686987E+00  1.91971931E+00  2.06276436E+00 -2.96680911E+00
 -2.96680911E+00  8.03913209E-01  8.03913209E-01  8.03913209E-01 -2.24932427E+00
  2.64678908E+00 -2.24932427E+00  2.64678908E+00  2.06094213E+00  2.69006704E+00
  2.69006704E+00 -7.92305604E+00  2.76705626E+00  2.06094213E+00 -2.40989918E+00
 -2.95201260E+00 -2.24932427E+00 -2.24932427E+00 -9.84915315E-01  2.86545667E+00
 -1.59900683E+00  2.65590022E+00 -2.96680911E+00  2.69006704E+00 -2.96680911E+00
  2.69006704E+00 -1.02044880E+00  2.46365496E+00  2.51012183E+00  1.91971931E+00
  2.64678908E+00  2.64678908E+00 -1.02044880E+00 -9.84915315E-01 -9.84915315E-01
 -9.84915315E-01 -5.95686987E+00 -1.59900683E+00 -2.40989918E+00 -2.40989918E+00
 -1.02044880E+00 -2.40989918E+00 -1.02044880E+00  2.06276436E+00 -2.95201260E+00
  2.51012183E+00  2.76705626E+00  2.86545667E+00  2.76705626E+00  2.86545667E+00
 -1.59900683E+00  2.86545667E+00  2.76705626E+00 -1.59900683E+00  8.03913209E-01
  8.03913209E-01  8.03913209E-01  2.65590022E+00 -7.92305604E+00 -7.92305604E+00
 -2.95201260E+00  2.51012183E+00 -7.92305604E+00 -2.95201260E+00  2.51012183E+00
  2.06094213E+00  2.06094213E+00  2.06094213E+00  2.06094213E+00  2.65590022E+00
  2.06094213E+00  2.06094213E+00  2.65590022E+00 -2.24932427E+00 -2.24932427E+00
 -2.24932427E+00 -2.24932427E+00 -2.24932427E+00 -2.24932427E+00 -2.24932427E+00
 -2.24932427E+00 -2.24932427E+00 -2.24932427E+00 -2.24932427E+00 -2.24932427E+00
 -2.96680911E+00  2.69006704E+00 -2.96680911E+00  2.69006704E+00  2.69006704E+00
 -2.96680911E+00  2.69006704E+00 -2.96680911E+00 -2.96680911E+00  2.69006704E+00
 -2.96680911E+00  2.69006704E+00 -2.96680911E+00  2.69006704E+00 -2.96680911E+00
  2.69006704E+00 -2.96680911E+00  2.69006704E+00 -2.96680911E+00  2.69006704E+00
 -2.96680911E+00  2.69006704E+00 -2.96680911E+00  2.69006704E+00  1.91971931E+00
  2.64678908E+00  2.64678908E+00  1.91971931E+00  2.64678908E+00  2.64678908E+00
  2.64678908E+00  1.91971931E+00  2.64678908E+00  1.91971931E+00  2.64678908E+00
  2.64678908E+00  1.91971931E+00  2.64678908E+00  2.64678908E+00  1.91971931E+00
  2.64678908E+00  2.64678908E+00 -5.95686987E+00 -5.95686987E+00 -5.95686987E+00
 -5.95686987E+00 -5.95686987E+00 -5.95686987E+00  2.06276436E+00  2.06276436E+00
  2.06276436E+00  2.06276436E+00  2.06276436E+00  2.06276436E+00  8.03913209E-01
  8.03913209E-01  8.03913209E-01  8.03913209E-01  8.03913209E-01  8.03913209E-01
  8.03913209E-01  8.03913209E-01  8.03913209E-01  8.03913209E-01  8.03913209E-01
  8.03913209E-01  8.03913209E-01  8.03913209E-01  8.03913209E-01  8.03913209E-01
  8.03913209E-01  8.03913209E-01 -5.95686987E+00  1.91971931E+00  2.06276436E+00
 -2.96680911E+00 -2.96680911E+00  8.03913209E-01  8.03913209E-01  8.03913209E-01
 -2.24932427E+00  2.64678908E+00 -2.24932427E+00  2.64678908E+00  2.06094213E+00
  2.69006704E+00  2.69006704E+00 -7.92305604E+00  2.76705626E+00  2.06094213E+00
 -2.40989918E+00 -2.95201260E+00 -2.24932427E+00 -2.24932427E+00 -9.84915315E-01
  2.86545667E+00 -1.59900683E+00  2.65590022E+00 -2.96680911E+00  2.69006704E+00
 -2.96680911E+00  2.69006704E+00 -1.02044880E+00  2.46365496E+00  2.51012183E+00
  1.91971931E+00  2.64678908E+00  2.64678908E+00 -1.02044880E+00 -9.84915315E-01
 -9.84915315E-01 -9.84915315E-01 -5.95686987E+00 -1.59900683E+00 -2.40989918E+00
 -2.40989918E+00 -1.02044880E+00 -2.40989918E+00 -1.02044880E+00  2.06276436E+00
 -2.95201260E+00  2.51012183E+00  2.76705626E+00  2.86545667E+00  2.76705626E+00
  2.86545667E+00 -1.59900683E+00  2.86545667E+00  2.76705626E+00 -1.59900683E+00
  8.03913209E-01  8.03913209E-01  8.03913209E-01  2.65590022E+00 -7.92305604E+00
 -7.92305604E+00 -2.95201260E+00  2.51012183E+00 -7.92305604E+00 -2.95201260E+00
  2.51012183E+00  2.06094213E+00  2.06094213E+00  2.06094213E+00  2.06094213E+00
  2.65590022E+00  2.06094213E+00  2.06094213E+00  2.65590022E+00 -2.24932427E+00
 -2.24932427E+00 -2.24932427E+00 -2.24932427E+00 -2.24932427E+00 -2.24932427E+00
 -2.24932427E+00 -2.24932427E+00 -2.24932427E+00 -2.24932427E+00 -2.24932427E+00
 -2.24932427E+00 -2.96680911E+00  2.69006704E+00 -2.96680911E+00  2.69006704E+00
  2.69006704E+00 -2.96680911E+00  2.69006704E+00 -2.96680911E+00 -2.96680911E+00
  2.69006704E+00 -2.96680911E+00  2.69006704E+00 -2.96680911E+00  2.69006704E+00
 -2.96680911E+00  2.69006704E+00 -2.96680911E+00  2.69006704E+00 -2.96680911E+00
  2.69006704E+00 -2.96680911E+00  2.69006704E+00 -2.96680911E+00  2.69006704E+00
  1.91971931E+00  2.64678908E+00  2.64678908E+00  1.91971931E+00  2.64678908E+00
  2.64678908E+00  2.64678908E+00  1.91971931E+00  2.64678908E+00  1.91971931E+00
  2.64678908E+00  2.64678908E+00  1.91971931E+00  2.64678908E+00  2.64678908E+00
  1.91971931E+00  2.64678908E+00  2.64678908E+00 -5.95686987E+00 -5.95686987E+00
 -5.95686987E+00 -5.95686987E+00 -5.95686987E+00 -5.95686987E+00  2.06276436E+00
  2.06276436E+00  2.06276436E+00  2.06276436E+00  2.06276436E+00  2.06276436E+00
  8.03913209E-01  8.03913209E-01  8.03913209E-01  8.03913209E-01  8.03913209E-01
  8.03913209E-01  8.03913209E-01  8.03913209E-01  8.03913209E-01  8.03913209E-01
  8.03913209E-01  8.03913209E-01  8.03913209E-01  8.03913209E-01  8.03913209E-01
  8.03913209E-01  8.03913209E-01  8.03913209E-01 -5.95686987E+00  1.91971931E+00
  2.06276436E+00 -2.96680911E+00 -2.96680911E+00  8.03913209E-01  8.03913209E-01
  8.03913209E-01 -2.24932427E+00  2.64678908E+00 -2.24932427E+00  2.64678908E+00
  2.06094213E+00  2.69006704E+00  2.69006704E+00 -7.92305604E+00  2.76705626E+00
  2.06094213E+00 -2.40989918E+00 -2.95201260E+00 -2.24932427E+00 -2.24932427E+00
 -9.84915315E-01  2.86545667E+00 -1.59900683E+00  2.65590022E+00 -2.96680911E+00
  2.69006704E+00 -2.96680911E+00  2.69006704E+00 -1.02044880E+00  2.46365496E+00
  2.51012183E+00  1.91971931E+00  2.64678908E+00  2.64678908E+00 -1.02044880E+00
 -9.84915315E-01 -9.84915315E-01 -9.84915315E-01 -5.95686987E+00 -1.59900683E+00
 -2.40989918E+00 -2.40989918E+00 -1.02044880E+00 -2.40989918E+00 -1.02044880E+00
  2.06276436E+00 -2.95201260E+00  2.51012183E+00  2.76705626E+00  2.86545667E+00
  2.76705626E+00  2.86545667E+00 -1.59900683E+00  2.86545667E+00  2.76705626E+00
 -1.59900683E+00  8.03913209E-01  8.03913209E-01  8.03913209E-01  2.65590022E+00
 -7.92305604E+00 -7.92305604E+00 -2.95201260E+00  2.51012183E+00 -7.92305604E+00
 -2.95201260E+00  2.51012183E+00  2.06094213E+00  2.06094213E+00  2.06094213E+00
  2.06094213E+00  2.65590022E+00  2.06094213E+00  2.06094213E+00  2.65590022E+00
 -2.24932427E+00 -2.24932427E+00 -2.24932427E+00 -2.24932427E+00 -2.24932427E+00
 -2.24932427E+00 -2.24932427E+00 -2.24932427E+00 -2.24932427E+00 -2.24932427E+00
 -2.24932427E+00 -2.24932427E+00 -2.96680911E+00  2.69006704E+00 -2.96680911E+00
  2.69006704E+00  2.69006704E+00 -2.96680911E+00  2.69006704E+00 -2.96680911E+00
 -2.96680911E+00  2.69006704E+00 -2.96680911E+00  2.69006704E+00 -2.96680911E+00
  2.69006704E+00 -2.96680911E+00  2.69006704E+00 -2.96680911E+00  2.69006704E+00
 -2.96680911E+00  2.69006704E+00 -2.96680911E+00  2.69006704E+00 -2.96680911E+00
  2.69006704E+00  1.91971931E+00  2.64678908E+00  2.64678908E+00  1.91971931E+00
  2.64678908E+00  2.64678908E+00  2.64678908E+00  1.91971931E+00  2.64678908E+00
  1.91971931E+00  2.64678908E+00  2.64678908E+00  1.91971931E+00  2.64678908E+00
  2.64678908E+00  1.91971931E+00  2.64678908E+00  2.64678908E+00 -5.95686987E+00
 -5.95686987E+00 -5.95686987E+00 -5.95686987E+00 -5.95686987E+00 -5.95686987E+00
  2.06276436E+00  2.06276436E+00  2.06276436E+00  2.06276436E+00  2.06276436E+00
  2.06276436E+00  8.03913209E-01  8.03913209E-01  8.03913209E-01  8.03913209E-01
  8.03913209E-01  8.03913209E-01  8.03913209E-01  8.03913209E-01  8.03913209E-01
  8.03913209E-01  8.03913209E-01  8.03913209E-01  8.03913209E-01  8.03913209E-01
  8.03913209E-01  8.03913209E-01  8.03913209E-01  8.03913209E-01 -5.95686987E+00
  1.91971931E+00  2.06276436E+00 -2.96680911E+00 -2.96680911E+00  8.03913209E-01
  8.03913209E-01  8.03913209E-01 -2.24932427E+00  2.64678908E+00 -2.24932427E+00
  2.64678908E+00  2.06094213E+00  2.69006704E+00  2.69006704E+00 -7.92305604E+00
  2.76705626E+00  2.06094213E+00 -2.40989918E+00 -2.95201260E+00 -2.24932427E+00
 -2.24932427E+00 -9.84915315E-01  2.86545667E+00 -1.59900683E+00  2.65590022E+00
 -2.96680911E+00  2.69006704E+00 -2.96680911E+00  2.69006704E+00 -1.02044880E+00
  2.46365496E+00  2.51012183E+00  1.91971931E+00  2.64678908E+00  2.64678908E+00
 -1.02044880E+00 -9.84915315E-01 -9.84915315E-01 -9.84915315E-01 -5.95686987E+00
 -1.59900683E+00 -2.40989918E+00 -2.40989918E+00 -1.02044880E+00 -2.40989918E+00
 -1.02044880E+00  2.06276436E+00 -2.95201260E+00  2.51012183E+00  2.76705626E+00
  2.86545667E+00  2.76705626E+00  2.86545667E+00 -1.59900683E+00  2.86545667E+00
  2.76705626E+00 -1.59900683E+00  8.03913209E-01  8.03913209E-01  8.03913209E-01
  2.65590022E+00 -7.92305604E+00 -7.92305604E+00 -2.95201260E+00  2.51012183E+00
 -7.92305604E+00 -2.95201260E+00  2.51012183E+00  2.06094213E+00  2.06094213E+00
  2.06094213E+00  2.06094213E+00  2.65590022E+00  2.06094213E+00  2.06094213E+00
  2.65590022E+00 -2.24932427E+00 -2.24932427E+00 -2.24932427E+00 -2.24932427E+00
 -2.24932427E+00 -2.24932427E+00 -2.24932427E+00 -2.24932427E+00 -2.24932427E+00
 -2.24932427E+00 -2.24932427E+00 -2.24932427E+00 -2.96680911E+00  2.69006704E+00
 -2.96680911E+00  2.69006704E+00  2.69006704E+00 -2.96680911E+00  2.69006704E+00
 -2.96680911E+00 -2.96680911E+00  2.69006704E+00 -2.96680911E+00  2.69006704E+00
 -2.96680911E+00  2.69006704E+00 -2.96680911E+00  2.69006704E+00 -2.96680911E+00
  2.69006704E+00 -2.96680911E+00  2.69006704E+00 -2.96680911E+00  2.69006704E+00
 -2.96680911E+00  2.69006704E+00  1.91971931E+00  2.64678908E+00  2.64678908E+00
  1.91971931E+00  2.64678908E+00  2.64678908E+00  2.64678908E+00  1.91971931E+00
  2.64678908E+00  1.91971931E+00  2.64678908E+00  2.64678908E+00  1.91971931E+00
  2.64678908E+00  2.64678908E+00  1.91971931E+00  2.64678908E+00  2.64678908E+00
 -5.95686987E+00 -5.95686987E+00 -5.95686987E+00 -5.95686987E+00 -5.95686987E+00
 -5.95686987E+00  2.06276436E+00  2.06276436E+00  2.06276436E+00  2.06276436E+00
  2.06276436E+00  2.06276436E+00  8.03913209E-01  8.03913209E-01  8.03913209E-01
  8.03913209E-01  8.03913209E-01  8.03913209E-01  8.03913209E-01  8.03913209E-01
  8.03913209E-01  8.03913209E-01  8.03913209E-01  8.03913209E-01  8.03913209E-01
  8.03913209E-01  8.03913209E-01  8.03913209E-01  8.03913209E-01  8.03913209E-01
%FLAG ATOMIC_NUMBER                                                             
%FORMAT(10I8)                                                                   
       8       6       6       6       6       1       1       1       6       1
       6       1       6       1       1       7       6       6       6       6
       6       6       6       1       6       1       6       1       6       1
       6       6       1       6       1       1       6       6       6       6
       8       6       6       6       6       6       6       6       6       1
       6       1       6       1       6       1       6       6       1       1
       1       1       7       7       6       1       7       6       1       6
       6       6       6       1       6       6       1       6       6       6
       6       6       6       6       6       6       6       6       6       6
       1       6       1       1       6       1       6       6       1       6
       1       6       1       6       1       6       1       6       1       6
       1       6       1       6       1       1       6       1       1       1
       6       1       6       1       1       6       1       1       6       1
       1       8       8       8       8       8       8       6       6       6
       6       6       6       1       1       1       1       1       1       1
       1       1       1       1       1       1       1       1       1       1
       1       8       6       6       6       6       1       1       1       6
       1       6       1       6       1       1       7       6       6       6
       6       6       6       6       1       6       1       6       1       6
       1       6       6       1       6       1       1       6       6       6
       6       8       6       6       6       6       6       6       6       6
       1       6       1       6       1       6       1       6       6       1
       1       1       1       7       7       6       1       7       6       1
       6       6       6       6       1       6       6       1       6       6
       6       6       6       6       6       6       6       6       6       6
       6       1       6       1       1       6       1       6       6       1
       6       1       6       1       6       1       6       1       6       1
       6       1       6       1       6       1       1       6       1       1
       1       6       1       6       1       1       6       1       1       6
       1       1       8       8       8       8       8       8       6       6
       6       6       6       6       1       1       1       1       1       1
       1       1       1       1       1       1       1       1       1       1
       1       1       8       6       6       6       6       1       1       1
       6       1       6       1       6       1       1       7       6       6
       6       6       6       6       6       1       6       1       6       1
       6       1       6       6       1       6       1       1       6       6
       6       6       8       6       6       6       6       6       6       6
       6       1       6       1       6       1       6       1       6       6
       1       1       1       1       7       7       6       1       7       6
       1       6       6       6       6       1       6       6       1       6
       6       6       6       6       6       6       6       6       6       6
       6       6       1       6       1       1       6       1       6       6
       1       6       1       6       1       6       1       6       1       6
       1       6       1       6       1       6       1       1       6       1
       1       1       6       1       6       1       1       6       1       1
       6       1       1       8       8       8       8       8       8       6
       6       6       6       6       6       1       1       1       1       1
       1       1       1       1       1       1       1       1       1       1
       1       1       1       8       6       6       6       6       1       1
       1       6       1       6       1       6       1       1       7       6
       6       6       6       6       6       6       1       6       1       6
       1       6       1       6       6       1       6       1       1       6
       6       6       6       8       6       6       6       6       6       6
       6       6       1       6       1       6       1       6       1       6
       6       1       1       1       1       7       7       6       1       7
       6       1       6       6       6       6       1       6       6       1
       6       6       6       6       6       6       6       6       6       6
       6       6       6       1       6       1       1       6       1       6
       6       1       6       1       6       1       6       1       6       1
       6       1       6       1       6       1       6       1       1       6
       1       1       1       6       1       6       1       1       6       1
       1       6       1       1       8       8       8       8       8       8
       6       6       6       6       6       6       1       1       1       1
       1       1       1       1       1       1       1       1       1       1
       1       1       1       1       8       6       6       6       6       1
       1       1       6       1       6       1       6       1       1       7
       6       6       6       6       6       6       6       1       6       1
       6       1       6       1       6       6       1       6       1       1
       6       6       6       6       8       6       6       6       6       6
       6       6       6       1       6       1       6       1       6       1
       6       6       1       1       1       1       7       7       6       1
       7       6       1       6       6       6       6       1       6       6
       1       6       6       6       6       6       6       6       6       6
       6       6       6       6       1       6       1       1       6       1
       6       6       1       6       1       6       1       6       1       6
       1       6       1       6       1       6       1       6       1       1
       6       1       1       1       6       1       6       1       1       6
       1       1       6       1       1       8       8       8       8       8
       8       6       6       6       6       6       6       1       1       1
       1       1       1       1       1       1       1       1       1       1
       1       1       1       1       1       8       6       6       6       6
       1       1       1       6       1       6       1       6       1       1
       7       6       6       6       6       6       6       6       1       6
       1       6       1       6       1       6       6       1       6       1
       1       6       6       6       6       8       6       6       6       6
       6       6       6       6       1       6       1       6       1       6
       1       6       6       1       1       1       1       7       7       6
       1       7       6       1       6       6       6       6       1       6
       6       1       6       6       6       6       6       6       6       6
       6       6       6       6       6       1       6       1       1       6
       1       6       6       1       6       1       6       1       6       1
       6       1       6       1       6       1       6       1       6       1
       1       6       1       1       1       6       1       6       1       1
       6       1       1       6       1       1       8       8       8       8
       8       8       6       6       6       6       6       6       1       1
       1       1       1       1       1       1       1       1       1       1
       1       1       1       1       1       1       8       6       6       6
       6       1       1       1       6       1       6       1       6       1
       1       7       6       6       6       6       6       6       6       1
       6       1       6       1       6       1       6       6       1       6
       1       1       6       6       6       6       8       6       6       6
       6       6       6       6       6       1       6       1       6       1
       6       1       6       6       1       1       1       1       7       7
       6       1       7       6       1       6       6       6       6       1
       6       6       1       6       6       6       6       6       6       6
       6       6       6       6       6       6       1       6       1       1
       6       1       6       6       1       6       1       6       1       6
       1       6       1       6       1       6       1       6       1       6
       1       1       6       1       1       1       6       1       6       1
       1       6       1       1       6       1       1       8       8       8
       8       8       8       6       6       6       6       6       6       1
       1       1       1       1       1       1       1       1       1       1
       1       1       1       1       1       1       1       8       6       6
       6       6       1       1       1       6       1       6       1       6
       1       1       7       6       6       6       6       6       6       6
       1       6       1       6       1       6       1       6       6       1
       6       1       1       6       6       6       6       8       6       6
       6       6       6       6       6       6       1       6       1       6
       1       6       1       6       6       1       1       1       1       7
       7       6       1       7       6       1       6       6       6       6
       1       6       6       1       6       6       6       6       6       6
       6       6       6       6       6       6       6       1       6       1
       1       6       1       6       6       1       6       1       6       1
       6       1       6       1       6       1       6       1       6       1
       6       1       1       6       1       1       1       6       1       6
       1       1       6       1       1       6       1       1       8       8
       8       8       8       8       6       6       6       6       6       6
       1       1       1       1       1       1       1       1       1       1
       1       1       1       1       1       1       1       1       8       6
       6       6       6       1       1       1       6       1       6       1
       6       1       1       7       6       6       6       6       6       6
       6       1       6       1       6       1       6       1       6       6
       1       6       1       1       6       6       6       6       8       6
       6       6       6       6       6       6       6       1       6       1
       6       1       6       1       6       6       1       1       1       1
       7       7       6       1       7       6       1       6       6       6
       6       1       6       6       1       6       6       6       6       6
       6       6       6       6       6       6       6       6       1       6
       1       1       6       1       6       6       1       6       1       6
       1       6       1       6       1       6       1       6       1       6
       1       6       1       1       6       1       1       1       6       1
       6       1       1       6       1       1       6       1       1       8
       8       8       8       8       8       6       6       6       6       6
       6       1       1       1       1       1       1       1       1       1
       1       1       1       1       1       1       1       1       1       8
       6       6       6       6       1       1       1       6       1       6
       1       6       1       1       7       6       6       6       6       6
       6       6       1       6       1       6       1       6       1       6
       6       1       6       1       1       6       6       6       6       8
       6       6       6       6       6       6       6       6       1       6
       1       6       1       6       1       6       6       1       1       1
       1       7       7       6       1       7       6       1       6       6
       6       6       1       6       6       1       6       6       6       6
       6       6       6       6       6       6       6       6       6       1
       6       1       1       6       1       6       6       1       6       1
       6       1       6       1       6       1       6       1       6       1
       6       1       6       1       1       6       1       1       1       6
       1       6       1       1       6       1       1       6       1       1
       8       8       8       8       8       8       6       6       6       6
       6       6       1       1       1       1       1       1       1       1
       1       1       1       1       1       1       1       1       1       1
       8       6       6       6       6       1       1       1       6       1
       6       1       6       1       1       7       6       6       6       6
       6       6       6       1       6       1       6       1       6       1
       6       6       1       6       1       1       6       6       6       6
       8       6       6       6       6       6       6       6       6       1
       6       1       6       1       6       1       6       6       1       1
       1       1       7       7       6       1       7       6       1       6
       6       6       6       1       6       6       1       6       6       6
       6       6       6       6       6       6       6       6       6       6
       1       6       1       1       6       1       6       6       1       6
       1       6       1       6       1       6       1       6       1       6
       1       6       1       6       1       1       6       1       1       1
       6       1       6       1       1       6       1       1       6       1
       1       8       8       8       8       8       8       6       6       6
       6       6       6       1       1       1       1       1       1       1
       1       1       1       1       1       1       1       1       1       1
       1       8       6       6       6       6       1       1       1       6
       1       6       1       6       1       1       7       6       6       6
       6       6       6       6       1       6       1       6       1       6
       1       6       6       1       6       1       1       6       6       6
       6       8       6       6       6       6       6       6       6       6
       1       6       1       6       1       6       1       6       6       1
       1       1       1       7       7       6       1       7       6       1
       6       6       6       6       1       6       6       1       6       6
       6       6       6       6       6       6       6       6       6       6
       6       1       6       1       1       6       1       6       6       1
       6       1       6       1       6       1       6       1       6       1
       6       1       6       1       6       1       1       6       1       1
       1       6       1       6       1       1       6       1       1       6
       1       1       8       8       8       8       8       8       6       6
       6       6       6       6       1       1       1       1       1       1
       1       1       1       1       1       1       1       1       1       1
       1       1       8       6       6       6       6       1       1       1
       6       1       6       1       6       1       1       7       6       6
       6       6       6       6       6       1       6       1       6       1
       6       1       6       6       1       6       1       1       6       6
       6       6       8       6       6       6       6       6       6       6
       6       1       6       1       6       1       6       1       6       6
       1       1       1       1       7       7       6       1       7       6
       1       6       6       6       6       1       6       6       1       6
       6       6       6       6       6       6       6       6       6       6
       6       6       1       6       1       1       6       1       6       6
       1       6       1       6       1       6       1       6       1       6
       1       6       1       6       1       6       1       1       6       1
       1       1       6       1       6       1       1       6       1       1
       6       1       1       8       8       8       8       8       8       6
       6       6       6       6       6       1       1       1       1       1
       1       1       1       1       1       1       1       1       1       1
       1       1       1       8       6       6       6       6       1       1
       1       6       1       6       1       6       1       1       7       6
       6       6       6       6       6       6       1       6       1       6
       1       6       1       6       6       1       6       1       1       6
       6       6       6       8       6       6       6       6       6       6
       6       6       1       6       1       6       1       6       1       6
       6       1       1       1       1       7       7       6       1       7
       6       1       6       6       6       6       1       6       6       1
       6       6       6       6       6       6       6       6       6       6
       6       6       6       1       6       1       1       6       1       6
       6       1       6       1       6       1       6       1       6       1
       6       1       6       1       6       1       6       1       1       6
       1       1       1       6       1       6       1       1       6       1
       1       6       1       1       8       8       8       8       8       8
       6       6       6       6       6       6       1       1       1       1
       1       1       1       1       1       1       1       1       1       1
       1       1       1       1       8       6       6       6       6       1
       1       1       6       1       6       1       6       1       1       7
       6       6       6       6       6       6       6       1       6       1
       6       1       6       1       6       6       1       6       1       1
       6       6       6       6       8       6       6       6       6       6
       6       6       6       1       6       1       6       1       6       1
       6       6       1       1       1       1       7       7       6       1
       7       6       1       6       6       6       6       1       6       6
       1       6       6       6       6       6       6       6       6       6
       6       6       6       6       1       6       1       1       6       1
       6       6       1       6       1       6       1       6       1       6
       1       6       1       6       1       6       1       6       1       1
       6       1       1       1       6       1       6       1       1       6
       1       1       6       1       1       8       8       8       8       8
       8       6       6       6       6       6       6       1       1       1
       1       1       1       1       1       1       1       1       1       1
       1       1       1       1       1       8       6       6       6       6
       1       1       1       6       1       6       1       6       1       1
       7       6       6       6       6       6       6       6       1       6
       1       6       1       6       1       6       6       1       6       1
       1       6       6       6       6       8       6       6       6       6
       6       6       6       6       1       6       1       6       1       6
       1       6       6       1       1       1       1       7       7       6
       1       7       6       1       6       6       6       6       1       6
       6       1       6       6       6       6       6       6       6       6
       6       6       6       6       6       1       6       1       1       6
       1       6       6       1       6       1       6       1       6       1
       6       1       6       1       6       1       6       1       6       1
       1       6       1       1       1       6       1       6       1       1
       6       1       1       6       1       1       8       8       8       8
       8       8       6       6       6       6       6       6       1       1
       1       1       1       1       1       1       1       1       1       1
       1       1       1       1       1       1       8       6       6       6
       6       1       1       1       6       1       6       1       6       1
       1       7       6       6       6       6       6       6       6       1
       6       1       6       1       6       1       6       6       1       6
       1       1       6       6       6       6       8       6       6       6
       6       6       6       6       6       1       6       1       6       1
       6       1       6       6       1       1       1       1       7       7
       6       1       7       6       1       6       6       6       6       1
       6       6       1       6       6       6       6       6       6       6
       6       6       6       6       6       6       1       6       1       1
       6       1       6       6       1       6       1       6       1       6
       1       6       1       6       1       6       1       6       1       6
       1       1       6       1       1       1       6       1       6       1
       1       6       1       1       6       1       1       8       8       8
       8       8       8       6       6       6       6       6       6       1
       1       1       1       1       1       1       1       1       1       1
       1       1       1       1       1       1       1       8       6       6
       6       6       1       1       1       6       1       6       1       6
       1       1       7       6       6       6       6       6       6       6
       1       6       1       6       1       6       1       6       6       1
       6       1       1       6       6       6       6       8       6       6
       6       6       6       6       6       6       1       6       1       6
       1       6       1       6       6       1       1       1       1       7
       7       6       1       7       6       1       6       6       6       6
       1       6       6       1       6       6       6       6       6       6
       6       6       6       6       6       6       6       1       6       1
       1       6       1       6       6       1       6       1       6       1
       6       1       6       1       6       1       6       1       6       1
       6       1       1       6       1       1       1       6       1       6
       1       1       6       1       1       6       1       1       8       8
       8       8       8       8       6       6       6       6       6       6
       1       1       1       1       1       1       1       1       1       1
       1       1       1       1       1       1       1       1       8       6
       6       6       6       1       1       1       6       1       6       1
       6       1       1       7       6       6       6       6       6       6
       6       1       6       1       6       1       6       1       6       6
       1       6       1       1       6       6       6       6       8       6
       6       6       6       6       6       6       6       1       6       1
       6       1       6       1       6       6       1       1       1       1
       7       7       6       1       7       6       1       6       6       6
       6       1       6       6       1       6       6       6       6       6
       6       6       6       6       6       6       6       6       1       6
       1       1       6       1       6       6       1       6       1       6
       1       6       1       6       1       6       1       6       1       6
       1       6       1       1       6       1       1       1       6       1
       6       1       1       6       1       1       6       1       1       8
       8       8       8       8       8       6       6       6       6       6
       6       1       1       1       1       1       1       1       1       1
       1       1       1       1       1       1       1       1       1       8
       6       6       6       6       1       1       1       6       1       6
       1       6       1       1       7       6       6       6       6       6
       6       6       1       6       1       6       1       6       1       6
       6       1       6       1       1       6       6       6       6       8
       6       6       6       6       6       6       6       6       1       6
       1       6       1       6       1       6       6       1       1       1
       1       7       7       6       1       7       6       1       6       6
       6       6       1       6       6       1       6       6       6       6
       6       6       6       6       6       6       6       6       6       1
       6       1       1       6       1       6       6       1       6       1
       6       1       6       1       6       1       6       1       6       1
       6       1       6       1       1       6       1       1       1       6
       1       6       1       1       6       1       1       6       1       1
       8       8       8       8       8       8       6       6       6       6
       6       6       1       1       1       1       1       1       1       1
       1       1       1       1       1       1       1       1       1       1
       8       6       6       6       6       1       1       1       6       1
       6       1       6       1       1       7       6       6       6       6
       6       6       6       1       6       1       6       1       6       1
       6       6       1       6       1       1       6       6       6       6
       8       6       6       6       6       6       6       6       6       1
       6       1       6       1       6       1       6       6       1       1
       1       1       7       7       6       1       7       6       1       6
       6       6       6       1       6       6       1       6       6       6
       6       6       6       6       6       6       6       6       6       6
       1       6       1       1       6       1       6       6       1       6
       1       6       1       6       1       6       1       6       1       6
       1       6       1       6       1       1       6       1       1       1
       6       1       6       1       1       6       1       1       6       1
       1       8       8       8       8       8       8       6       6       6
       6       6       6       1       1       1       1       1       1       1
       1       1       1       1       1       1       1       1       1       1
       1       8       6       6       6       6       1       1       1       6
       1       6       1       6       1       1       7       6       6       6
       6       6       6       6       1       6       1       6       1       6
       1       6       6       1       6       1       1       6       6       6
       6       8       6       6       6       6       6       6       6       6
       1       6       1       6       1       6       1       6       6       1
       1       1       1       7       7       6       1       7       6       1
       6       6       6       6       1       6       6       1       6       6
       6       6       6       6       6       6       6       6       6       6
       6       1       6       1       1       6       1       6       6       1
       6       1       6       1       6       1       6       1       6       1
       6       1       6       1       6       1       1       6       1       1
       1       6       1       6       1       1       6       1       1       6
       1       1       8       8       8       8       8       8       6       6
       6       6       6       6       1       1       1       1       1       1
       1       1       1       1       1       1       1       1       1       1
       1       1       8       6       6       6       6       1       1       1
       6       1       6       1       6       1       1       7       6       6
       6       6       6       6       6       1       6       1       6       1
       6       1       6       6       1       6       1       1       6       6
       6       6       8       6       6       6       6       6       6       6
       6       1       6       1       6       1       6       1       6       6
       1       1       1       1       7       7       6       1       7       6
       1       6       6       6       6       1       6       6       1       6
       6       6       6       6       6       6       6       6       6       6
       6       6       1       6       1       1       6       1       6       6
       1       6       1       6       1       6       1       6       1       6
       1       6       1       6       1       6       1       1       6       1
       1       1       6       1       6       1       1       6       1       1
       6       1       1       8       8       8       8       8       8       6
       6       6       6       6       6       1       1       1       1       1
       1       1       1       1       1       1       1       1       1       1
       1       1       1       8       6       6       6       6       1       1
       1       6       1       6       1       6       1       1       7       6
       6       6       6       6       6       6       1       6       1       6
       1       6       1       6       6       1       6       1       1       6
       6       6       6       8       6       6       6       6       6       6
       6       6       1       6       1       6       1       6       1       6
       6       1       1       1       1       7       7       6       1       7
       6       1       6       6       6       6       1       6       6       1
       6       6       6       6       6       6       6       6       6       6
       6       6       6       1       6       1       1       6       1       6
       6       1       6       1       6       1       6       1       6       1
       6       1       6       1       6       1       6       1       1       6
       1       1       1       6       1       6       1       1       6       1
       1       6       1       1       8       8       8       8       8       8
       6       6       6       6       6       6       1       1       1       1
       1       1       1       1       1       1       1       1       1       1
       1       1       1       1       8       6       6       6       6       1
       1       1       6       1       6       1       6       1       1       7
       6       6       6       6       6       6       6       1       6       1
       6       1       6       1       6       6       1       6       1       1
       6       6       6       6       8       6       6       6       6       6
       6       6       6       1       6       1       6       1       6       1
       6       6       1       1       1       1       7       7       6       1
       7       6       1       6       6       6       6       1       6       6
       1       6       6       6       6       6       6       6       6       6
       6       6       6       6       1       6       1       1       6       1
       6       6       1       6       1       6       1       6       1       6
       1       6       1       6       1       6       1       6       1       1
       6       1       1       1       6       1       6       1       1       6
       1       1       6       1       1       8       8       8       8       8
       8       6       6       6       6       6       6       1       1       1
       1       1       1       1       1       1       1       1       1       1
       1       1       1       1       1       8       6       6       6       6
       1       1       1       6       1       6       1       6       1       1
       7       6       6       6       6       6       6       6       1       6
       1       6       1       6       1       6       6       1       6       1
       1       6       6       6       6       8       6       6       6       6
       6       6       6       6       1       6       1       6       1       6
       1       6       6       1       1       1       1       7       7       6
       1       7       6       1       6       6       6       6       1       6
       6       1       6       6       6       6       6       6       6       6
       6       6       6       6       6       1       6       1       1       6
       1       6       6       1       6       1       6       1       6       1
       6       1       6       1       6       1       6       1       6       1
       1       6       1       1       1       6       1       6       1       1
       6       1       1       6       1       1       8       8       8       8
       8       8       6       6       6       6       6       6       1       1
       1       1       1       1       1       1       1       1       1       1
       1       1       1       1       1       1       8       6       6       6
       6       1       1       1       6       1       6       1       6       1
       1       7       6       6       6       6       6       6       6       1
       6       1       6       1       6       1       6       6       1       6
       1       1       6       6       6       6       8       6       6       6
       6       6       6       6       6       1       6       1       6       1
       6       1       6       6       1       1       1       1       7       7
       6       1       7       6       1       6       6       6       6       1
       6       6       1       6       6       6       6       6       6       6
       6       6       6       6       6       6       1       6       1       1
       6       1       6       6       1       6       1       6       1       6
       1       6       1       6       1       6       1       6       1       6
       1       1       6       1       1       1       6       1       6       1
       1       6       1       1       6       1       1       8       8       8
       8       8       8       6       6       6       6       6       6       1
       1       1       1       1       1       1       1       1       1       1
       1       1       1       1       1       1       1       8       6       6
       6       6       1       1       1       6       1       6       1       6
       1       1       7       6       6       6       6       6       6       6
       1       6       1       6       1       6       1       6       6       1
       6       1       1       6       6       6       6       8       6       6
       6       6       6       6       6       6       1       6       1       6
       1       6       1       6       6       1       1       1       1       7
       7       6       1       7       6       1       6       6       6       6
       1       6       6       1       6       6       6       6       6       6
       6       6       6       6       6       6       6       1       6       1
       1       6       1       6       6       1       6       1       6       1
       6       1       6       1       6       1       6       1       6       1
       6       1       1       6       1       1       1       6       1       6
       1       1       6       1       1       6       1       1       8       8
       8       8       8       8       6       6       6       6       6       6
       1       1       1       1       1       1       1       1       1       1
       1       1       1       1       1       1       1       1       8       6
       6       6       6       1       1       1       6       1       6       1
       6       1       1       7       6       6       6       6       6       6
       6       1       6       1       6       1       6       1       6       6
       1       6       1       1       6       6       6       6       8       6
       6       6       6       6       6       6       6       1       6       1
       6       1       6       1       6       6       1       1       1       1
       7       7       6       1       7       6       1       6       6       6
       6       1       6       6       1       6       6       6       6       6
       6       6       6       6       6       6       6       6       1       6
       1       1       6       1       6       6       1       6       1       6
       1       6       1       6       1       6       1       6       1       6
       1       6       1       1       6       1       1       1       6       1
       6       1       1       6       1       1       6       1       1       8
       8       8       8       8       8       6       6       6       6       6
       6       1       1       1       1       1       1       1       1       1
       1       1       1       1       1       1       1       1       1       8
       6       6       6       6       1       1       1       6       1       6
       1       6       1       1       7       6       6       6       6       6
       6       6       1       6       1       6       1       6       1       6
       6       1       6       1       1       6       6       6       6       8
       6       6       6       6       6       6       6       6       1       6
       1       6       1       6       1       6       6       1       1       1
       1       7       7       6       1       7       6       1       6       6
       6       6       1       6       6       1       6       6       6       6
       6       6       6       6       6       6       6       6       6       1
       6       1       1       6       1       6       6       1       6       1
       6       1       6       1       6       1       6       1       6       1
       6       1       6       1       1       6       1       1       1       6
       1       6       1       1       6       1       1       6       1       1
       8       8       8       8       8       8       6       6       6       6
       6       6       1       1       1       1       1       1       1       1
       1       1       1       1       1       1       1       1       1       1
       8       6       6       6       6       1       1       1       6       1
       6       1       6       1       1       7       6       6       6       6
       6       6       6       1       6       1       6       1       6       1
       6       6       1       6       1       1       6       6       6       6
       8       6       6       6       6       6       6       6       6       1
       6       1       6       1       6       1       6       6       1       1
       1       1       7       7       6       1       7       6       1       6
       6       6       6       1       6       6       1       6       6       6
       6       6       6       6       6       6       6       6       6       6
       1       6       1       1       6       1       6       6       1       6
       1       6       1       6       1       6       1       6       1       6
       1       6       1       6       1       1       6       1       1       1
       6       1       6       1       1       6       1       1       6       1
       1       8       8       8       8       8       8       6       6       6
       6       6       6       1       1       1       1       1       1       1
       1       1       1       1       1       1       1       1       1       1
       1       8       6       6       6       6       1       1       1       6
       1       6       1       6       1       1       7       6       6       6
       6       6       6       6       1       6       1       6       1       6
       1       6       6       1       6       1       1       6       6       6
       6       8       6       6       6       6       6       6       6       6
       1       6       1       6       1       6       1       6       6       1
       1       1       1       7       7       6       1       7       6       1
       6       6       6       6       1       6       6       1       6       6
       6       6       6       6       6       6       6       6       6       6
       6       1       6       1       1       6       1       6       6       1
       6       1       6       1       6       1       6       1       6       1
       6       1       6       1       6       1       1       6       1       1
       1       6       1       6       1       1       6       1       1       6
       1       1       8       8       8       8       8       8       6       6
       6       6       6       6       1       1       1       1       1       1
       1       1       1       1       1       1       1       1       1       1
       1       1       8       6       6       6       6       1       1       1
       6       1       6       1       6       1       1       7       6       6
       6       6       6       6       6       1       6       1       6       1
       6       1       6       6       1       6       1       1       6       6
       6       6       8       6       6       6       6       6       6       6
       6       1       6       1       6       1       6       1       6       6
       1       1       1       1       7       7       6       1       7       6
       1       6       6       6       6       1       6       6       1       6
       6       6       6       6       6       6       6       6       6       6
       6       6       1       6       1       1       6       1       6       6
       1       6       1       6       1       6       1       6       1       6
       1       6       1       6       1       6       1       1       6       1
       1       1       6       1       6       1       1       6       1       1
       6       1       1       8       8       8       8       8       8       6
       6       6       6       6       6       1       1       1       1       1
       1       1       1       1       1       1       1       1       1       1
       1       1       1       8       6       6       6       6       1       1
       1       6       1       6       1       6       1       1       7       6
       6       6       6       6       6       6       1       6       1       6
       1       6       1       6       6       1       6       1       1       6
       6       6       6       8       6       6       6       6       6       6
       6       6       1       6       1       6       1       6       1       6
       6       1       1       1       1       7       7       6       1       7
       6       1       6       6       6       6       1       6       6       1
       6       6       6       6       6       6       6       6       6       6
       6       6       6       1       6       1       1       6       1       6
       6       1       6       1       6       1       6       1       6       1
       6       1       6       1       6       1       6       1       1       6
       1       1       1       6       1       6       1       1       6       1
       1       6       1       1       8       8       8       8       8       8
       6       6       6       6       6       6       1       1       1       1
       1       1       1       1       1       1       1       1       1       1
       1       1       1       1       8       6       6       6       6       1
       1       1       6       1       6       1       6       1       1       7
       6       6       6       6       6       6       6       1       6       1
       6       1       6       1       6       6       1       6       1       1
       6       6       6       6       8       6       6       6       6       6
       6       6       6       1       6       1       6       1       6       1
       6       6       1       1       1       1       7       7       6       1
       7       6       1       6       6       6       6       1       6       6
       1       6       6       6       6       6       6       6       6       6
       6       6       6       6       1       6       1       1       6       1
       6       6       1       6       1       6       1       6       1       6
       1       6       1       6       1       6       1       6       1       1
       6       1       1       1       6       1       6       1       1       6
       1       1       6       1       1       8       8       8       8       8
       8       6       6       6       6       6       6       1       1       1
       1       1       1       1       1       1       1       1       1       1
       1       1       1       1       1       8       6       6       6       6
       1       1       1       6       1       6       1       6       1       1
       7       6       6       6       6       6       6       6       1       6
       1       6       1       6       1       6       6       1       6       1
       1       6       6       6       6       8       6       6       6       6
       6       6       6       6       1       6       1       6       1       6
       1       6       6       1       1       1       1       7       7       6
       1       7       6       1       6       6       6       6       1       6
       6       1       6       6       6       6       6       6       6       6
       6       6       6       6       6       1       6       1       1       6
       1       6       6       1       6       1       6       1       6       1
       6       1       6       1       6       1       6       1       6       1
       1       6       1       1       1       6       1       6       1       1
       6       1       1       6       1       1       8       8       8       8
       8       8       6       6       6       6       6       6       1       1
       1       1       1       1       1       1       1       1       1       1
       1       1       1       1       1       1       8       6       6       6
       6       1       1       1       6       1       6       1       6       1
       1       7       6       6       6       6       6       6       6       1
       6       1       6       1       6       1       6       6       1       6
       1       1       6       6       6       6       8       6       6       6
       6       6       6       6       6       1       6       1       6       1
       6       1       6       6       1       1       1       1       7       7
       6       1       7       6       1       6       6       6       6       1
       6       6       1       6       6       6       6       6       6       6
       6       6       6       6       6       6       1       6       1       1
       6       1       6       6       1       6       1       6       1       6
       1       6       1       6       1       6       1       6       1       6
       1       1       6       1       1       1       6       1       6       1
       1       6       1       1       6       1       1       8       8       8
       8       8       8       6       6       6       6       6       6       1
       1       1       1       1       1       1       1       1       1       1
       1       1       1       1       1       1       1       8       6       6
       6       6       1       1       1       6       1       6       1       6
       1       1       7       6       6       6       6       6       6       6
       1       6       1       6       1       6       1       6       6       1
       6       1       1       6       6       6       6       8       6       6
       6       6       6       6       6       6       1       6       1       6
       1       6       1       6       6       1       1       1       1       7
       7       6       1       7       6       1       6       6       6       6
       1       6       6       1       6       6       6       6       6       6
       6       6       6       6       6       6       6       1       6       1
       1       6       1       6       6       1       6       1       6       1
       6       1       6       1       6       1       6       1       6       1
       6       1       1       6       1       1       1       6       1       6
       1       1       6       1       1       6       1       1       8       8
       8       8       8       8       6       6       6       6       6       6
       1       1       1       1       1       1       1       1       1       1
       1       1       1       1       1       1       1       1       8       6
       6       6       6       1       1       1       6       1       6       1
       6       1       1       7       6       6       6       6       6       6
       6       1       6       1       6       1       6       1       6       6
       1       6       1       1       6       6       6       6       8       6
       6       6       6       6       6       6       6       1       6       1
       6       1       6       1       6       6       1       1       1       1
       7       7       6       1       7       6       1       6       6       6
       6       1       6       6       1       6       6       6       6       6
       6       6       6       6       6       6       6       6       1       6
       1       1       6       1       6       6       1       6       1       6
       1       6       1       6       1       6       1       6       1       6
       1       6       1       1       6       1       1       1       6       1
       6       1       1       6       1       1       6       1       1       8
       8       8       8       8       8       6       6       6       6       6
       6       1       1       1       1       1       1       1       1       1
       1       1       1       1       1       1       1       1       1       8
       6       6       6       6       1       1       1       6       1       6
       1       6       1       1       7       6       6       6       6       6
       6       6       1       6       1       6       1       6       1       6
       6       1       6       1       1       6       6       6       6       8
       6       6       6       6       6       6       6       6       1       6
       1       6       1       6       1       6       6       1       1       1
       1       7       7       6       1       7       6       1       6       6
       6       6       1       6       6       1       6       6       6       6
       6       6       6       6       6       6       6       6       6       1
       6       1       1       6       1       6       6       1       6       1
       6       1       6       1       6       1       6       1       6       1
       6       1       6       1       1       6       1       1       1       6
       1       6       1       1       6       1       1       6       1       1
       8       8       8       8       8       8       6       6       6       6
       6       6       1       1       1       1       1       1       1       1
       1       1       1       1       1       1       1       1       1       1
       8       6       6       6       6       1       1       1       6       1
       6       1       6       1       1       7       6       6       6       6
       6       6       6       1       6       1       6       1       6       1
       6       6       1       6       1       1       6       6       6       6
       8       6       6       6       6       6       6       6       6       1
       6       1       6       1       6       1       6       6       1       1
       1       1       7       7       6       1       7       6       1       6
       6       6       6       1       6       6       1       6       6       6
       6       6       6       6       6       6       6       6       6       6
       1       6       1       1       6       1       6       6       1       6
       1       6       1       6       1       6       1       6       1       6
       1       6       1       6       1       1       6       1       1       1
       6       1       6       1       1       6       1       1       6       1
       1       8       8       8       8       8       8       6       6       6
       6       6       6       1       1       1       1       1       1       1
       1       1       1       1       1       1       1       1       1       1
       1       8       6       6       6       6       1       1       1       6
       1       6       1       6       1       1       7       6       6       6
       6       6       6       6       1       6       1       6       1       6
       1       6       6       1       6       1       1       6       6       6
       6       8       6       6       6       6       6       6       6       6
       1       6       1       6       1       6       1       6       6       1
       1       1       1       7       7       6       1       7       6       1
       6       6       6       6       1       6       6       1       6       6
       6       6       6       6       6       6       6       6       6       6
       6       1       6       1       1       6       1       6       6       1
       6       1       6       1       6       1       6       1       6       1
       6       1       6       1       6       1       1       6       1       1
       1       6       1       6       1       1       6       1       1       6
       1       1       8       8       8       8       8       8       6       6
       6       6       6       6       1       1       1       1       1       1
       1       1       1       1       1       1       1       1       1       1
       1       1       8       6       6       6       6       1       1       1
       6       1       6       1       6       1       1       7       6       6
       6       6       6       6       6       1       6       1       6       1
       6       1       6       6       1       6       1       1       6       6
       6       6       8       6       6       6       6       6       6       6
       6       1       6       1       6       1       6       1       6       6
       1       1       1       1       7       7       6       1       7       6
       1       6       6       6       6       1       6       6       1       6
       6       6       6       6       6       6       6       6       6       6
       6       6       1       6       1       1       6       1       6       6
       1       6       1       6       1       6       1       6       1       6
       1       6       1       6       1       6       1       1       6       1
       1       1       6       1       6       1       1       6       1       1
       6       1       1       8       8       8       8       8       8       6
       6       6       6       6       6       1       1       1       1       1
       1       1       1       1       1       1       1       1       1       1
       1       1       1       8       6       6       6       6       1       1
       1       6       1       6       1       6       1       1       7       6
       6       6       6       6       6       6       1       6       1       6
       1       6       1       6       6       1       6       1       1       6
       6       6       6       8       6       6       6       6       6       6
       6       6       1       6       1       6       1       6       1       6
       6       1       1       1       1       7       7       6       1       7
       6       1       6       6       6       6       1       6       6       1
       6       6       6       6       6       6       6       6       6       6
       6       6       6       1       6       1       1       6       1       6
       6       1       6       1       6       1       6       1       6       1
       6       1       6       1       6       1       6       1       1       6
       1       1       1       6       1       6       1       1       6       1
       1       6       1       1       8       8       8       8       8       8
       6       6       6       6       6       6       1       1       1       1
       1       1       1       1       1       1       1       1       1       1
       1       1       1       1       8       6       6       6       6       1
       1       1       6       1       6       1       6       1       1       7
       6       6       6       6       6       6       6       1       6       1
       6       1       6       1       6       6       1       6       1       1
       6       6       6       6       8       6       6       6       6       6
       6       6       6       1       6       1       6       1       6       1
       6       6       1       1       1       1       7       7       6       1
       7       6       1       6       6       6       6       1       6       6
       1       6       6       6       6       6       6       6       6       6
       6       6       6       6       1       6       1       1       6       1
       6       6       1       6       1       6       1       6       1       6
       1       6       1       6       1       6       1       6       1       1
       6       1       1       1       6       1       6       1       1       6
       1       1       6       1       1       8       8       8       8       8
       8       6       6       6       6       6       6       1       1       1
       1       1       1       1       1       1       1       1       1       1
       1       1       1       1       1       8       6       6       6       6
       1       1       1       6       1       6       1       6       1       1
       7       6       6       6       6       6       6       6       1       6
       1       6       1       6       1       6       6       1       6       1
       1       6       6       6       6       8       6       6       6       6
       6       6       6       6       1       6       1       6       1       6
       1       6       6       1       1       1       1       7       7       6
       1       7       6       1       6       6       6       6       1       6
       6       1       6       6       6       6       6       6       6       6
       6       6       6       6       6       1       6       1       1       6
       1       6       6       1       6       1       6       1       6       1
       6       1       6       1       6       1       6       1       6       1
       1       6       1       1       1       6       1       6       1       1
       6       1       1       6       1       1       8       8       8       8
       8       8       6       6       6       6       6       6       1       1
       1       1       1       1       1       1       1       1       1       1
       1       1       1       1       1       1       8       6       6       6
       6       1       1       1       6       1       6       1       6       1
       1       7       6       6       6       6       6       6       6       1
       6       1       6       1       6       1       6       6       1       6
       1       1       6       6       6       6       8       6       6       6
       6       6       6       6       6       1       6       1       6       1
       6       1       6       6       1       1       1       1       7       7
       6       1       7       6       1       6       6       6       6       1
       6       6       1       6       6       6       6       6       6       6
       6       6       6       6       6       6       1       6       1       1
       6       1       6       6       1       6       1       6       1       6
       1       6       1       6       1       6       1       6       1       6
       1       1       6       1       1       1       6       1       6       1
       1       6       1       1       6       1       1       8       8       8
       8       8       8       6       6       6       6       6       6       1
       1       1       1       1       1       1       1       1       1       1
       1       1       1       1       1       1       1       8       6       6
       6       6       1       1       1       6       1       6       1       6
       1       1       7       6       6       6       6       6       6       6
       1       6       1       6       1       6       1       6       6       1
       6       1       1       6       6       6       6       8       6       6
       6       6       6       6       6       6       1       6       1       6
       1       6       1       6       6       1       1       1       1       7
       7       6       1       7       6       1       6       6       6       6
       1       6       6       1       6       6       6       6       6       6
       6       6       6       6       6       6       6       1       6       1
       1       6       1       6       6       1       6       1       6       1
       6       1       6       1       6       1       6       1       6       1
       6       1       1       6       1       1       1       6       1       6
       1       1       6       1       1       6       1       1       8       8
       8       8       8       8       6       6       6       6       6       6
       1       1       1       1       1       1       1       1       1       1
       1       1       1       1       1       1       1       1       8       6
       6       6       6       1       1       1       6       1       6       1
       6       1       1       7       6       6       6       6       6       6
       6       1       6       1       6       1       6       1       6       6
       1       6       1       1       6       6       6       6       8       6
       6       6       6       6       6       6       6       1       6       1
       6       1       6       1       6       6       1       1       1       1
       7       7       6       1       7       6       1       6       6       6
       6       1       6       6       1       6       6       6       6       6
       6       6       6       6       6       6       6       6       1       6
       1       1       6       1       6       6       1       6       1       6
       1       6       1       6       1       6       1       6       1       6
       1       6       1       1       6       1       1       1       6       1
       6       1       1       6       1       1       6       1       1       8
       8       8       8       8       8       6       6       6       6       6
       6       1       1       1       1       1       1       1       1       1
       1       1       1       1       1       1       1       1       1       8
       6       6       6       6       1       1       1       6       1       6
       1       6       1       1       7       6       6       6       6       6
       6       6       1       6       1       6       1       6       1       6
       6       1       6       1       1       6       6       6       6       8
       6       6       6       6       6       6       6       6       1       6
       1       6       1       6       1       6       6       1       1       1
       1       7       7       6       1       7       6       1       6       6
       6       6       1       6       6       1       6       6       6       6
       6       6       6       6       6       6       6       6       6       1
       6       1       1       6       1       6       6       1       6       1
       6       1       6       1       6       1       6       1       6       1
       6       1       6       1       1       6       1       1       1       6
       1       6       1       1       6       1       1       6       1       1
       8       8       8       8       8       8       6       6       6       6
       6       6       1       1       1       1       1       1       1       1
       1       1       1       1       1       1       1       1       1       1
       8       6       6       6       6       1       1       1       6       1
       6       1       6       1       1       7       6       6       6       6
       6       6       6       1       6       1       6       1       6       1
       6       6       1       6       1       1       6       6       6       6
       8       6       6       6       6       6       6       6       6       1
       6       1       6       1       6       1       6       6       1       1
       1       1       7       7       6       1       7       6       1       6
       6       6       6       1       6       6       1       6       6       6
       6       6       6       6       6       6       6       6       6       6
       1       6       1       1       6       1       6       6       1       6
       1       6       1       6       1       6       1       6       1       6
       1       6       1       6       1       1       6       1       1       1
       6       1       6       1       1       6       1       1       6       1
       1       8       8       8       8       8       8       6       6       6
       6       6       6       1       1       1       1       1       1       1
       1       1       1       1       1       1       1       1       1       1
       1       8       6       6       6       6       1       1       1       6
       1       6       1       6       1       1       7       6       6       6
       6       6       6       6       1       6       1       6       1       6
       1       6       6       1       6       1       1       6       6       6
       6       8       6       6       6       6       6       6       6       6
       1       6       1       6       1       6       1       6       6       1
       1       1       1       7       7       6       1       7       6       1
       6       6       6       6       1       6       6       1       6       6
       6       6       6       6       6       6       6       6       6       6
       6       1       6       1       1       6       1       6       6       1
       6       1       6       1       6       1       6       1       6       1
       6       1       6       1       6       1       1       6       1       1
       1       6       1       6       1       1       6       1       1       6
       1       1       8       8       8       8       8       8       6       6
       6       6       6       6       1       1       1       1       1       1
       1       1       1       1       1       1       1       1       1       1
       1       1       8       6       6       6       6       1       1       1
       6       1       6       1       6       1       1       7       6       6
       6       6       6       6       6       1       6       1       6       1
       6       1       6       6       1       6       1       1       6       6
       6       6       8       6       6       6       6       6       6       6
       6       1       6       1       6       1       6       1       6       6
       1       1       1       1       7       7       6       1       7       6
       1       6       6       6       6       1       6       6       1       6
       6       6       6       6       6       6       6       6       6       6
       6       6       1       6       1       1       6       1       6       6
       1       6       1       6       1       6       1       6       1       6
       1       6       1       6       1       6       1       1       6       1
       1       1       6       1       6       1       1       6       1       1
       6       1       1       8       8       8       8       8       8       6
       6       6       6       6       6       1       1       1       1       1
       1       1       1       1       1       1       1       1       1       1
       1       1       1       8       6       6       6       6       1       1
       1       6       1       6       1       6       1       1       7       6
       6       6       6       6       6       6       1       6       1       6
       1       6       1       6       6       1       6       1       1       6
       6       6       6       8       6       6       6       6       6       6
       6       6       1       6       1       6       1       6       1       6
       6       1       1       1       1       7       7       6       1       7
       6       1       6       6       6       6       1       6       6       1
       6       6       6       6       6       6       6       6       6       6
       6       6       6       1       6       1       1       6       1       6
       6       1       6       1       6       1       6       1       6       1
       6       1       6       1       6       1       6       1       1       6
       1       1       1       6       1       6       1       1       6       1
       1       6       1       1       8       8       8       8       8       8
       6       6       6       6       6       6       1       1       1       1
       1       1       1       1       1       1       1       1       1       1
       1       1       1       1       8       6       6       6       6       1
       1       1       6       1       6       1       6       1       1       7
       6       6       6       6       6       6       6       1       6       1
       6       1       6       1       6       6       1       6       1       1
       6       6       6       6       8       6       6       6       6       6
       6       6       6       1       6       1       6       1       6       1
       6       6       1       1       1       1       7       7       6       1
       7       6       1       6       6       6       6       1       6       6
       1       6       6       6       6       6       6       6       6       6
       6       6       6       6       1       6       1       1       6       1
       6       6       1       6       1       6       1       6       1       6
       1       6       1       6       1       6       1       6       1       1
       6       1       1       1       6       1       6       1       1       6
       1       1       6       1       1       8       8       8       8       8
       8       6       6       6       6       6       6       1       1       1
       1       1       1       1       1       1       1       1       1       1
       1       1       1       1       1       8       6       6       6       6
       1       1       1       6       1       6       1       6       1       1
       7       6       6       6       6       6       6       6       1       6
       1       6       1       6       1       6       6       1       6       1
       1       6       6       6       6       8       6       6       6       6
       6       6       6       6       1       6       1       6       1       6
       1       6       6       1       1       1       1       7       7       6
       1       7       6       1       6       6       6       6       1       6
       6       1       6       6       6       6       6       6       6       6
       6       6       6       6       6       1       6       1       1       6
       1       6       6       1       6       1       6       1       6       1
       6       1       6       1       6       1       6       1       6       1
       1       6       1       1       1       6       1       6       1       1
       6       1       1       6       1       1       8       8       8       8
       8       8       6       6       6       6       6       6       1       1
       1       1       1       1       1       1       1       1       1       1
       1       1       1       1       1       1       8       6       6       6
       6       1       1       1       6       1       6       1       6       1
       1       7       6       6       6       6       6       6       6       1
       6       1       6       1       6       1       6       6       1       6
       1       1       6       6       6       6       8       6       6       6
       6       6       6       6       6       1       6       1       6       1
       6       1       6       6       1       1       1       1       7       7
       6       1       7       6       1       6       6       6       6       1
       6       6       1       6       6       6       6       6       6       6
       6       6       6       6       6       6       1       6       1       1
       6       1       6       6       1       6       1       6       1       6
       1       6       1       6       1       6       1       6       1       6
       1       1       6       1       1       1       6       1       6       1
       1       6       1       1       6       1       1       8       8       8
       8       8       8       6       6       6       6       6       6       1
       1       1       1       1       1       1       1       1       1       1
       1       1       1       1       1       1       1       8       6       6
       6       6       1       1       1       6       1       6       1       6
       1       1       7       6       6       6       6       6       6       6
       1       6       1       6       1       6       1       6       6       1
       6       1       1       6       6       6       6       8       6       6
       6       6       6       6       6       6       1       6       1       6
       1       6       1       6       6       1       1       1       1       7
       7       6       1       7       6       1       6       6       6       6
       1       6       6       1       6       6       6       6       6       6
       6       6       6       6       6       6       6       1       6       1
       1       6       1       6       6       1       6       1       6       1
       6       1       6       1       6       1       6       1       6       1
       6       1       1       6       1       1       1       6       1       6
       1       1       6       1       1       6       1       1       8       8
       8       8       8       8       6       6       6       6       6       6
       1       1       1       1       1       1       1       1       1       1
       1       1       1       1       1       1       1       1       8       6
       6       6       6       1       1       1       6       1       6       1
       6       1       1       7       6       6       6       6       6       6
       6       1       6       1       6       1       6       1       6       6
       1       6       1       1       6       6       6       6       8       6
       6       6       6       6       6       6       6       1       6       1
       6       1       6       1       6       6       1       1       1       1
       7       7       6       1       7       6       1       6       6       6
       6       1       6       6       1       6       6       6       6       6
       6       6       6       6       6       6       6       6       1       6
       1       1       6       1       6       6       1       6       1       6
       1       6       1       6       1       6       1       6       1       6
       1       6       1       1       6       1       1       1       6       1
       6       1       1       6       1       1       6       1       1       8
       8       8       8       8       8       6       6       6       6       6
       6       1       1       1       1       1       1       1       1       1
       1       1       1       1       1       1       1       1       1       8
       6       6       6       6       1       1       1       6       1       6
       1       6       1       1       7       6       6       6       6       6
       6       6       1       6       1       6       1       6       1       6
       6       1       6       1       1       6       6       6       6       8
       6       6       6       6       6       6       6       6       1       6
       1       6       1       6       1       6       6       1       1       1
       1       7       7       6       1       7       6       1       6       6
       6       6       1       6       6       1       6       6       6       6
       6       6       6       6       6       6       6       6       6       1
       6       1       1       6       1       6       6       1       6       1
       6       1       6       1       6       1       6       1       6       1
       6       1       6       1       1       6       1       1       1       6
       1       6       1       1       6       1       1       6       1       1
       8       8       8       8       8       8       6       6       6       6
       6       6       1       1       1       1       1       1       1       1
       1       1       1       1       1       1       1       1       1       1
       8       6       6       6       6       1       1       1       6       1
       6       1       6       1       1       7       6       6       6       6
       6       6       6       1       6       1       6       1       6       1
       6       6       1       6       1       1       6       6       6       6
       8       6       6       6       6       6       6       6       6       1
       6       1       6       1       6       1       6       6       1       1
       1       1       7       7       6       1       7       6       1       6
       6       6       6       1       6       6       1       6       6       6
       6       6       6       6       6       6       6       6       6       6
       1       6       1       1       6       1       6       6       1       6
       1       6       1       6       1       6       1       6       1       6
       1       6       1       6       1       1       6       1       1       1
       6       1       6       1       1       6       1       1       6       1
       1       8       8       8       8       8       8       6       6       6
       6       6       6       1       1       1       1       1       1       1
       1       1       1       1       1       1       1       1       1       1
       1       8       6       6       6       6       1       1       1       6
       1       6       1       6       1       1       7       6       6       6
       6       6       6       6       1       6       1       6       1       6
       1       6       6       1       6       1       1       6       6       6
       6       8       6       6       6       6       6       6       6       6
       1       6       1       6       1       6       1       6       6       1
       1       1       1       7       7       6       1       7       6       1
       6       6       6       6       1       6       6       1       6       6
       6       6       6       6       6       6       6       6       6       6
       6       1       6       1       1       6       1       6       6       1
       6       1       6       1       6       1       6       1       6       1
       6       1       6       1       6       1       1       6       1       1
       1       6       1       6       1       1       6       1       1       6
       1       1       8       8       8       8       8       8       6       6
       6       6       6       6       1       1       1       1       1       1
       1       1       1       1       1       1       1       1       1       1
       1       1       8       6       6       6       6       1       1       1
       6       1       6       1       6       1       1       7       6       6
       6       6       6       6       6       1       6       1       6       1
       6       1       6       6       1       6       1       1       6       6
       6       6       8       6       6       6       6       6       6       6
       6       1       6       1       6       1       6       1       6       6
       1       1       1       1       7       7       6       1       7       6
       1       6       6       6       6       1       6       6       1       6
       6       6       6       6       6       6       6       6       6       6
       6       6       1       6       1       1       6       1       6       6
       1       6       1       6       1       6       1       6       1       6
       1       6       1       6       1       6       1       1       6       1
       1       1       6       1       6       1       1       6       1       1
       6       1       1       8       8       8       8       8       8       6
       6       6       6       6       6       1       1       1       1       1
       1       1       1       1       1       1       1       1       1       1
       1       1       1       8       6       6       6       6       1       1
       1       6       1       6       1       6       1       1       7       6
       6       6       6       6       6       6       1       6       1       6
       1       6       1       6       6       1       6       1       1       6
       6       6       6       8       6       6       6       6       6       6
       6       6       1       6       1       6       1       6       1       6
       6       1       1       1       1       7       7       6       1       7
       6       1       6       6       6       6       1       6       6       1
       6       6       6       6       6       6       6       6       6       6
       6       6       6       1       6       1       1       6       1       6
       6       1       6       1       6       1       6       1       6       1
       6       1       6       1       6       1       6       1       1       6
       1       1       1       6       1       6       1       1       6       1
       1       6       1       1       8       8       8       8       8       8
       6       6       6       6       6       6       1       1       1       1
       1       1       1       1       1       1       1       1       1       1
       1       1       1       1       8       6       6       6       6       1
       1       1       6       1       6       1       6       1       1       7
       6       6       6       6       6       6       6       1       6       1
       6       1       6       1       6       6       1       6       1       1
       6       6       6       6       8       6       6       6       6       6
       6       6       6       1       6       1       6       1       6       1
       6       6       1       1       1       1       7       7       6       1
       7       6       1       6       6       6       6       1       6       6
       1       6       6       6       6       6       6       6       6       6
       6       6       6       6       1       6       1       1       6       1
       6       6       1       6       1       6       1       6       1       6
       1       6       1       6       1       6       1       6       1       1
       6       1       1       1       6       1       6       1       1       6
       1       1       6       1       1       8       8       8       8       8
       8       6       6       6       6       6       6       1       1       1
       1       1       1       1       1       1       1       1       1       1
       1       1       1       1       1       8       6       6       6       6
       1       1       1       6       1       6       1       6       1       1
       7       6       6       6       6       6       6       6       1       6
       1       6       1       6       1       6       6       1       6       1
       1       6       6       6       6       8       6       6       6       6
       6       6       6       6       1       6       1       6       1       6
       1       6       6       1       1       1       1       7       7       6
       1       7       6       1       6       6       6       6       1       6
       6       1       6       6       6       6       6       6       6       6
       6       6       6       6       6       1       6       1       1       6
       1       6       6       1       6       1       6       1       6       1
       6       1       6       1       6       1       6       1       6       1
       1       6       1       1       1       6       1       6       1       1
       6       1       1       6       1       1       8       8       8       8
       8       8       6       6       6       6       6       6       1       1
       1       1       1       1       1       1       1       1       1       1
       1       1       1       1       1       1       8       6       6       6
       6       1       1       1       6       1       6       1       6       1
       1       7       6       6       6       6       6       6       6       1
       6       1       6       1       6       1       6       6       1       6
       1       1       6       6       6       6       8       6       6       6
       6       6       6       6       6       1       6       1       6       1
       6       1       6       6       1       1       1       1       7       7
       6       1       7       6       1       6       6       6       6       1
       6       6       1       6       6       6       6       6       6       6
       6       6       6       6       6       6       1       6       1       1
       6       1       6       6       1       6       1       6       1       6
       1       6       1       6       1       6       1       6       1       6
       1       1       6       1       1       1       6       1       6       1
       1       6       1       1       6       1       1       8       8       8
       8       8       8       6       6       6       6       6       6       1
       1       1       1       1       1       1       1       1       1       1
       1       1       1       1       1       1       1       8       6       6
       6       6       1       1       1       6       1       6       1       6
       1       1       7       6       6       6       6       6       6       6
       1       6       1       6       1       6       1       6       6       1
       6       1       1       6       6       6       6       8       6       6
       6       6       6       6       6       6       1       6       1       6
       1       6       1       6       6       1       1       1       1       7
       7       6       1       7       6       1       6       6       6       6
       1       6       6       1       6       6       6       6       6       6
       6       6       6       6       6       6       6       1       6       1
       1       6       1       6       6       1       6       1       6       1
       6       1       6       1       6       1       6       1       6       1
       6       1       1       6       1       1       1       6       1       6
       1       1       6       1       1       6       1       1       8       8
       8       8       8       8       6       6       6       6       6       6
       1       1       1       1       1       1       1       1       1       1
       1       1       1       1       1       1       1       1       8       6
       6       6       6       1       1       1       6       1       6       1
       6       1       1       7       6       6       6       6       6       6
       6       1       6       1       6       1       6       1       6       6
       1       6       1       1       6       6       6       6       8       6
       6       6       6       6       6       6       6       1       6       1
       6       1       6       1       6       6       1       1       1       1
       7       7       6       1       7       6       1       6       6       6
       6       1       6       6       1       6       6       6       6       6
       6       6       6       6       6       6       6       6       1       6
       1       1       6       1       6       6       1       6       1       6
       1       6       1       6       1       6       1       6       1       6
       1       6       1       1       6       1       1       1       6       1
       6       1       1       6       1       1       6       1       1       8
       8       8       8       8       8       6       6       6       6       6
       6       1       1       1       1       1       1       1       1       1
       1       1       1       1       1       1       1       1       1       8
       6       6       6       6       1       1       1       6       1       6
       1       6       1       1       7       6       6       6       6       6
       6       6       1       6       1       6       1       6       1       6
       6       1       6       1       1       6       6       6       6       8
       6       6       6       6       6       6       6       6       1       6
       1       6       1       6       1       6       6       1       1       1
       1       7       7       6       1       7       6       1       6       6
       6       6       1       6       6       1       6       6       6       6
       6       6       6       6       6       6       6       6       6       1
       6       1       1       6       1       6       6       1       6       1
       6       1       6       1       6       1       6       1       6       1
       6       1       6       1       1       6       1       1       1       6
       1       6       1       1       6       1       1       6       1       1
       8       8       8       8       8       8       6       6       6       6
       6       6       1       1       1       1       1       1       1       1
       1       1       1       1       1       1       1       1       1       1
       8       6       6       6       6       1       1       1       6       1
       6       1       6       1       1       7       6       6       6       6
       6       6       6       1       6       1       6       1       6       1
       6       6       1       6       1       1       6       6       6       6
       8       6       6       6       6       6       6       6       6       1
       6       1       6       1       6       1       6       6       1       1
       1       1       7       7       6       1       7       6       1       6
       6       6       6       1       6       6       1       6       6       6
       6       6       6       6       6       6       6       6       6       6
       1       6       1       1       6       1       6       6       1       6
       1       6       1       6       1       6       1       6       1       6
       1       6       1       6       1       1       6       1       1       1
       6       1       6       1       1       6       1       1       6       1
       1       8       8       8       8       8       8       6       6       6
       6       6       6       1       1       1       1       1       1       1
       1       1       1       1       1       1       1       1       1       1
       1       8       6       6       6       6       1       1       1       6
       1       6       1       6       1       1       7       6       6       6
       6       6       6       6       1       6       1       6       1       6
       1       6       6       1       6       1       1       6       6       6
       6       8       6       6       6       6       6       6       6       6
       1       6       1       6       1       6       1       6       6       1
       1       1       1       7       7       6       1       7       6       1
       6       6       6       6       1       6       6       1       6       6
       6       6       6       6       6       6       6       6       6       6
       6       1       6       1       1       6       1       6       6       1
       6       1       6       1       6       1       6       1       6       1
       6       1       6       1       6       1       1       6       1       1
       1       6       1       6       1       1       6       1       1       6
       1       1       8       8       8       8       8       8       6       6
       6       6       6       6       1       1       1       1       1       1
       1       1       1       1       1       1       1       1       1       1
       1       1       8       6       6       6       6       1       1       1
       6       1       6       1       6       1       1       7       6       6
       6       6       6       6       6       1       6       1       6       1
       6       1       6       6       1       6       1       1       6       6
       6       6       8       6       6       6       6       6       6       6
       6       1       6       1       6       1       6       1       6       6
       1       1       1       1       7       7       6       1       7       6
       1       6       6       6       6       1       6       6       1       6
       6       6       6       6       6       6       6       6       6       6
       6       6       1       6       1       1       6       1       6       6
       1       6       1       6       1       6       1       6       1       6
       1       6       1       6       1       6       1       1       6       1
       1       1       6       1       6       1       1       6       1       1
       6       1       1       8       8       8       8       8       8       6
       6       6       6       6       6       1       1       1       1       1
       1       1       1       1       1       1       1       1       1       1
       1       1       1       8       6       6       6       6       1       1
       1       6       1       6       1       6       1       1       7       6
       6       6       6       6       6       6       1       6       1       6
       1       6       1       6       6       1       6       1       1       6
       6       6       6       8       6       6       6       6       6       6
       6       6       1       6       1       6       1       6       1       6
       6       1       1       1       1       7       7       6       1       7
       6       1       6       6       6       6       1       6       6       1
       6       6       6       6       6       6       6       6       6       6
       6       6       6       1       6       1       1       6       1       6
       6       1       6       1       6       1       6       1       6       1
       6       1       6       1       6       1       6       1       1       6
       1       1       1       6       1       6       1       1       6       1
       1       6       1       1       8       8       8       8       8       8
       6       6       6       6       6       6       1       1       1       1
       1       1       1       1       1       1       1       1       1       1
       1       1       1       1       8       6       6       6       6       1
       1       1       6       1       6       1       6       1       1       7
       6       6       6       6       6       6       6       1       6       1
       6       1       6       1       6       6       1       6       1       1
       6       6       6       6       8       6       6       6       6       6
       6       6       6       1       6       1       6       1       6       1
       6       6       1       1       1       1       7       7       6       1
       7       6       1       6       6       6       6       1       6       6
       1       6       6       6       6       6       6       6       6       6
       6       6       6       6       1       6       1       1       6       1
       6       6       1       6       1       6       1       6       1       6
       1       6       1       6       1       6       1       6       1       1
       6       1       1       1       6       1       6       1       1       6
       1       1       6       1       1       8       8       8       8       8
       8       6       6       6       6       6       6       1       1       1
       1       1       1       1       1       1       1       1       1       1
       1       1       1       1       1       8       6       6       6       6
       1       1       1       6       1       6       1       6       1       1
       7       6       6       6       6       6       6       6       1       6
       1       6       1       6       1       6       6       1       6       1
       1       6       6       6       6       8       6       6       6       6
       6       6       6       6       1       6       1       6       1       6
       1       6       6       1       1       1       1       7       7       6
       1       7       6       1       6       6       6       6       1       6
       6       1       6       6       6       6       6       6       6       6
       6       6       6       6       6       1       6       1       1       6
       1       6       6       1       6       1       6       1       6       1
       6       1       6       1       6       1       6       1       6       1
       1       6       1       1       1       6       1       6       1       1
       6       1       1       6       1       1       8       8       8       8
       8       8       6       6       6       6       6       6       1       1
       1       1       1       1       1       1       1       1       1       1
       1       1       1       1       1       1       8       6       6       6
       6       1       1       1       6       1       6       1       6       1
       1       7       6       6       6       6       6       6       6       1
       6       1       6       1       6       1       6       6       1       6
       1       1       6       6       6       6       8       6       6       6
       6       6       6       6       6       1       6       1       6       1
       6       1       6       6       1       1       1       1       7       7
       6       1       7       6       1       6       6       6       6       1
       6       6       1       6       6       6       6       6       6       6
       6       6       6       6       6       6       1       6       1       1
       6       1       6       6       1       6       1       6       1       6
       1       6       1       6       1       6       1       6       1       6
       1       1       6       1       1       1       6       1       6       1
       1       6       1       1       6       1       1       8       8       8
       8       8       8       6       6       6       6       6       6       1
       1       1       1       1       1       1       1       1       1       1
       1       1       1       1       1       1       1       8       6       6
       6       6       1       1       1       6       1       6       1       6
       1       1       7       6       6       6       6       6       6       6
       1       6       1       6       1       6       1       6       6       1
       6       1       1       6       6       6       6       8       6       6
       6       6       6       6       6       6       1       6       1       6
       1       6       1       6       6       1       1       1       1       7
       7       6       1       7       6       1       6       6       6       6
       1       6       6       1       6       6       6       6       6       6
       6       6       6       6       6       6       6       1       6       1
       1       6       1       6       6       1       6       1       6       1
       6       1       6       1       6       1       6       1       6       1
       6       1       1       6       1       1       1       6       1       6
       1       1       6       1       1       6       1       1       8       8
       8       8       8       8       6       6       6       6       6       6
       1       1       1       1       1       1       1       1       1       1
       1       1       1       1       1       1       1       1       8       6
       6       6       6       1       1       1       6       1       6       1
       6       1       1       7       6       6       6       6       6       6
       6       1       6       1       6       1       6       1       6       6
       1       6       1       1       6       6       6       6       8       6
       6       6       6       6       6       6       6       1       6       1
       6       1       6       1       6       6       1       1       1       1
       7       7       6       1       7       6       1       6       6       6
       6       1       6       6       1       6       6       6       6       6
       6       6       6       6       6       6       6       6       1       6
       1       1       6       1       6       6       1       6       1       6
       1       6       1       6       1       6       1       6       1       6
       1       6       1       1       6       1       1       1       6       1
       6       1       1       6       1       1       6       1       1       8
       8       8       8       8       8       6       6       6       6       6
       6       1       1       1       1       1       1       1       1       1
       1       1       1       1       1       1       1       1       1       8
       6       6       6       6       1       1       1       6       1       6
       1       6       1       1       7       6       6       6       6       6
       6       6       1       6       1       6       1       6       1       6
       6       1       6       1       1       6       6       6       6       8
       6       6       6       6       6       6       6       6       1       6
       1       6       1       6       1       6       6       1       1       1
       1       7       7       6       1       7       6       1       6       6
       6       6       1       6       6       1       6       6       6       6
       6       6       6       6       6       6       6       6       6       1
       6       1       1       6       1       6       6       1       6       1
       6       1       6       1       6       1       6       1       6       1
       6       1       6       1       1       6       1       1       1       6
       1       6       1       1       6       1       1       6       1       1
       8       8       8       8       8       8       6       6       6       6
       6       6       1       1       1       1       1       1       1       1
       1       1       1       1       1       1       1       1       1       1
       8       6       6       6       6       1       1       1       6       1
       6       1       6       1       1       7       6       6       6       6
       6       6       6       1       6       1       6       1       6       1
       6       6       1       6       1       1       6       6       6       6
       8       6       6       6       6       6       6       6       6       1
       6       1       6       1       6       1       6       6       1       1
       1       1       7       7       6       1       7       6       1       6
       6       6       6       1       6       6       1       6       6       6
       6       6       6       6       6       6       6       6       6       6
       1       6       1       1       6       1       6       6       1       6
       1       6       1       6       1       6       1       6       1       6
       1       6       1       6       1       1       6       1       1       1
       6       1       6       1       1       6       1       1       6       1
       1       8       8       8       8       8       8       6       6       6
       6       6       6       1       1       1       1       1       1       1
       1       1       1       1       1       1       1       1       1       1
       1       8       6       6       6       6       1       1       1       6
       1       6       1       6       1       1       7       6       6       6
       6       6       6       6       1       6       1       6       1       6
       1       6       6       1       6       1       1       6       6       6
       6       8       6       6       6       6       6       6       6       6
       1       6       1       6       1       6       1       6       6       1
       1       1       1       7       7       6       1       7       6       1
       6       6       6       6       1       6       6       1       6       6
       6       6       6       6       6       6       6       6       6       6
       6       1       6       1       1       6       1       6       6       1
       6       1       6       1       6       1       6       1       6       1
       6       1       6       1       6       1       1       6       1       1
       1       6       1       6       1       1       6       1       1       6
       1       1       8       8       8       8       8       8       6       6
       6       6       6       6       1       1       1       1       1       1
       1       1       1       1       1       1       1       1       1       1
       1       1       8       6       6       6       6       1       1       1
       6       1       6       1       6       1       1       7       6       6
       6       6       6       6       6       1       6       1       6       1
       6       1       6       6       1       6       1       1       6       6
       6       6       8       6       6       6       6       6       6       6
       6       1       6       1       6       1       6       1       6       6
       1       1       1       1       7       7       6       1       7       6
       1       6       6       6       6       1       6       6       1       6
       6       6       6       6       6       6       6       6       6       6
       6       6       1       6       1       1       6       1       6       6
       1       6       1       6       1       6       1       6       1       6
       1       6       1       6       1       6       1       1       6       1
       1       1       6       1       6       1       1       6       1       1
       6       1       1       8       8       8       8       8       8       6
       6       6       6       6       6       1       1       1       1       1
       1       1       1       1       1       1       1       1       1       1
       1       1       1       8       6       6       6       6       1       1
       1       6       1       6       1       6       1       1       7       6
       6       6       6       6       6       6       1       6       1       6
       1       6       1       6       6       1       6       1       1       6
       6       6       6       8       6       6       6       6       6       6
       6       6       1       6       1       6       1       6       1       6
       6       1       1       1       1       7       7       6       1       7
       6       1       6       6       6       6       1       6       6       1
       6       6       6       6       6       6       6       6       6       6
       6       6       6       1       6       1       1       6       1       6
       6       1       6       1       6       1       6       1       6       1
       6       1       6       1       6       1       6       1       1       6
       1       1       1       6       1       6       1       1       6       1
       1       6       1       1       8       8       8       8       8       8
       6       6       6       6       6       6       1       1       1       1
       1       1       1       1       1       1       1       1       1       1
       1       1       1       1       8       6       6       6       6       1
       1       1       6       1       6       1       6       1       1       7
       6       6       6       6       6       6       6       1       6       1
       6       1       6       1       6       6       1       6       1       1
       6       6       6       6       8       6       6       6       6       6
       6       6       6       1       6       1       6       1       6       1
       6       6       1       1       1       1       7       7       6       1
       7       6       1       6       6       6       6       1       6       6
       1       6       6       6       6       6       6       6       6       6
       6       6       6       6       1       6       1       1       6       1
       6       6       1       6       1       6       1       6       1       6
       1       6       1       6       1       6       1       6       1       1
       6       1       1       1       6       1       6       1       1       6
       1       1       6       1       1       8       8       8       8       8
       8       6       6       6       6       6       6       1       1       1
       1       1       1       1       1       1       1       1       1       1
       1       1       1       1       1       8       6       6       6       6
       1       1       1       6       1       6       1       6       1       1
       7       6       6       6       6       6       6       6       1       6
       1       6       1       6       1       6       6       1       6       1
       1       6       6       6       6       8       6       6       6       6
       6       6       6       6       1       6       1       6       1       6
       1       6       6       1       1       1       1       7       7       6
       1       7       6       1       6       6       6       6       1       6
       6       1       6       6       6       6       6       6       6       6
       6       6       6       6       6       1       6       1       1       6
       1       6       6       1       6       1       6       1       6       1
       6       1       6       1       6       1       6       1       6       1
       1       6       1       1       1       6       1       6       1       1
       6       1       1       6       1       1       8       8       8       8
       8       8       6       6       6       6       6       6       1       1
       1       1       1       1       1       1       1       1       1       1
       1       1       1       1       1       1       8       6       6       6
       6       1       1       1       6       1       6       1       6       1
       1       7       6       6       6       6       6       6       6       1
       6       1       6       1       6       1       6       6       1       6
       1       1       6       6       6       6       8       6       6       6
       6       6       6       6       6       1       6       1       6       1
       6       1       6       6       1       1       1       1       7       7
       6       1       7       6       1       6       6       6       6       1
       6       6       1       6       6       6       6       6       6       6
       6       6       6       6       6       6       1       6       1       1
       6       1       6       6       1       6       1       6       1       6
       1       6       1       6       1       6       1       6       1       6
       1       1       6       1       1       1       6       1       6       1
       1       6       1       1       6       1       1       8       8       8
       8       8       8       6       6       6       6       6       6       1
       1       1       1       1       1       1       1       1       1       1
       1       1       1       1       1       1       1       8       6       6
       6       6       1       1       1       6       1       6       1       6
       1       1       7       6       6       6       6       6       6       6
       1       6       1       6       1       6       1       6       6       1
       6       1       1       6       6       6       6       8       6       6
       6       6       6       6       6       6       1       6       1       6
       1       6       1       6       6       1       1       1       1       7
       7       6       1       7       6       1       6       6       6       6
       1       6       6       1       6       6       6       6       6       6
       6       6       6       6       6       6       6       1       6       1
       1       6       1       6       6       1       6       1       6       1
       6       1       6       1       6       1       6       1       6       1
       6       1       1       6       1       1       1       6       1       6
       1       1       6       1       1       6       1       1       8       8
       8       8       8       8       6       6       6       6       6       6
       1       1       1       1       1       1       1       1       1       1
       1       1       1       1       1       1       1       1       8       6
       6       6       6       1       1       1       6       1       6       1
       6       1       1       7       6       6       6       6       6       6
       6       1       6       1       6       1       6       1       6       6
       1       6       1       1       6       6       6       6       8       6
       6       6       6       6       6       6       6       1       6       1
       6       1       6       1       6       6       1       1       1       1
       7       7       6       1       7       6       1       6       6       6
       6       1       6       6       1       6       6       6       6       6
       6       6       6       6       6       6       6       6       1       6
       1       1       6       1       6       6       1       6       1       6
       1       6       1       6       1       6       1       6       1       6
       1       6       1       1       6       1       1       1       6       1
       6       1       1       6       1       1       6       1       1       8
       8       8       8       8       8       6       6       6       6       6
       6       1       1       1       1       1       1       1       1       1
       1       1       1       1       1       1       1       1       1       8
       6       6       6       6       1       1       1       6       1       6
       1       6       1       1       7       6       6       6       6       6
       6       6       1       6       1       6       1       6       1       6
       6       1       6       1       1       6       6       6       6       8
       6       6       6       6       6       6       6       6       1       6
       1       6       1       6       1       6       6       1       1       1
       1       7       7       6       1       7       6       1       6       6
       6       6       1       6       6       1       6       6       6       6
       6       6       6       6       6       6       6       6       6       1
       6       1       1       6       1       6       6       1       6       1
       6       1       6       1       6       1       6       1       6       1
       6       1       6       1       1       6       1       1       1       6
       1       6       1       1       6       1       1       6       1       1
       8       8       8       8       8       8       6       6       6       6
       6       6       1       1       1       1       1       1       1       1
       1       1       1       1       1       1       1       1       1       1
       8       6       6       6       6       1       1       1       6       1
       6       1       6       1       1       7       6       6       6       6
       6       6       6       1       6       1       6       1       6       1
       6       6       1       6       1       1       6       6       6       6
       8       6       6       6       6       6       6       6       6       1
       6       1       6       1       6       1       6       6       1       1
       1       1       7       7       6       1       7       6       1       6
       6       6       6       1       6       6       1       6       6       6
       6       6       6       6       6       6       6       6       6       6
       1       6       1       1       6       1       6       6       1       6
       1       6       1       6       1       6       1       6       1       6
       1       6       1       6       1       1       6       1       1       1
       6       1       6       1       1       6       1       1       6       1
       1       8       8       8       8       8       8       6       6       6
       6       6       6       1       1       1       1       1       1       1
       1       1       1       1       1       1       1       1       1       1
       1       8       6       6       6       6       1       1       1       6
       1       6       1       6       1       1       7       6       6       6
       6       6       6       6       1       6       1       6       1       6
       1       6       6       1       6       1       1       6       6       6
       6       8       6       6       6       6       6       6       6       6
       1       6       1       6       1       6       1       6       6       1
       1       1       1       7       7       6       1       7       6       1
       6       6       6       6       1       6       6       1       6       6
       6       6       6       6       6       6       6       6       6       6
       6       1       6       1       1       6       1       6       6       1
       6       1       6       1       6       1       6       1       6       1
       6       1       6       1       6       1       1       6       1       1
       1       6       1       6       1       1       6       1       1       6
       1       1       8       8       8       8       8       8       6       6
       6       6       6       6       1       1       1       1       1       1
       1       1       1       1       1       1       1       1       1       1
       1       1       8       6       6       6       6       1       1       1
       6       1       6       1       6       1       1       7       6       6
       6       6       6       6       6       1       6       1       6       1
       6       1       6       6       1       6       1       1       6       6
       6       6       8       6       6       6       6       6       6       6
       6       1       6       1       6       1       6       1       6       6
       1       1       1       1       7       7       6       1       7       6
       1       6       6       6       6       1       6       6       1       6
       6       6       6       6       6       6       6       6       6       6
       6       6       1       6       1       1       6       1       6       6
       1       6       1       6       1       6       1       6       1       6
       1       6       1       6       1       6       1       1       6       1
       1       1       6       1       6       1       1       6       1       1
       6       1       1       8       8       8       8       8       8       6
       6       6       6       6       6       1       1       1       1       1
       1       1       1       1       1       1       1       1       1       1
       1       1       1       8       6       6       6       6       1       1
       1       6       1       6       1       6       1       1       7       6
       6       6       6       6       6       6       1       6       1       6
       1       6       1       6       6       1       6       1       1       6
       6       6       6       8       6       6       6       6       6       6
       6       6       1       6       1       6       1       6       1       6
       6       1       1       1       1       7       7       6       1       7
       6       1       6       6       6       6       1       6       6       1
       6       6       6       6       6       6       6       6       6       6
       6       6       6       1       6       1       1       6       1       6
       6       1       6       1       6       1       6       1       6       1
       6       1       6       1       6       1       6       1       1       6
       1       1       1       6       1       6       1       1       6       1
       1       6       1       1       8       8       8       8       8       8
       6       6       6       6       6       6       1       1       1       1
       1       1       1       1       1       1       1       1       1       1
       1       1       1       1       8       6       6       6       6       1
       1       1       6       1       6       1       6       1       1       7
       6       6       6       6       6       6       6       1       6       1
       6       1       6       1       6       6       1       6       1       1
       6       6       6       6       8       6       6       6       6       6
       6       6       6       1       6       1       6       1       6       1
       6       6       1       1       1       1       7       7       6       1
       7       6       1       6       6       6       6       1       6       6
       1       6       6       6       6       6       6       6       6       6
       6       6       6       6       1       6       1       1       6       1
       6       6       1       6       1       6       1       6       1       6
       1       6       1       6       1       6       1       6       1       1
       6       1       1       1       6       1       6       1       1       6
       1       1       6       1       1       8       8       8       8       8
       8       6       6       6       6       6       6       1       1       1
       1       1       1       1       1       1       1       1       1       1
       1       1       1       1       1       8       6       6       6       6
       1       1       1       6       1       6       1       6       1       1
       7       6       6       6       6       6       6       6       1       6
       1       6       1       6       1       6       6       1       6       1
       1       6       6       6       6       8       6       6       6       6
       6       6       6       6       1       6       1       6       1       6
       1       6       6       1       1       1       1       7       7       6
       1       7       6       1       6       6       6       6       1       6
       6       1       6       6       6       6       6       6       6       6
       6       6       6       6       6       1       6       1       1       6
       1       6       6       1       6       1       6       1       6       1
       6       1       6       1       6       1       6       1       6       1
       1       6       1       1       1       6       1       6       1       1
       6       1       1       6       1       1       8       8       8       8
       8       8       6       6       6       6       6       6       1       1
       1       1       1       1       1       1       1       1       1       1
       1       1       1       1       1       1       8       6       6       6
       6       1       1       1       6       1       6       1       6       1
       1       7       6       6       6       6       6       6       6       1
       6       1       6       1       6       1       6       6       1       6
       1       1       6       6       6       6       8       6       6       6
       6       6       6       6       6       1       6       1       6       1
       6       1       6       6       1       1       1       1       7       7
       6       1       7       6       1       6       6       6       6       1
       6       6       1       6       6       6       6       6       6       6
       6       6       6       6       6       6       1       6       1       1
       6       1       6       6       1       6       1       6       1       6
       1       6       1       6       1       6       1       6       1       6
       1       1       6       1       1       1       6       1       6       1
       1       6       1       1       6       1       1       8       8       8
       8       8       8       6       6       6       6       6       6       1
       1       1       1       1       1       1       1       1       1       1
       1       1       1       1       1       1       1       8       6       6
       6       6       1       1       1       6       1       6       1       6
       1       1       7       6       6       6       6       6       6       6
       1       6       1       6       1       6       1       6       6       1
       6       1       1       6       6       6       6       8       6       6
       6       6       6       6       6       6       1       6       1       6
       1       6       1       6       6       1       1       1       1       7
       7       6       1       7       6       1       6       6       6       6
       1       6       6       1       6       6       6       6       6       6
       6       6       6       6       6       6       6       1       6       1
       1       6       1       6       6       1       6       1       6       1
       6       1       6       1       6       1       6       1       6       1
       6       1       1       6       1       1       1       6       1       6
       1       1       6       1       1       6       1       1       8       8
       8       8       8       8       6       6       6       6       6       6
       1       1       1       1       1       1       1       1       1       1
       1       1       1       1       1       1       1       1       8       6
       6       6       6       1       1       1       6       1       6       1
       6       1       1       7       6       6       6       6       6       6
       6       1       6       1       6       1       6       1       6       6
       1       6       1       1       6       6       6       6       8       6
       6       6       6       6       6       6       6       1       6       1
       6       1       6       1       6       6       1       1       1       1
       7       7       6       1       7       6       1       6       6       6
       6       1       6       6       1       6       6       6       6       6
       6       6       6       6       6       6       6       6       1       6
       1       1       6       1       6       6       1       6       1       6
       1       6       1       6       1       6       1       6       1       6
       1       6       1       1       6       1       1       1       6       1
       6       1       1       6       1       1       6       1       1       8
       8       8       8       8       8       6       6       6       6       6
       6       1       1       1       1       1       1       1       1       1
       1       1       1       1       1       1       1       1       1       8
       6       6       6       6       1       1       1       6       1       6
       1       6       1       1       7       6       6       6       6       6
       6       6       1       6       1       6       1       6       1       6
       6       1       6       1       1       6       6       6       6       8
       6       6       6       6       6       6       6       6       1       6
       1       6       1       6       1       6       6       1       1       1
       1       7       7       6       1       7       6       1       6       6
       6       6       1       6       6       1       6       6       6       6
       6       6       6       6       6       6       6       6       6       1
       6       1       1       6       1       6       6       1       6       1
       6       1       6       1       6       1       6       1       6       1
       6       1       6       1       1       6       1       1       1       6
       1       6       1       1       6       1       1       6       1       1
       8       8       8       8       8       8       6       6       6       6
       6       6       1       1       1       1       1       1       1       1
       1       1       1       1       1       1       1       1       1       1
       8       6       6       6       6       1       1       1       6       1
       6       1       6       1       1       7       6       6       6       6
       6       6       6       1       6       1       6       1       6       1
       6       6       1       6       1       1       6       6       6       6
       8       6       6       6       6       6       6       6       6       1
       6       1       6       1       6       1       6       6       1       1
       1       1       7       7       6       1       7       6       1       6
       6       6       6       1       6       6       1       6       6       6
       6       6       6       6       6       6       6       6       6       6
       1       6       1       1       6       1       6       6       1       6
       1       6       1       6       1       6       1       6       1       6
       1       6       1       6       1       1       6       1       1       1
       6       1       6       1       1       6       1       1       6       1
       1       8       8       8       8       8       8       6       6       6
       6       6       6       1       1       1       1       1       1       1
       1       1       1       1       1       1       1       1       1       1
       1       8       6       6       6       6       1       1       1       6
       1       6       1       6       1       1       7       6       6       6
       6       6       6       6       1       6       1       6       1       6
       1       6       6       1       6       1       1       6       6       6
       6       8       6       6       6       6       6       6       6       6
       1       6       1       6       1       6       1       6       6       1
       1       1       1       7       7       6       1       7       6       1
       6       6       6       6       1       6       6       1       6       6
       6       6       6       6       6       6       6       6       6       6
       6       1       6       1       1       6       1       6       6       1
       6       1       6       1       6       1       6       1       6       1
       6       1       6       1       6       1       1       6       1       1
       1       6       1       6       1       1       6       1       1       6
       1       1       8       8       8       8       8       8       6       6
       6       6       6       6       1       1       1       1       1       1
       1       1       1       1       1       1       1       1       1       1
       1       1       8       6       6       6       6       1       1       1
       6       1       6       1       6       1       1       7       6       6
       6       6       6       6       6       1       6       1       6       1
       6       1       6       6       1       6       1       1       6       6
       6       6       8       6       6       6       6       6       6       6
       6       1       6       1       6       1       6       1       6       6
       1       1       1       1       7       7       6       1       7       6
       1       6       6       6       6       1       6       6       1       6
       6       6       6       6       6       6       6       6       6       6
       6       6       1       6       1       1       6       1       6       6
       1       6       1       6       1       6       1       6       1       6
       1       6       1       6       1       6       1       1       6       1
       1       1       6       1       6       1       1       6       1       1
       6       1       1       8       8       8       8       8       8       6
       6       6       6       6       6       1       1       1       1       1
       1       1       1       1       1       1       1       1       1       1
       1       1       1       8       6       6       6       6       1       1
       1       6       1       6       1       6       1       1       7       6
       6       6       6       6       6       6       1       6       1       6
       1       6       1       6       6       1       6       1       1       6
       6       6       6       8       6       6       6       6       6       6
       6       6       1       6       1       6       1       6       1       6
       6       1       1       1       1       7       7       6       1       7
       6       1       6       6       6       6       1       6       6       1
       6       6       6       6       6       6       6       6       6       6
       6       6       6       1       6       1       1       6       1       6
       6       1       6       1       6       1       6       1       6       1
       6       1       6       1       6       1       6       1       1       6
       1       1       1       6       1       6       1       1       6       1
       1       6       1       1       8       8       8       8       8       8
       6       6       6       6       6       6       1       1       1       1
       1       1       1       1       1       1       1       1       1       1
       1       1       1       1       8       6       6       6       6       1
       1       1       6       1       6       1       6       1       1       7
       6       6       6       6       6       6       6       1       6       1
       6       1       6       1       6       6       1       6       1       1
       6       6       6       6       8       6       6       6       6       6
       6       6       6       1       6       1       6       1       6       1
       6       6       1       1       1       1       7       7       6       1
       7       6       1       6       6       6       6       1       6       6
       1       6       6       6       6       6       6       6       6       6
       6       6       6       6       1       6       1       1       6       1
       6       6       1       6       1       6       1       6       1       6
       1       6       1       6       1       6       1       6       1       1
       6       1       1       1       6       1       6       1       1       6
       1       1       6       1       1       8       8       8       8       8
       8       6       6       6       6       6       6       1       1       1
       1       1       1       1       1       1       1       1       1       1
       1       1       1       1       1       8       6       6       6       6
       1       1       1       6       1       6       1       6       1       1
       7       6       6       6       6       6       6       6       1       6
       1       6       1       6       1       6       6       1       6       1
       1       6       6       6       6       8       6       6       6       6
       6       6       6       6       1       6       1       6       1       6
       1       6       6       1       1       1       1       7       7       6
       1       7       6       1       6       6       6       6       1       6
       6       1       6       6       6       6       6       6       6       6
       6       6       6       6       6       1       6       1       1       6
       1       6       6       1       6       1       6       1       6       1
       6       1       6       1       6       1       6       1       6       1
       1       6       1       1       1       6       1       6       1       1
       6       1       1       6       1       1       8       8       8       8
       8       8       6       6       6       6       6       6       1       1
       1       1       1       1       1       1       1       1       1       1
       1       1       1       1       1       1       8       6       6       6
       6       1       1       1       6       1       6       1       6       1
       1       7       6       6       6       6       6       6       6       1
       6       1       6       1       6       1       6       6       1       6
       1       1       6       6       6       6       8       6       6       6
       6       6       6       6       6       1       6       1       6       1
       6       1       6       6       1       1       1       1       7       7
       6       1       7       6       1       6       6       6       6       1
       6       6       1       6       6       6       6       6       6       6
       6       6       6       6       6       6       1       6       1       1
       6       1       6       6       1       6       1       6       1       6
       1       6       1       6       1       6       1       6       1       6
       1       1       6       1       1       1       6       1       6       1
       1       6       1       1       6       1       1       8       8       8
       8       8       8       6       6       6       6       6       6       1
       1       1       1       1       1       1       1       1       1       1
       1       1       1       1       1       1       1       8       6       6
       6       6       1       1       1       6       1       6       1       6
       1       1       7       6       6       6       6       6       6       6
       1       6       1       6       1       6       1       6       6       1
       6       1       1       6       6       6       6       8       6       6
       6       6       6       6       6       6       1       6       1       6
       1       6       1       6       6       1       1       1       1       7
       7       6       1       7       6       1       6       6       6       6
       1       6       6       1       6       6       6       6       6       6
       6       6       6       6       6       6       6       1       6       1
       1       6       1       6       6       1       6       1       6       1
       6       1       6       1       6       1       6       1       6       1
       6       1       1       6       1       1       1       6       1       6
       1       1       6       1       1       6       1       1       8       8
       8       8       8       8       6       6       6       6       6       6
       1       1       1       1       1       1       1       1       1       1
       1       1       1       1       1       1       1       1       8       6
       6       6       6       1       1       1       6       1       6       1
       6       1       1       7       6       6       6       6       6       6
       6       1       6       1       6       1       6       1       6       6
       1       6       1       1       6       6       6       6       8       6
       6       6       6       6       6       6       6       1       6       1
       6       1       6       1       6       6       1       1       1       1
       7       7       6       1       7       6       1       6       6       6
       6       1       6       6       1       6       6       6       6       6
       6       6       6       6       6       6       6       6       1       6
       1       1       6       1       6       6       1       6       1       6
       1       6       1       6       1       6       1       6       1       6
       1       6       1       1       6       1       1       1       6       1
       6       1       1       6       1       1       6       1       1       8
       8       8       8       8       8       6       6       6       6       6
       6       1       1       1       1       1       1       1       1       1
       1       1       1       1       1       1       1       1       1       8
       6       6       6       6       1       1       1       6       1       6
       1       6       1       1       7       6       6       6       6       6
       6       6       1       6       1       6       1       6       1       6
       6       1       6       1       1       6       6       6       6       8
       6       6       6       6       6       6       6       6       1       6
       1       6       1       6       1       6       6       1       1       1
       1       7       7       6       1       7       6       1       6       6
       6       6       1       6       6       1       6       6       6       6
       6       6       6       6       6       6       6       6       6       1
       6       1       1       6       1       6       6       1       6       1
       6       1       6       1       6       1       6       1       6       1
       6       1       6       1       1       6       1       1       1       6
       1       6       1       1       6       1       1       6       1       1
       8       8       8       8       8       8       6       6       6       6
       6       6       1       1       1       1       1       1       1       1
       1       1       1       1       1       1       1       1       1       1
       8       6       6       6       6       1       1       1       6       1
       6       1       6       1       1       7       6       6       6       6
       6       6       6       1       6       1       6       1       6       1
       6       6       1       6       1       1       6       6       6       6
       8       6       6       6       6       6       6       6       6       1
       6       1       6       1       6       1       6       6       1       1
       1       1       7       7       6       1       7       6       1       6
       6       6       6       1       6       6       1       6       6       6
       6       6       6       6       6       6       6       6       6       6
       1       6       1       1       6       1       6       6       1       6
       1       6       1       6       1       6       1       6       1       6
       1       6       1       6       1       1       6       1       1       1
       6       1       6       1       1       6       1       1       6       1
       1       8       8       8       8       8       8       6       6       6
       6       6       6       1       1       1       1       1       1       1
       1       1       1       1       1       1       1       1       1       1
       1       8       6       6       6       6       1       1       1       6
       1       6       1       6       1       1       7       6       6       6
       6       6       6       6       1       6       1       6       1       6
       1       6       6       1       6       1       1       6       6       6
       6       8       6       6       6       6       6       6       6       6
       1       6       1       6       1       6       1       6       6       1
       1       1       1       7       7       6       1       7       6       1
       6       6       6       6       1       6       6       1       6       6
       6       6       6       6       6       6       6       6       6       6
       6       1       6       1       1       6       1       6       6       1
       6       1       6       1       6       1       6       1       6       1
       6       1       6       1       6       1       1       6       1       1
       1       6       1       6       1       1       6       1       1       6
       1       1       8       8       8       8       8       8       6       6
       6       6       6       6       1       1       1       1       1       1
       1       1       1       1       1       1       1       1       1       1
       1       1       8       6       6       6       6       1       1       1
       6       1       6       1       6       1       1       7       6       6
       6       6       6       6       6       1       6       1       6       1
       6       1       6       6       1       6       1       1       6       6
       6       6       8       6       6       6       6       6       6       6
       6       1       6       1       6       1       6       1       6       6
       1       1       1       1       7       7       6       1       7       6
       1       6       6       6       6       1       6       6       1       6
       6       6       6       6       6       6       6       6       6       6
       6       6       1       6       1       1       6       1       6       6
       1       6       1       6       1       6       1       6       1       6
       1       6       1       6       1       6       1       1       6       1
       1       1       6       1       6       1       1       6       1       1
       6       1       1       8       8       8       8       8       8       6
       6       6       6       6       6       1       1       1       1       1
       1       1       1       1       1       1       1       1       1       1
       1       1       1       8       6       6       6       6       1       1
       1       6       1       6       1       6       1       1       7       6
       6       6       6       6       6       6       1       6       1       6
       1       6       1       6       6       1       6       1       1       6
       6       6       6       8       6       6       6       6       6       6
       6       6       1       6       1       6       1       6       1       6
       6       1       1       1       1       7       7       6       1       7
       6       1       6       6       6       6       1       6       6       1
       6       6       6       6       6       6       6       6       6       6
       6       6       6       1       6       1       1       6       1       6
       6       1       6       1       6       1       6       1       6       1
       6       1       6       1       6       1       6       1       1       6
       1       1       1       6       1       6       1       1       6       1
       1       6       1       1       8       8       8       8       8       8
       6       6       6       6       6       6       1       1       1       1
       1       1       1       1       1       1       1       1       1       1
       1       1       1       1       8       6       6       6       6       1
       1       1       6       1       6       1       6       1       1       7
       6       6       6       6       6       6       6       1       6       1
       6       1       6       1       6       6       1       6       1       1
       6       6       6       6       8       6       6       6       6       6
       6       6       6       1       6       1       6       1       6       1
       6       6       1       1       1       1       7       7       6       1
       7       6       1       6       6       6       6       1       6       6
       1       6       6       6       6       6       6       6       6       6
       6       6       6       6       1       6       1       1       6       1
       6       6       1       6       1       6       1       6       1       6
       1       6       1       6       1       6       1       6       1       1
       6       1       1       1       6       1       6       1       1       6
       1       1       6       1       1       8       8       8       8       8
       8       6       6       6       6       6       6       1       1       1
       1       1       1       1       1       1       1       1       1       1
       1       1       1       1       1       8       6       6       6       6
       1       1       1       6       1       6       1       6       1       1
       7       6       6       6       6       6       6       6       1       6
       1       6       1       6       1       6       6       1       6       1
       1       6       6       6       6       8       6       6       6       6
       6       6       6       6       1       6       1       6       1       6
       1       6       6       1       1       1       1       7       7       6
       1       7       6       1       6       6       6       6       1       6
       6       1       6       6       6       6       6       6       6       6
       6       6       6       6       6       1       6       1       1       6
       1       6       6       1       6       1       6       1       6       1
       6       1       6       1       6       1       6       1       6       1
       1       6       1       1       1       6       1       6       1       1
       6       1       1       6       1       1       8       8       8       8
       8       8       6       6       6       6       6       6       1       1
       1       1       1       1       1       1       1       1       1       1
       1       1       1       1       1       1       8       6       6       6
       6       1       1       1       6       1       6       1       6       1
       1       7       6       6       6       6       6       6       6       1
       6       1       6       1       6       1       6       6       1       6
       1       1       6       6       6       6       8       6       6       6
       6       6       6       6       6       1       6       1       6       1
       6       1       6       6       1       1       1       1       7       7
       6       1       7       6       1       6       6       6       6       1
       6       6       1       6       6       6       6       6       6       6
       6       6       6       6       6       6       1       6       1       1
       6       1       6       6       1       6       1       6       1       6
       1       6       1       6       1       6       1       6       1       6
       1       1       6       1       1       1       6       1       6       1
       1       6       1       1       6       1       1       8       8       8
       8       8       8       6       6       6       6       6       6       1
       1       1       1       1       1       1       1       1       1       1
       1       1       1       1       1       1       1       8       6       6
       6       6       1       1       1       6       1       6       1       6
       1       1       7       6       6       6       6       6       6       6
       1       6       1       6       1       6       1       6       6       1
       6       1       1       6       6       6       6       8       6       6
       6       6       6       6       6       6       1       6       1       6
       1       6       1       6       6       1       1       1       1       7
       7       6       1       7       6       1       6       6       6       6
       1       6       6       1       6       6       6       6       6       6
       6       6       6       6       6       6       6       1       6       1
       1       6       1       6       6       1       6       1       6       1
       6       1       6       1       6       1       6       1       6       1
       6       1       1       6       1       1       1       6       1       6
       1       1       6       1       1       6       1       1       8       8
       8       8       8       8       6       6       6       6       6       6
       1       1       1       1       1       1       1       1       1       1
       1       1       1       1       1       1       1       1       8       6
       6       6       6       1       1       1       6       1       6       1
       6       1       1       7       6       6       6       6       6       6
       6       1       6       1       6       1       6       1       6       6
       1       6       1       1       6       6       6       6       8       6
       6       6       6       6       6       6       6       1       6       1
       6       1       6       1       6       6       1       1       1       1
       7       7       6       1       7       6       1       6       6       6
       6       1       6       6       1       6       6       6       6       6
       6       6       6       6       6       6       6       6       1       6
       1       1       6       1       6       6       1       6       1       6
       1       6       1       6       1       6       1       6       1       6
       1       6       1       1       6       1       1       1       6       1
       6       1       1       6       1       1       6       1       1       8
       8       8       8       8       8       6       6       6       6       6
       6       1       1       1       1       1       1       1       1       1
       1       1       1       1       1       1       1       1       1       8
       6       6       6       6       1       1       1       6       1       6
       1       6       1       1       7       6       6       6       6       6
       6       6       1       6       1       6       1       6       1       6
       6       1       6       1       1       6       6       6       6       8
       6       6       6       6       6       6       6       6       1       6
       1       6       1       6       1       6       6       1       1       1
       1       7       7       6       1       7       6       1       6       6
       6       6       1       6       6       1       6       6       6       6
       6       6       6       6       6       6       6       6       6       1
       6       1       1       6       1       6       6       1       6       1
       6       1       6       1       6       1       6       1       6       1
       6       1       6       1       1       6       1       1       1       6
       1       6       1       1       6       1       1       6       1       1
       8       8       8       8       8       8       6       6       6       6
       6       6       1       1       1       1       1       1       1       1
       1       1       1       1       1       1       1       1       1       1
       8       6       6       6       6       1       1       1       6       1
       6       1       6       1       1       7       6       6       6       6
       6       6       6       1       6       1       6       1       6       1
       6       6       1       6       1       1       6       6       6       6
       8       6       6       6       6       6       6       6       6       1
       6       1       6       1       6       1       6       6       1       1
       1       1       7       7       6       1       7       6       1       6
       6       6       6       1       6       6       1       6       6       6
       6       6       6       6       6       6       6       6       6       6
       1       6       1       1       6       1       6       6       1       6
       1       6       1       6       1       6       1       6       1       6
       1       6       1       6       1       1       6       1       1       1
       6       1       6       1       1       6       1       1       6       1
       1       8       8       8       8       8       8       6       6       6
       6       6       6       1       1       1       1       1       1       1
       1       1       1       1       1       1       1       1       1       1
       1       8       6       6       6       6       1       1       1       6
       1       6       1       6       1       1       7       6       6       6
       6       6       6       6       1       6       1       6       1       6
       1       6       6       1       6       1       1       6       6       6
       6       8       6       6       6       6       6       6       6       6
       1       6       1       6       1       6       1       6       6       1
       1       1       1       7       7       6       1       7       6       1
       6       6       6       6       1       6       6       1       6       6
       6       6       6       6       6       6       6       6       6       6
       6       1       6       1       1       6       1       6       6       1
       6       1       6       1       6       1       6       1       6       1
       6       1       6       1       6       1       1       6       1       1
       1       6       1       6       1       1       6       1       1       6
       1       1       8       8       8       8       8       8       6       6
       6       6       6       6       1       1       1       1       1       1
       1       1       1       1       1       1       1       1       1       1
       1       1       8       6       6       6       6       1       1       1
       6       1       6       1       6       1       1       7       6       6
       6       6       6       6       6       1       6       1       6       1
       6       1       6       6       1       6       1       1       6       6
       6       6       8       6       6       6       6       6       6       6
       6       1       6       1       6       1       6       1       6       6
       1       1       1       1       7       7       6       1       7       6
       1       6       6       6       6       1       6       6       1       6
       6       6       6       6       6       6       6       6       6       6
       6       6       1       6       1       1       6       1       6       6
       1       6       1       6       1       6       1       6       1       6
       1       6       1       6       1       6       1       1       6       1
       1       1       6       1       6       1       1       6       1       1
       6       1       1       8       8       8       8       8       8       6
       6       6       6       6       6       1       1       1       1       1
       1       1       1       1       1       1       1       1       1       1
       1       1       1       8       6       6       6       6       1       1
       1       6       1       6       1       6       1       1       7       6
       6       6       6       6       6       6       1       6       1       6
       1       6       1       6       6       1       6       1       1       6
       6       6       6       8       6       6       6       6       6       6
       6       6       1       6       1       6       1       6       1       6
       6       1       1       1       1       7       7       6       1       7
       6       1       6       6       6       6       1       6       6       1
       6       6       6       6       6       6       6       6       6       6
       6       6       6       1       6       1       1       6       1       6
       6       1       6       1       6       1       6       1       6       1
       6       1       6       1       6       1       6       1       1       6
       1       1       1       6       1       6       1       1       6       1
       1       6       1       1       8       8       8       8       8       8
       6       6       6       6       6       6       1       1       1       1
       1       1       1       1       1       1       1       1       1       1
       1       1       1       1       8       6       6       6       6       1
       1       1       6       1       6       1       6       1       1       7
       6       6       6       6       6       6       6       1       6       1
       6       1       6       1       6       6       1       6       1       1
       6       6       6       6       8       6       6       6       6       6
       6       6       6       1       6       1       6       1       6       1
       6       6       1       1       1       1       7       7       6       1
       7       6       1       6       6       6       6       1       6       6
       1       6       6       6       6       6       6       6       6       6
       6       6       6       6       1       6       1       1       6       1
       6       6       1       6       1       6       1       6       1       6
       1       6       1       6       1       6       1       6       1       1
       6       1       1       1       6       1       6       1       1       6
       1       1       6       1       1       8       8       8       8       8
       8       6       6       6       6       6       6       1       1       1
       1       1       1       1       1       1       1       1       1       1
       1       1       1       1       1       8       6       6       6       6
       1       1       1       6       1       6       1       6       1       1
       7       6       6       6       6       6       6       6       1       6
       1       6       1       6       1       6       6       1       6       1
       1       6       6       6       6       8       6       6       6       6
       6       6       6       6       1       6       1       6       1       6
       1       6       6       1       1       1       1       7       7       6
       1       7       6       1       6       6       6       6       1       6
       6       1       6       6       6       6       6       6       6       6
       6       6       6       6       6       1       6       1       1       6
       1       6       6       1       6       1       6       1       6       1
       6       1       6       1       6       1       6       1       6       1
       1       6       1       1       1       6       1       6       1       1
       6       1       1       6       1       1       8       8       8       8
       8       8       6       6       6       6       6       6       1       1
       1       1       1       1       1       1       1       1       1       1
       1       1       1       1       1       1       8       6       6       6
       6       1       1       1       6       1       6       1       6       1
       1       7       6       6       6       6       6       6       6       1
       6       1       6       1       6       1       6       6       1       6
       1       1       6       6       6       6       8       6       6       6
       6       6       6       6       6       1       6       1       6       1
       6       1       6       6       1       1       1       1       7       7
       6       1       7       6       1       6       6       6       6       1
       6       6       1       6       6       6       6       6       6       6
       6       6       6       6       6       6       1       6       1       1
       6       1       6       6       1       6       1       6       1       6
       1       6       1       6       1       6       1       6       1       6
       1       1       6       1       1       1       6       1       6       1
       1       6       1       1       6       1       1       8       8       8
       8       8       8       6       6       6       6       6       6       1
       1       1       1       1       1       1       1       1       1       1
       1       1       1       1       1       1       1       8       6       6
       6       6       1       1       1       6       1       6       1       6
       1       1       7       6       6       6       6       6       6       6
       1       6       1       6       1       6       1       6       6       1
       6       1       1       6       6       6       6       8       6       6
       6       6       6       6       6       6       1       6       1       6
       1       6       1       6       6       1       1       1       1       7
       7       6       1       7       6       1       6       6       6       6
       1       6       6       1       6       6       6       6       6       6
       6       6       6       6       6       6       6       1       6       1
       1       6       1       6       6       1       6       1       6       1
       6       1       6       1       6       1       6       1       6       1
       6       1       1       6       1       1       1       6       1       6
       1       1       6       1       1       6       1       1       8       8
       8       8       8       8       6       6       6       6       6       6
       1       1       1       1       1       1       1       1       1       1
       1       1       1       1       1       1       1       1       8       6
       6       6       6       1       1       1       6       1       6       1
       6       1       1       7       6       6       6       6       6       6
       6       1       6       1       6       1       6       1       6       6
       1       6       1       1       6       6       6       6       8       6
       6       6       6       6       6       6       6       1       6       1
       6       1       6       1       6       6       1       1       1       1
       7       7       6       1       7       6       1       6       6       6
       6       1       6       6       1       6       6       6       6       6
       6       6       6       6       6       6       6       6       1       6
       1       1       6       1       6       6       1       6       1       6
       1       6       1       6       1       6       1       6       1       6
       1       6       1       1       6       1       1       1       6       1
       6       1       1       6       1       1       6       1       1       8
       8       8       8       8       8       6       6       6       6       6
       6       1       1       1       1       1       1       1       1       1
       1       1       1       1       1       1       1       1       1       8
       6       6       6       6       1       1       1       6       1       6
       1       6       1       1       7       6       6       6       6       6
       6       6       1       6       1       6       1       6       1       6
       6       1       6       1       1       6       6       6       6       8
       6       6       6       6       6       6       6       6       1       6
       1       6       1       6       1       6       6       1       1       1
       1       7       7       6       1       7       6       1       6       6
       6       6       1       6       6       1       6       6       6       6
       6       6       6       6       6       6       6       6       6       1
       6       1       1       6       1       6       6       1       6       1
       6       1       6       1       6       1       6       1       6       1
       6       1       6       1       1       6       1       1       1       6
       1       6       1       1       6       1       1       6       1       1
       8       8       8       8       8       8       6       6       6       6
       6       6       1       1       1       1       1       1       1       1
       1       1       1       1       1       1       1       1       1       1
       8       6       6       6       6       1       1       1       6       1
       6       1       6       1       1       7       6       6       6       6
       6       6       6       1       6       1       6       1       6       1
       6       6       1       6       1       1       6       6       6       6
       8       6       6       6       6       6       6       6       6       1
       6       1       6       1       6       1       6       6       1       1
       1       1       7       7       6       1       7       6       1       6
       6       6       6       1       6       6       1       6       6       6
       6       6       6       6       6       6       6       6       6       6
       1       6       1       1       6       1       6       6       1       6
       1       6       1       6       1       6       1       6       1       6
       1       6       1       6       1       1       6       1       1       1
       6       1       6       1       1       6       1       1       6       1
       1       8       8       8       8       8       8       6       6       6
       6       6       6       1       1       1       1       1       1       1
       1       1       1       1       1       1       1       1       1       1
       1       8       6       6       6       6       1       1       1       6
       1       6       1       6       1       1       7       6       6       6
       6       6       6       6       1       6       1       6       1       6
       1       6       6       1       6       1       1       6       6       6
       6       8       6       6       6       6       6       6       6       6
       1       6       1       6       1       6       1       6       6       1
       1       1       1       7       7       6       1       7       6       1
       6       6       6       6       1       6       6       1       6       6
       6       6       6       6       6       6       6       6       6       6
       6       1       6       1       1       6       1       6       6       1
       6       1       6       1       6       1       6       1       6       1
       6       1       6       1       6       1       1       6       1       1
       1       6       1       6       1       1       6       1       1       6
       1       1       8       8       8       8       8       8       6       6
       6       6       6       6       1       1       1       1       1       1
       1       1       1       1       1       1       1       1       1       1
       1       1       8       6       6       6       6       1       1       1
       6       1       6       1       6       1       1       7       6       6
       6       6       6       6       6       1       6       1       6       1
       6       1       6       6       1       6       1       1       6       6
       6       6       8       6       6       6       6       6       6       6
       6       1       6       1       6       1       6       1       6       6
       1       1       1       1       7       7       6       1       7       6
       1       6       6       6       6       1       6       6       1       6
       6       6       6       6       6       6       6       6       6       6
       6       6       1       6       1       1       6       1       6       6
       1       6       1       6       1       6       1       6       1       6
       1       6       1       6       1       6       1       1       6       1
       1       1       6       1       6       1       1       6       1       1
       6       1       1       8       8       8       8       8       8       6
       6       6       6       6       6       1       1       1       1       1
       1       1       1       1       1       1       1       1       1       1
       1       1       1       8       6       6       6       6       1       1
       1       6       1       6       1       6       1       1       7       6
       6       6       6       6       6       6       1       6       1       6
       1       6       1       6       6       1       6       1       1       6
       6       6       6       8       6       6       6       6       6       6
       6       6       1       6       1       6       1       6       1       6
       6       1       1       1       1       7       7       6       1       7
       6       1       6       6       6       6       1       6       6       1
       6       6       6       6       6       6       6       6       6       6
       6       6       6       1       6       1       1       6       1       6
       6       1       6       1       6       1       6       1       6       1
       6       1       6       1       6       1       6       1       1       6
       1       1       1       6       1       6       1       1       6       1
       1       6       1       1       8       8       8       8       8       8
       6       6       6       6       6       6       1       1       1       1
       1       1       1       1       1       1       1       1       1       1
       1       1       1       1       8       6       6       6       6       1
       1       1       6       1       6       1       6       1       1       7
       6       6       6       6       6       6       6       1       6       1
       6       1       6       1       6       6       1       6       1       1
       6       6       6       6       8       6       6       6       6       6
       6       6       6       1       6       1       6       1       6       1
       6       6       1       1       1       1       7       7       6       1
       7       6       1       6       6       6       6       1       6       6
       1       6       6       6       6       6       6       6       6       6
       6       6       6       6       1       6       1       1       6       1
       6       6       1       6       1       6       1       6       1       6
       1       6       1       6       1       6       1       6       1       1
       6       1       1       1       6       1       6       1       1       6
       1       1       6       1       1       8       8       8       8       8
       8       6       6       6       6       6       6       1       1       1
       1       1       1       1       1       1       1       1       1       1
       1       1       1       1       1       8       6       6       6       6
       1       1       1       6       1       6       1       6       1       1
       7       6       6       6       6       6       6       6       1       6
       1       6       1       6       1       6       6       1       6       1
       1       6       6       6       6       8       6       6       6       6
       6       6       6       6       1       6       1       6       1       6
       1       6       6       1       1       1       1       7       7       6
       1       7       6       1       6       6       6       6       1       6
       6       1       6       6       6       6       6       6       6       6
       6       6       6       6       6       1       6       1       1       6
       1       6       6       1       6       1       6       1       6       1
       6       1       6       1       6       1       6       1       6       1
       1       6       1       1       1       6       1       6       1       1
       6       1       1       6       1       1       8       8       8       8
       8       8       6       6       6       6       6       6       1       1
       1       1       1       1       1       1       1       1       1       1
       1       1       1       1       1       1       8       6       6       6
       6       1       1       1       6       1       6       1       6       1
       1       7       6       6       6       6       6       6       6       1
       6       1       6       1       6       1       6       6       1       6
       1       1       6       6       6       6       8       6       6       6
       6       6       6       6       6       1       6       1       6       1
       6       1       6       6       1       1       1       1       7       7
       6       1       7       6       1       6       6       6       6       1
       6       6       1       6       6       6       6       6       6       6
       6       6       6       6       6       6       1       6       1       1
       6       1       6       6       1       6       1       6       1       6
       1       6       1       6       1       6       1       6       1       6
       1       1       6       1       1       1       6       1       6       1
       1       6       1       1       6       1       1       8       8       8
       8       8       8       6       6       6       6       6       6       1
       1       1       1       1       1       1       1       1       1       1
       1       1       1       1       1       1       1       8       6       6
       6       6       1       1       1       6       1       6       1       6
       1       1       7       6       6       6       6       6       6       6
       1       6       1       6       1       6       1       6       6       1
       6       1       1       6       6       6       6       8       6       6
       6       6       6       6       6       6       1       6       1       6
       1       6       1       6       6       1       1       1       1       7
       7       6       1       7       6       1       6       6       6       6
       1       6       6       1       6       6       6       6       6       6
       6       6       6       6       6       6       6       1       6       1
       1       6       1       6       6       1       6       1       6       1
       6       1       6       1       6       1       6       1       6       1
       6       1       1       6       1       1       1       6       1       6
       1       1       6       1       1       6       1       1       8       8
       8       8       8       8       6       6       6       6       6       6
       1       1       1       1       1       1       1       1       1       1
       1       1       1       1       1       1       1       1       8       6
       6       6       6       1       1       1       6       1       6       1
       6       1       1       7       6       6       6       6       6       6
       6       1       6       1       6       1       6       1       6       6
       1       6       1       1       6       6       6       6       8       6
       6       6       6       6       6       6       6       1       6       1
       6       1       6       1       6       6       1       1       1       1
       7       7       6       1       7       6       1       6       6       6
       6       1       6       6       1       6       6       6       6       6
       6       6       6       6       6       6       6       6       1       6
       1       1       6       1       6       6       1       6       1       6
       1       6       1       6       1       6       1       6       1       6
       1       6       1       1       6       1       1       1       6       1
       6       1       1       6       1       1       6       1       1       8
       8       8       8       8       8       6       6       6       6       6
       6       1       1       1       1       1       1       1       1       1
       1       1       1       1       1       1       1       1       1       8
       6       6       6       6       1       1       1       6       1       6
       1       6       1       1       7       6       6       6       6       6
       6       6       1       6       1       6       1       6       1       6
       6       1       6       1       1       6       6       6       6       8
       6       6       6       6       6       6       6       6       1       6
       1       6       1       6       1       6       6       1       1       1
       1       7       7       6       1       7       6       1       6       6
       6       6       1       6       6       1       6       6       6       6
       6       6       6       6       6       6       6       6       6       1
       6       1       1       6       1       6       6       1       6       1
       6       1       6       1       6       1       6       1       6       1
       6       1       6       1       1       6       1       1       1       6
       1       6       1       1       6       1       1       6       1       1
       8       8       8       8       8       8       6       6       6       6
       6       6       1       1       1       1       1       1       1       1
       1       1       1       1       1       1       1       1       1       1
       8       6       6       6       6       1       1       1       6       1
       6       1       6       1       1       7       6       6       6       6
       6       6       6       1       6       1       6       1       6       1
       6       6       1       6       1       1       6       6       6       6
       8       6       6       6       6       6       6       6       6       1
       6       1       6       1       6       1       6       6       1       1
       1       1       7       7       6       1       7       6       1       6
       6       6       6       1       6       6       1       6       6       6
       6       6       6       6       6       6       6       6       6       6
       1       6       1       1       6       1       6       6       1       6
       1       6       1       6       1       6       1       6       1       6
       1       6       1       6       1       1       6       1       1       1
       6       1       6       1       1       6       1       1       6       1
       1       8       8       8       8       8       8       6       6       6
       6       6       6       1       1       1       1       1       1       1
       1       1       1       1       1       1       1       1       1       1
       1       8       6       6       6       6       1       1       1       6
       1       6       1       6       1       1       7       6       6       6
       6       6       6       6       1       6       1       6       1       6
       1       6       6       1       6       1       1       6       6       6
       6       8       6       6       6       6       6       6       6       6
       1       6       1       6       1       6       1       6       6       1
       1       1       1       7       7       6       1       7       6       1
       6       6       6       6       1       6       6       1       6       6
       6       6       6       6       6       6       6       6       6       6
       6       1       6       1       1       6       1       6       6       1
       6       1       6       1       6       1       6       1       6       1
       6       1       6       1       6       1       1       6       1       1
       1       6       1       6       1       1       6       1       1       6
       1       1       8       8       8       8       8       8       6       6
       6       6       6       6       1       1       1       1       1       1
       1       1       1       1       1       1       1       1       1       1
       1       1       8       6       6       6       6       1       1       1
       6       1       6       1       6       1       1       7       6       6
       6       6       6       6       6       1       6       1       6       1
       6       1       6       6       1       6       1       1       6       6
       6       6       8       6       6       6       6       6       6       6
       6       1       6       1       6       1       6       1       6       6
       1       1       1       1       7       7       6       1       7       6
       1       6       6       6       6       1       6       6       1       6
       6       6       6       6       6       6       6       6       6       6
       6       6       1       6       1       1       6       1       6       6
       1       6       1       6       1       6       1       6       1       6
       1       6       1       6       1       6       1       1       6       1
       1       1       6       1       6       1       1       6       1       1
       6       1       1       8       8       8       8       8       8       6
       6       6       6       6       6       1       1       1       1       1
       1       1       1       1       1       1       1       1       1       1
       1       1       1       8       6       6       6       6       1       1
       1       6       1       6       1       6       1       1       7       6
       6       6       6       6       6       6       1       6       1       6
       1       6       1       6       6       1       6       1       1       6
       6       6       6       8       6       6       6       6       6       6
       6       6       1       6       1       6       1       6       1       6
       6       1       1       1       1       7       7       6       1       7
       6       1       6       6       6       6       1       6       6       1
       6       6       6       6       6       6       6       6       6       6
       6       6       6       1       6       1       1       6       1       6
       6       1       6       1       6       1       6       1       6       1
       6       1       6       1       6       1       6       1       1       6
       1       1       1       6       1       6       1       1       6       1
       1       6       1       1       8       8       8       8       8       8
       6       6       6       6       6       6       1       1       1       1
       1       1       1       1       1       1       1       1       1       1
       1       1       1       1       8       6       6       6       6       1
       1       1       6       1       6       1       6       1       1       7
       6       6       6       6       6       6       6       1       6       1
       6       1       6       1       6       6       1       6       1       1
       6       6       6       6       8       6       6       6       6       6
       6       6       6       1       6       1       6       1       6       1
       6       6       1       1       1       1       7       7       6       1
       7       6       1       6       6       6       6       1       6       6
       1       6       6       6       6       6       6       6       6       6
       6       6       6       6       1       6       1       1       6       1
       6       6       1       6       1       6       1       6       1       6
       1       6       1       6       1       6       1       6       1       1
       6       1       1       1       6       1       6       1       1       6
       1       1       6       1       1       8       8       8       8       8
       8       6       6       6       6       6       6       1       1       1
       1       1       1       1       1       1       1       1       1       1
       1       1       1       1       1       8       6       6       6       6
       1       1       1       6       1       6       1       6       1       1
       7       6       6       6       6       6       6       6       1       6
       1       6       1       6       1       6       6       1       6       1
       1       6       6       6       6       8       6       6       6       6
       6       6       6       6       1       6       1       6       1       6
       1       6       6       1       1       1       1       7       7       6
       1       7       6       1       6       6       6       6       1       6
       6       1       6       6       6       6       6       6       6       6
       6       6       6       6       6       1       6       1       1       6
       1       6       6       1       6       1       6       1       6       1
       6       1       6       1       6       1       6       1       6       1
       1       6       1       1       1       6       1       6       1       1
       6       1       1       6       1       1       8       8       8       8
       8       8       6       6       6       6       6       6       1       1
       1       1       1       1       1       1       1       1       1       1
       1       1       1       1       1       1       8       6       6       6
       6       1       1       1       6       1       6       1       6       1
       1       7       6       6       6       6       6       6       6       1
       6       1       6       1       6       1       6       6       1       6
       1       1       6       6       6       6       8       6       6       6
       6       6       6       6       6       1       6       1       6       1
       6       1       6       6       1       1       1       1       7       7
       6       1       7       6       1       6       6       6       6       1
       6       6       1       6       6       6       6       6       6       6
       6       6       6       6       6       6       1       6       1       1
       6       1       6       6       1       6       1       6       1       6
       1       6       1       6       1       6       1       6       1       6
       1       1       6       1       1       1       6       1       6       1
       1       6       1       1       6       1       1       8       8       8
       8       8       8       6       6       6       6       6       6       1
       1       1       1       1       1       1       1       1       1       1
       1       1       1       1       1       1       1       8       6       6
       6       6       1       1       1       6       1       6       1       6
       1       1       7       6       6       6       6       6       6       6
       1       6       1       6       1       6       1       6       6       1
       6       1       1       6       6       6       6       8       6       6
       6       6       6       6       6       6       1       6       1       6
       1       6       1       6       6       1       1       1       1       7
       7       6       1       7       6       1       6       6       6       6
       1       6       6       1       6       6       6       6       6       6
       6       6       6       6       6       6       6       1       6       1
       1       6       1       6       6       1       6       1       6       1
       6       1       6       1       6       1       6       1       6       1
       6       1       1       6       1       1       1       6       1       6
       1       1       6       1       1       6       1       1       8       8
       8       8       8       8       6       6       6       6       6       6
       1       1       1       1       1       1       1       1       1       1
       1       1       1       1       1       1       1       1       8       6
       6       6       6       1       1       1       6       1       6       1
       6       1       1       7       6       6       6       6       6       6
       6       1       6       1       6       1       6       1       6       6
       1       6       1       1       6       6       6       6       8       6
       6       6       6       6       6       6       6       1       6       1
       6       1       6       1       6       6       1       1       1       1
       7       7       6       1       7       6       1       6       6       6
       6       1       6       6       1       6       6       6       6       6
       6       6       6       6       6       6       6       6       1       6
       1       1       6       1       6       6       1       6       1       6
       1       6       1       6       1       6       1       6       1       6
       1       6       1       1       6       1       1       1       6       1
       6       1       1       6       1       1       6       1       1       8
       8       8       8       8       8       6       6       6       6       6
       6       1       1       1       1       1       1       1       1       1
       1       1       1       1       1       1       1       1       1       8
       6       6       6       6       1       1       1       6       1       6
       1       6       1       1       7       6       6       6       6       6
       6       6       1       6       1       6       1       6       1       6
       6       1       6       1       1       6       6       6       6       8
       6       6       6       6       6       6       6       6       1       6
       1       6       1       6       1       6       6       1       1       1
       1       7       7       6       1       7       6       1       6       6
       6       6       1       6       6       1       6       6       6       6
       6       6       6       6       6       6       6       6       6       1
       6       1       1       6       1       6       6       1       6       1
       6       1       6       1       6       1       6       1       6       1
       6       1       6       1       1       6       1       1       1       6
       1       6       1       1       6       1       1       6       1       1
       8       8       8       8       8       8       6       6       6       6
       6       6       1       1       1       1       1       1       1       1
       1       1       1       1       1       1       1       1       1       1
%FLAG MASS                                                                      
%FORMAT(5E16.8)                                                                 
  1.60000000E+01  1.20100000E+01  1.20100000E+01  1.20100000E+01  1.20100000E+01
  1.00800000E+00  1.00800000E+00  1.00800000E+00  1.20100000E+01  1.00800000E+00
  1.20100000E+01  1.00800000E+00  1.20100000E+01  1.00800000E+00  1.00800000E+00
  1.40100000E+01  1.20100000E+01  1.20100000E+01  1.20100000E+01  1.20100000E+01
  1.20100000E+01  1.20100000E+01  1.20100000E+01  1.00800000E+00  1.20100000E+01
  1.00800000E+00  1.20100000E+01  1.00800000E+00  1.20100000E+01  1.00800000E+00
  1.20100000E+01  1.20100000E+01  1.00800000E+00  1.20100000E+01  1.00800000E+00
  1.00800000E+00  1.20100000E+01  1.20100000E+01  1.20100000E+01  1.20100000E+01
  1.60000000E+01  1.20100000E+01  1.20100000E+01  1.20100000E+01  1.20100000E+01
  1.20100000E+01  1.20100000E+01  1.20100000E+01  1.20100000E+01  1.00800000E+00
  1.20100000E+01  1.00800000E+00  1.20100000E+01  1.00800000E+00  1.20100000E+01
  1.00800000E+00  1.20100000E+01  1.20100000E+01  1.00800000E+00  1.00800000E+00
  1.00800000E+00  1.00800000E+00  1.40100000E+01  1.40100000E+01  1.20100000E+01
  1.00800000E+00  1.40100000E+01  1.20100000E+01  1.00800000E+00  1.20100000E+01
  1.20100000E+01  1.20100000E+01  1.20100000E+01  1.00800000E+00  1.20100000E+01
  1.20100000E+01  1.00800000E+00  1.20100000E+01  1.20100000E+01  1.20100000E+01
  1.20100000E+01  1.20100000E+01  1.20100000E+01  1.20100000E+01  1.20100000E+01
  1.20100000E+01  1.20100000E+01  1.20100000E+01  1.20100000E+01  1.20100000E+01
  1.00800000E+00  1.20100000E+01  1.00800000E+00  1.00800000E+00  1.20100000E+01
  1.00800000E+00  1.20100000E+01  1.20100000E+01  1.00800000E+00  1.20100000E+01
  1.00800000E+00  1.20100000E+01  1.00800000E+00  1.20100000E+01  1.00800000E+00
  1.20100000E+01  1.00800000E+00  1.20100000E+01  1.00800000E+00  1.20100000E+01
  1.00800000E+00  1.20100000E+01  1.00800000E+00  1.20100000E+01  1.00800000E+00
  1.00800000E+00  1.20100000E+01  1.00800000E+00  1.00800000E+00  1.00800000E+00
  1.20100000E+01  1.00800000E+00  1.20100000E+01  1.00800000E+00  1.00800000E+00
  1.20100000E+01  1.00800000E+00  1.00800000E+00  1.20100000E+01  1.00800000E+00
  1.00800000E+00  1.60000000E+01  1.60000000E+01  1.60000000E+01  1.60000000E+01
  1.60000000E+01  1.60000000E+01  1.20100000E+01  1.20100000E+01  1.20100000E+01
  1.20100000E+01  1.20100000E+01  1.20100000E+01  1.00800000E+00  1.00800000E+00
  1.00800000E+00  1.00800000E+00  1.00800000E+00  1.00800000E+00  1.00800000E+00
  1.00800000E+00  1.00800000E+00  1.00800000E+00  1.00800000E+00  1.00800000E+00
  1.00800000E+00  1.00800000E+00  1.00800000E+00  1.00800000E+00  1.00800000E+00
  1.00800000E+00  1.60000000E+01  1.20100000E+01  1.20100000E+01  1.20100000E+01
  1.20100000E+01  1.00800000E+00  1.00800000E+00  1.00800000E+00  1.20100000E+01
  1.00800000E+00  1.20100000E+01  1.00800000E+00  1.20100000E+01  1.00800000E+00
  1.00800000E+00  1.40100000E+01  1.20100000E+01  1.20100000E+01  1.20100000E+01
  1.20100000E+01  1.20100000E+01  1.20100000E+01  1.20100000E+01  1.00800000E+00
  1.20100000E+01  1.00800000E+00  1.20100000E+01  1.00800000E+00  1.20100000E+01
  1.00800000E+00  1.20100000E+01  1.20100000E+01  1.00800000E+00  1.20100000E+01
  1.00800000E+00  1.00800000E+00  1.20100000E+01  1.20100000E+01  1.20100000E+01
  1.20100000E+01  1.60000000E+01  1.20100000E+01  1.20100000E+01  1.20100000E+01
  1.20100000E+01  1.20100000E+01  1.20100000E+01  1.20100000E+01  1.20100000E+01
  1.00800000E+00  1.20100000E+01  1.00800000E+00  1.20100000E+01  1.00800000E+00
  1.20100000E+01  1.00800000E+00  1.20100000E+01  1.20100000E+01  1.00800000E+00
  1.00800000E+00  1.00800000E+00  1.00800000E+00  1.40100000E+01  1.40100000E+01
  1.20100000E+01  1.00800000E+00  1.40100000E+01  1.20100000E+01  1.00800000E+00
  1.20100000E+01  1.20100000E+01  1.20100000E+01  1.20100000E+01  1.00800000E+00
  1.20100000E+01  1.20100000E+01  1.00800000E+00  1.20100000E+01  1.20100000E+01
  1.20100000E+01  1.20100000E+01  1.20100000E+01  1.20100000E+01  1.20100000E+01
  1.20100000E+01  1.20100000E+01  1.20100000E+01  1.20100000E+01  1.20100000E+01
  1.20100000E+01  1.00800000E+00  1.20100000E+01  1.00800000E+00  1.00800000E+00
  1.20100000E+01  1.00800000E+00  1.20100000E+01  1.20100000E+01  1.00800000E+00
  1.20100000E+01  1.00800000E+00  1.20100000E+01  1.00800000E+00  1.20100000E+01
  1.00800000E+00  1.20100000E+01  1.00800000E+00  1.20100000E+01  1.00800000E+00
  1.20100000E+01  1.00800000E+00  1.20100000E+01  1.00800000E+00  1.20100000E+01
  1.00800000E+00  1.00800000E+00  1.20100000E+01  1.00800000E+00  1.00800000E+00
  1.00800000E+00  1.20100000E+01  1.00800000E+00  1.20100000E+01  1.00800000E+00
  1.00800000E+00  1.20100000E+01  1.00800000E+00  1.00800000E+00  1.20100000E+01
  1.00800000E+00  1.00800000E+00  1.60000000E+01  1.60000000E+01  1.60000000E+01
  1.60000000E+01  1.60000000E+01  1.60000000E+01  1.20100000E+01  1.20100000E+01
  1.20100000E+01  1.20100000E+01  1.20100000E+01  1.20100000E+01  1.00800000E+00
  1.00800000E+00  1.00800000E+00  1.00800000E+00  1.00800000E+00  1.00800000E+00
  1.00800000E+00  1.00800000E+00  1.00800000E+00  1.00800000E+00  1.00800000E+00
  1.00800000E+00  1.00800000E+00  1.00800000E+00  1.00800000E+00  1.00800000E+00
  1.00800000E+00  1.00800000E+00  1.60000000E+01  1.20100000E+01  1.20100000E+01
  1.20100000E+01  1.20100000E+01  1.00800000E+00  1.00800000E+00  1.00800000E+00
  1.20100000E+01  1.00800000E+00  1.20100000E+01  1.00800000E+00  1.20100000E+01
  1.00800000E+00  1.00800000E+00  1.40100000E+01  1.20100000E+01  1.20100000E+01
  1.20100000E+01  1.20100000E+01  1.20100000E+01  1.20100000E+01  1.20100000E+01
  1.00800000E+00  1.20100000E+01  1.00800000E+00  1.20100000E+01  1.00800000E+00
  1.20100000E+01  1.00800000E+00  1.20100000E+01  1.20100000E+01  1.00800000E+00
  1.20100000E+01  1.00800000E+00  1.00800000E+00  1.20100000E+01  1.20100000E+01
  1.20100000E+01  1.20100000E+01  1.60000000E+01  1.20100000E+01  1.20100000E+01
  1.20100000E+01  1.20100000E+01  1.20100000E+01  1.20100000E+01  1.20100000E+01
  1.20100000E+01  1.00800000E+00  1.20100000E+01  1.00800000E+00  1.20100000E+01
  1.00800000E+00  1.20100000E+01  1.00800000E+00  1.20100000E+01  1.20100000E+01
  1.00800000E+00  1.00800000E+00  1.00800000E+00  1.00800000E+00  1.40100000E+01
  1.40100000E+01  1.20100000E+01  1.00800000E+00  1.40100000E+01  1.20100000E+01
  1.00800000E+00  1.20100000E+01  1.20100000E+01  1.20100000E+01  1.20100000E+01
  1.00800000E+00  1.20100000E+01  1.20100000E+01  1.00800000E+00  1.20100000E+01
  1.20100000E+01  1.20100000E+01  1.20100000E+01  1.20100000E+01  1.20100000E+01
  1.20100000E+01  1.20100000E+01  1.20100000E+01  1.20100000E+01  1.20100000E+01
  1.20100000E+01  1.20100000E+01  1.00800000E+00  1.20100000E+01  1.00800000E+00
  1.00800000E+00  1.20100000E+01  1.00800000E+00  1.20100000E+01  1.20100000E+01
  1.00800000E+00  1.20100000E+01  1.00800000E+00  1.20100000E+01  1.00800000E+00
  1.20100000E+01  1.00800000E+00  1.20100000E+01  1.00800000E+00  1.20100000E+01
  1.00800000E+00  1.20100000E+01  1.00800000E+00  1.20100000E+01  1.00800000E+00
  1.20100000E+01  1.00800000E+00  1.00800000E+00  1.20100000E+01  1.00800000E+00
  1.00800000E+00  1.00800000E+00  1.20100000E+01  1.00800000E+00  1.20100000E+01
  1.00800000E+00  1.00800000E+00  1.20100000E+01  1.00800000E+00  1.00800000E+00
  1.20100000E+01  1.00800000E+00  1.00800000E+00  1.60000000E+01  1.60000000E+01
  1.60000000E+01  1.60000000E+01  1.60000000E+01  1.60000000E+01  1.20100000E+01
  1.20100000E+01  1.20100000E+01  1.20100000E+01  1.20100000E+01  1.20100000E+01
  1.00800000E+00  1.00800000E+00  1.00800000E+00  1.00800000E+00  1.00800000E+00
  1.00800000E+00  1.00800000E+00  1.00800000E+00  1.00800000E+00  1.00800000E+00
  1.00800000E+00  1.00800000E+00  1.00800000E+00  1.00800000E+00  1.00800000E+00
  1.00800000E+00  1.00800000E+00  1.00800000E+00  1.60000000E+01  1.20100000E+01
  1.20100000E+01  1.20100000E+01  1.20100000E+01  1.00800000E+00  1.00800000E+00
  1.00800000E+00  1.20100000E+01  1.00800000E+00  1.20100000E+01  1.00800000E+00
  1.20100000E+01  1.00800000E+00  1.00800000E+00  1.40100000E+01  1.20100000E+01
  1.20100000E+01  1.20100000E+01  1.20100000E+01  1.20100000E+01  1.20100000E+01
  1.20100000E+01  1.00800000E+00  1.20100000E+01  1.00800000E+00  1.20100000E+01
  1.00800000E+00  1.20100000E+01  1.00800000E+00  1.20100000E+01  1.20100000E+01
  1.00800000E+00  1.20100000E+01  1.00800000E+00  1.00800000E+00  1.20100000E+01
  1.20100000E+01  1.20100000E+01  1.20100000E+01  1.60000000E+01  1.20100000E+01
  1.20100000E+01  1.20100000E+01  1.20100000E+01  1.20100000E+01  1.20100000E+01
  1.20100000E+01  1.20100000E+01  1.00800000E+00  1.20100000E+01  1.00800000E+00
  1.20100000E+01  1.00800000E+00  1.20100000E+01  1.00800000E+00  1.20100000E+01
  1.20100000E+01  1.00800000E+00  1.00800000E+00  1.00800000E+00  1.00800000E+00
  1.40100000E+01  1.40100000E+01  1.20100000E+01  1.00800000E+00  1.40100000E+01
  1.20100000E+01  1.00800000E+00  1.20100000E+01  1.20100000E+01  1.20100000E+01
  1.20100000E+01  1.00800000E+00  1.20100000E+01  1.20100000E+01  1.00800000E+00
  1.20100000E+01  1.20100000E+01  1.20100000E+01  1.20100000E+01  1.20100000E+01
  1.20100000E+01  1.20100000E+01  1.20100000E+01  1.20100000E+01  1.20100000E+01
  1.20100000E+01  1.20100000E+01  1.20100000E+01  1.00800000E+00  1.20100000E+01
  1.00800000E+00  1.00800000E+00  1.20100000E+01  1.00800000E+00  1.20100000E+01
  1.20100000E+01  1.00800000E+00  1.20100000E+01  1.00800000E+00  1.20100000E+01
  1.00800000E+00  1.20100000E+01  1.00800000E+00  1.20100000E+01  1.00800000E+00
  1.20100000E+01  1.00800000E+00  1.20100000E+01  1.00800000E+00  1.20100000E+01
  1.00800000E+00  1.20100000E+01  1.00800000E+00  1.00800000E+00  1.20100000E+01
  1.00800000E+00  1.00800000E+00  1.00800000E+00  1.20100000E+01  1.00800000E+00
  1.20100000E+01  1.00800000E+00  1.00800000E+00  1.20100000E+01  1.00800000E+00
  1.00800000E+00  1.20100000E+01  1.00800000E+00  1.00800000E+00  1.60000000E+01
  1.60000000E+01  1.60000000E+01  1.60000000E+01  1.60000000E+01  1.60000000E+01
  1.20100000E+01  1.20100000E+01  1.20100000E+01  1.20100000E+01  1.20100000E+01
  1.20100000E+01  1.00800000E+00  1.00800000E+00  1.00800000E+00  1.00800000E+00
  1.00800000E+00  1.00800000E+00  1.00800000E+00  1.00800000E+00  1.00800000E+00
  1.00800000E+00  1.00800000E+00  1.00800000E+00  1.00800000E+00  1.00800000E+00
  1.00800000E+00  1.00800000E+00  1.00800000E+00  1.00800000E+00  1.60000000E+01
  1.20100000E+01  1.20100000E+01  1.20100000E+01  1.20100000E+01  1.00800000E+00
  1.00800000E+00  1.00800000E+00  1.20100000E+01  1.00800000E+00  1.20100000E+01
  1.00800000E+00  1.20100000E+01  1.00800000E+00  1.00800000E+00  1.40100000E+01
  1.20100000E+01  1.20100000E+01  1.20100000E+01  1.20100000E+01  1.20100000E+01
  1.20100000E+01  1.20100000E+01  1.00800000E+00  1.20100000E+01  1.00800000E+00
  1.20100000E+01  1.00800000E+00  1.20100000E+01  1.00800000E+00  1.20100000E+01
  1.20100000E+01  1.00800000E+00  1.20100000E+01  1.00800000E+00  1.00800000E+00
  1.20100000E+01  1.20100000E+01  1.20100000E+01  1.20100000E+01  1.60000000E+01
  1.20100000E+01  1.20100000E+01  1.20100000E+01  1.20100000E+01  1.20100000E+01
  1.20100000E+01  1.20100000E+01  1.20100000E+01  1.00800000E+00  1.20100000E+01
  1.00800000E+00  1.20100000E+01  1.00800000E+00  1.20100000E+01  1.00800000E+00
  1.20100000E+01  1.20100000E+01  1.00800000E+00  1.00800000E+00  1.00800000E+00
  1.00800000E+00  1.40100000E+01  1.40100000E+01  1.20100000E+01  1.00800000E+00
  1.40100000E+01  1.20100000E+01  1.00800000E+00  1.20100000E+01  1.20100000E+01
  1.20100000E+01  1.20100000E+01  1.00800000E+00  1.20100000E+01  1.20100000E+01
  1.00800000E+00  1.20100000E+01  1.20100000E+01  1.20100000E+01  1.20100000E+01
  1.20100000E+01  1.20100000E+01  1.20100000E+01  1.20100000E+01  1.20100000E+01
  1.20100000E+01  1.20100000E+01  1.20100000E+01  1.20100000E+01  1.00800000E+00
  1.20100000E+01  1.00800000E+00  1.00800000E+00  1.20100000E+01  1.00800000E+00
  1.20100000E+01  1.20100000E+01  1.00800000E+00  1.20100000E+01  1.00800000E+00
  1.20100000E+01  1.00800000E+00  1.20100000E+01  1.00800000E+00  1.20100000E+01
  1.00800000E+00  1.20100000E+01  1.00800000E+00  1.20100000E+01  1.00800000E+00
  1.20100000E+01  1.00800000E+00  1.20100000E+01  1.00800000E+00  1.00800000E+00
  1.20100000E+01  1.00800000E+00  1.00800000E+00  1.00800000E+00  1.20100000E+01
  1.00800000E+00  1.20100000E+01  1.00800000E+00  1.00800000E+00  1.20100000E+01
  1.00800000E+00  1.00800000E+00  1.20100000E+01  1.00800000E+00  1.00800000E+00
  1.60000000E+01  1.60000000E+01  1.60000000E+01  1.60000000E+01  1.60000000E+01
  1.60000000E+01  1.20100000E+01  1.20100000E+01  1.20100000E+01  1.20100000E+01
  1.20100000E+01  1.20100000E+01  1.00800000E+00  1.00800000E+00  1.00800000E+00
  1.00800000E+00  1.00800000E+00  1.00800000E+00  1.00800000E+00  1.00800000E+00
  1.00800000E+00  1.00800000E+00  1.00800000E+00  1.00800000E+00  1.00800000E+00
  1.00800000E+00  1.00800000E+00  1.00800000E+00  1.00800000E+00  1.00800000E+00
  1.60000000E+01  1.20100000E+01  1.20100000E+01  1.20100000E+01  1.20100000E+01
  1.00800000E+00  1.00800000E+00  1.00800000E+00  1.20100000E+01  1.00800000E+00
  1.20100000E+01  1.00800000E+00  1.20100000E+01  1.00800000E+00  1.00800000E+00
  1.40100000E+01  1.20100000E+01  1.20100000E+01  1.20100000E+01  1.20100000E+01
  1.20100000E+01  1.20100000E+01  1.20100000E+01  1.00800000E+00  1.20100000E+01
  1.00800000E+00  1.20100000E+01  1.00800000E+00  1.20100000E+01  1.00800000E+00
  1.20100000E+01  1.20100000E+01  1.00800000E+00  1.20100000E+01  1.00800000E+00
  1.00800000E+00  1.20100000E+01  1.20100000E+01  1.20100000E+01  1.20100000E+01
  1.60000000E+01  1.20100000E+01  1.20100000E+01  1.20100000E+01  1.20100000E+01
  1.20100000E+01  1.20100000E+01  1.20100000E+01  1.20100000E+01  1.00800000E+00
  1.20100000E+01  1.00800000E+00  1.20100000E+01  1.00800000E+00  1.20100000E+01
  1.00800000E+00  1.20100000E+01  1.20100000E+01  1.00800000E+00  1.00800000E+00
  1.00800000E+00  1.00800000E+00  1.40100000E+01  1.40100000E+01  1.20100000E+01
  1.00800000E+00  1.40100000E+01  1.20100000E+01  1.00800000E+00  1.20100000E+01
  1.20100000E+01  1.20100000E+01  1.20100000E+01  1.00800000E+00  1.20100000E+01
  1.20100000E+01  1.00800000E+00  1.20100000E+01  1.20100000E+01  1.20100000E+01
  1.20100000E+01  1.20100000E+01  1.20100000E+01  1.20100000E+01  1.20100000E+01
  1.20100000E+01  1.20100000E+01  1.20100000E+01  1.20100000E+01  1.20100000E+01
  1.00800000E+00  1.20100000E+01  1.00800000E+00  1.00800000E+00  1.20100000E+01
  1.00800000E+00  1.20100000E+01  1.20100000E+01  1.00800000E+00  1.20100000E+01
  1.00800000E+00  1.20100000E+01  1.00800000E+00  1.20100000E+01  1.00800000E+00
  1.20100000E+01  1.00800000E+00  1.20100000E+01  1.00800000E+00  1.20100000E+01
  1.00800000E+00  1.20100000E+01  1.00800000E+00  1.20100000E+01  1.00800000E+00
  1.00800000E+00  1.20100000E+01  1.00800000E+00  1.00800000E+00  1.00800000E+00
  1.20100000E+01  1.00800000E+00  1.20100000E+01  1.00800000E+00  1.00800000E+00
  1.20100000E+01  1.00800000E+00  1.00800000E+00  1.20100000E+01  1.00800000E+00
  1.00800000E+00  1.60000000E+01  1.60000000E+01  1.60000000E+01  1.60000000E+01
  1.60000000E+01  1.60000000E+01  1.20100000E+01  1.20100000E+01  1.20100000E+01
  1.20100000E+01  1.20100000E+01  1.20100000E+01  1.00800000E+00  1.00800000E+00
  1.00800000E+00  1.00800000E+00  1.00800000E+00  1.00800000E+00  1.00800000E+00
  1.00800000E+00  1.00800000E+00  1.00800000E+00  1.00800000E+00  1.00800000E+00
  1.00800000E+00  1.00800000E+00  1.00800000E+00  1.00800000E+00  1.00800000E+00
  1.00800000E+00  1.60000000E+01  1.20100000E+01  1.20100000E+01  1.20100000E+01
  1.20100000E+01  1.00800000E+00  1.00800000E+00  1.00800000E+00  1.20100000E+01
  1.00800000E+00  1.20100000E+01  1.00800000E+00  1.20100000E+01  1.00800000E+00
  1.00800000E+00  1.40100000E+01  1.20100000E+01  1.20100000E+01  1.20100000E+01
  1.20100000E+01  1.20100000E+01  1.20100000E+01  1.20100000E+01  1.00800000E+00
  1.20100000E+01  1.00800000E+00  1.20100000E+01  1.00800000E+00  1.20100000E+01
  1.00800000E+00  1.20100000E+01  1.20100000E+01  1.00800000E+00  1.20100000E+01
  1.00800000E+00  1.00800000E+00  1.20100000E+01  1.20100000E+01  1.20100000E+01
  1.20100000E+01  1.60000000E+01  1.20100000E+01  1.20100000E+01  1.20100000E+01
  1.20100000E+01  1.20100000E+01  1.20100000E+01  1.20100000E+01  1.20100000E+01
  1.00800000E+00  1.20100000E+01  1.00800000E+00  1.20100000E+01  1.00800000E+00
  1.20100000E+01  1.00800000E+00  1.20100000E+01  1.20100000E+01  1.00800000E+00
  1.00800000E+00  1.00800000E+00  1.00800000E+00  1.40100000E+01  1.40100000E+01
  1.20100000E+01  1.00800000E+00  1.40100000E+01  1.20100000E+01  1.00800000E+00
  1.20100000E+01  1.20100000E+01  1.20100000E+01  1.20100000E+01  1.00800000E+00
  1.20100000E+01  1.20100000E+01  1.00800000E+00  1.20100000E+01  1.20100000E+01
  1.20100000E+01  1.20100000E+01  1.20100000E+01  1.20100000E+01  1.20100000E+01
  1.20100000E+01  1.20100000E+01  1.20100000E+01  1.20100000E+01  1.20100000E+01
  1.20100000E+01  1.00800000E+00  1.20100000E+01  1.00800000E+00  1.00800000E+00
  1.20100000E+01  1.00800000E+00  1.20100000E+01  1.20100000E+01  1.00800000E+00
  1.20100000E+01  1.00800000E+00  1.20100000E+01  1.00800000E+00  1.20100000E+01
  1.00800000E+00  1.20100000E+01  1.00800000E+00  1.20100000E+01  1.00800000E+00
  1.20100000E+01  1.00800000E+00  1.20100000E+01  1.00800000E+00  1.20100000E+01
  1.00800000E+00  1.00800000E+00  1.20100000E+01  1.00800000E+00  1.00800000E+00
  1.00800000E+00  1.20100000E+01  1.00800000E+00  1.20100000E+01  1.00800000E+00
  1.00800000E+00  1.20100000E+01  1.00800000E+00  1.00800000E+00  1.20100000E+01
  1.00800000E+00  1.00800000E+00  1.60000000E+01  1.60000000E+01  1.60000000E+01
  1.60000000E+01  1.60000000E+01  1.60000000E+01  1.20100000E+01  1.20100000E+01
  1.20100000E+01  1.20100000E+01  1.20100000E+01  1.20100000E+01  1.00800000E+00
  1.00800000E+00  1.00800000E+00  1.00800000E+00  1.00800000E+00  1.00800000E+00
  1.00800000E+00  1.00800000E+00  1.00800000E+00  1.00800000E+00  1.00800000E+00
  1.00800000E+00  1.00800000E+00  1.00800000E+00  1.00800000E+00  1.00800000E+00
  1.00800000E+00  1.00800000E+00  1.60000000E+01  1.20100000E+01  1.20100000E+01
  1.20100000E+01  1.20100000E+01  1.00800000E+00  1.00800000E+00  1.00800000E+00
  1.20100000E+01  1.00800000E+00  1.20100000E+01  1.00800000E+00  1.20100000E+01
  1.00800000E+00  1.00800000E+00  1.40100000E+01  1.20100000E+01  1.20100000E+01
  1.20100000E+01  1.20100000E+01  1.20100000E+01  1.20100000E+01  1.20100000E+01
  1.00800000E+00  1.20100000E+01  1.00800000E+00  1.20100000E+01  1.00800000E+00
  1.20100000E+01  1.00800000E+00  1.20100000E+01  1.20100000E+01  1.00800000E+00
  1.20100000E+01  1.00800000E+00  1.00800000E+00  1.20100000E+01  1.20100000E+01
  1.20100000E+01  1.20100000E+01  1.60000000E+01  1.20100000E+01  1.20100000E+01
  1.20100000E+01  1.20100000E+01  1.20100000E+01  1.20100000E+01  1.20100000E+01
  1.20100000E+01  1.00800000E+00  1.20100000E+01  1.00800000E+00  1.20100000E+01
  1.00800000E+00  1.20100000E+01  1.00800000E+00  1.20100000E+01  1.20100000E+01
  1.00800000E+00  1.00800000E+00  1.00800000E+00  1.00800000E+00  1.40100000E+01
  1.40100000E+01  1.20100000E+01  1.00800000E+00  1.40100000E+01  1.20100000E+01
  1.00800000E+00  1.20100000E+01  1.20100000E+01  1.20100000E+01  1.20100000E+01
  1.00800000E+00  1.20100000E+01  1.20100000E+01  1.00800000E+00  1.20100000E+01
  1.20100000E+01  1.20100000E+01  1.20100000E+01  1.20100000E+01  1.20100000E+01
  1.20100000E+01  1.20100000E+01  1.20100000E+01  1.20100000E+01  1.20100000E+01
  1.20100000E+01  1.20100000E+01  1.00800000E+00  1.20100000E+01  1.00800000E+00
  1.00800000E+00  1.20100000E+01  1.00800000E+00  1.20100000E+01  1.20100000E+01
  1.00800000E+00  1.20100000E+01  1.00800000E+00  1.20100000E+01  1.00800000E+00
  1.20100000E+01  1.00800000E+00  1.20100000E+01  1.00800000E+00  1.20100000E+01
  1.00800000E+00  1.20100000E+01  1.00800000E+00  1.20100000E+01  1.00800000E+00
  1.20100000E+01  1.00800000E+00  1.00800000E+00  1.20100000E+01  1.00800000E+00
  1.00800000E+00  1.00800000E+00  1.20100000E+01  1.00800000E+00  1.20100000E+01
  1.00800000E+00  1.00800000E+00  1.20100000E+01  1.00800000E+00  1.00800000E+00
  1.20100000E+01  1.00800000E+00  1.00800000E+00  1.60000000E+01  1.60000000E+01
  1.60000000E+01  1.60000000E+01  1.60000000E+01  1.60000000E+01  1.20100000E+01
  1.20100000E+01  1.20100000E+01  1.20100000E+01  1.20100000E+01  1.20100000E+01
  1.00800000E+00  1.00800000E+00  1.00800000E+00  1.00800000E+00  1.00800000E+00
  1.00800000E+00  1.00800000E+00  1.00800000E+00  1.00800000E+00  1.00800000E+00
  1.00800000E+00  1.00800000E+00  1.00800000E+00  1.00800000E+00  1.00800000E+00
  1.00800000E+00  1.00800000E+00  1.00800000E+00  1.60000000E+01  1.20100000E+01
  1.20100000E+01  1.20100000E+01  1.20100000E+01  1.00800000E+00  1.00800000E+00
  1.00800000E+00  1.20100000E+01  1.00800000E+00  1.20100000E+01  1.00800000E+00
  1.20100000E+01  1.00800000E+00  1.00800000E+00  1.40100000E+01  1.20100000E+01
  1.20100000E+01  1.20100000E+01  1.20100000E+01  1.20100000E+01  1.20100000E+01
  1.20100000E+01  1.00800000E+00  1.20100000E+01  1.00800000E+00  1.20100000E+01
  1.00800000E+00  1.20100000E+01  1.00800000E+00  1.20100000E+01  1.20100000E+01
  1.00800000E+00  1.20100000E+01  1.00800000E+00  1.00800000E+00  1.20100000E+01
  1.20100000E+01  1.20100000E+01  1.20100000E+01  1.60000000E+01  1.20100000E+01
  1.20100000E+01  1.20100000E+01  1.20100000E+01  1.20100000E+01  1.20100000E+01
  1.20100000E+01  1.20100000E+01  1.00800000E+00  1.20100000E+01  1.00800000E+00
  1.20100000E+01  1.00800000E+00  1.20100000E+01  1.00800000E+00  1.20100000E+01
  1.20100000E+01  1.00800000E+00  1.00800000E+00  1.00800000E+00  1.00800000E+00
  1.40100000E+01  1.40100000E+01  1.20100000E+01  1.00800000E+00  1.40100000E+01
  1.20100000E+01  1.00800000E+00  1.20100000E+01  1.20100000E+01  1.20100000E+01
  1.20100000E+01  1.00800000E+00  1.20100000E+01  1.20100000E+01  1.00800000E+00
  1.20100000E+01  1.20100000E+01  1.20100000E+01  1.20100000E+01  1.20100000E+01
  1.20100000E+01  1.20100000E+01  1.20100000E+01  1.20100000E+01  1.20100000E+01
  1.20100000E+01  1.20100000E+01  1.20100000E+01  1.00800000E+00  1.20100000E+01
  1.00800000E+00  1.00800000E+00  1.20100000E+01  1.00800000E+00  1.20100000E+01
  1.20100000E+01  1.00800000E+00  1.20100000E+01  1.00800000E+00  1.20100000E+01
  1.00800000E+00  1.20100000E+01  1.00800000E+00  1.20100000E+01  1.00800000E+00
  1.20100000E+01  1.00800000E+00  1.20100000E+01  1.00800000E+00  1.20100000E+01
  1.00800000E+00  1.20100000E+01  1.00800000E+00  1.00800000E+00  1.20100000E+01
  1.00800000E+00  1.00800000E+00  1.00800000E+00  1.20100000E+01  1.00800000E+00
  1.20100000E+01  1.00800000E+00  1.00800000E+00  1.20100000E+01  1.00800000E+00
  1.00800000E+00  1.20100000E+01  1.00800000E+00  1.00800000E+00  1.60000000E+01
  1.60000000E+01  1.60000000E+01  1.60000000E+01  1.60000000E+01  1.60000000E+01
  1.20100000E+01  1.20100000E+01  1.20100000E+01  1.20100000E+01  1.20100000E+01
  1.20100000E+01  1.00800000E+00  1.00800000E+00  1.00800000E+00  1.00800000E+00
  1.00800000E+00  1.00800000E+00  1.00800000E+00  1.00800000E+00  1.00800000E+00
  1.00800000E+00  1.00800000E+00  1.00800000E+00  1.00800000E+00  1.00800000E+00
  1.00800000E+00  1.00800000E+00  1.00800000E+00  1.00800000E+00  1.60000000E+01
  1.20100000E+01  1.20100000E+01  1.20100000E+01  1.20100000E+01  1.00800000E+00
  1.00800000E+00  1.00800000E+00  1.20100000E+01  1.00800000E+00  1.20100000E+01
  1.00800000E+00  1.20100000E+01  1.00800000E+00  1.00800000E+00  1.40100000E+01
  1.20100000E+01  1.20100000E+01  1.20100000E+01  1.20100000E+01  1.20100000E+01
  1.20100000E+01  1.20100000E+01  1.00800000E+00  1.20100000E+01  1.00800000E+00
  1.20100000E+01  1.00800000E+00  1.20100000E+01  1.00800000E+00  1.20100000E+01
  1.20100000E+01  1.00800000E+00  1.20100000E+01  1.00800000E+00  1.00800000E+00
  1.20100000E+01  1.20100000E+01  1.20100000E+01  1.20100000E+01  1.60000000E+01
  1.20100000E+01  1.20100000E+01  1.20100000E+01  1.20100000E+01  1.20100000E+01
  1.20100000E+01  1.20100000E+01  1.20100000E+01  1.00800000E+00  1.20100000E+01
  1.00800000E+00  1.20100000E+01  1.00800000E+00  1.20100000E+01  1.00800000E+00
  1.20100000E+01  1.20100000E+01  1.00800000E+00  1.00800000E+00  1.00800000E+00
  1.00800000E+00  1.40100000E+01  1.40100000E+01  1.20100000E+01  1.00800000E+00
  1.40100000E+01  1.20100000E+01  1.00800000E+00  1.20100000E+01  1.20100000E+01
  1.20100000E+01  1.20100000E+01  1.00800000E+00  1.20100000E+01  1.20100000E+01
  1.00800000E+00  1.20100000E+01  1.20100000E+01  1.20100000E+01  1.20100000E+01
  1.20100000E+01  1.20100000E+01  1.20100000E+01  1.20100000E+01  1.20100000E+01
  1.20100000E+01  1.20100000E+01  1.20100000E+01  1.20100000E+01  1.00800000E+00
  1.20100000E+01  1.00800000E+00  1.00800000E+00  1.20100000E+01  1.00800000E+00
  1.20100000E+01  1.20100000E+01  1.00800000E+00  1.20100000E+01  1.00800000E+00
  1.20100000E+01  1.00800000E+00  1.20100000E+01  1.00800000E+00  1.20100000E+01
  1.00800000E+00  1.20100000E+01  1.00800000E+00  1.20100000E+01  1.00800000E+00
  1.20100000E+01  1.00800000E+00  1.20100000E+01  1.00800000E+00  1.00800000E+00
  1.20100000E+01  1.00800000E+00  1.00800000E+00  1.00800000E+00  1.20100000E+01
  1.00800000E+00  1.20100000E+01  1.00800000E+00  1.00800000E+00  1.20100000E+01
  1.00800000E+00  1.00800000E+00  1.20100000E+01  1.00800000E+00  1.00800000E+00
  1.60000000E+01  1.60000000E+01  1.60000000E+01  1.60000000E+01  1.60000000E+01
  1.60000000E+01  1.20100000E+01  1.20100000E+01  1.20100000E+01  1.20100000E+01
  1.20100000E+01  1.20100000E+01  1.00800000E+00  1.00800000E+00  1.00800000E+00
  1.00800000E+00  1.00800000E+00  1.00800000E+00  1.00800000E+00  1.00800000E+00
  1.00800000E+00  1.00800000E+00  1.00800000E+00  1.00800000E+00  1.00800000E+00
  1.00800000E+00  1.00800000E+00  1.00800000E+00  1.00800000E+00  1.00800000E+00
  1.60000000E+01  1.20100000E+01  1.20100000E+01  1.20100000E+01  1.20100000E+01
  1.00800000E+00  1.00800000E+00  1.00800000E+00  1.20100000E+01  1.00800000E+00
  1.20100000E+01  1.00800000E+00  1.20100000E+01  1.00800000E+00  1.00800000E+00
  1.40100000E+01  1.20100000E+01  1.20100000E+01  1.20100000E+01  1.20100000E+01
  1.20100000E+01  1.20100000E+01  1.20100000E+01  1.00800000E+00  1.20100000E+01
  1.00800000E+00  1.20100000E+01  1.00800000E+00  1.20100000E+01  1.00800000E+00
  1.20100000E+01  1.20100000E+01  1.00800000E+00  1.20100000E+01  1.00800000E+00
  1.00800000E+00  1.20100000E+01  1.20100000E+01  1.20100000E+01  1.20100000E+01
  1.60000000E+01  1.20100000E+01  1.20100000E+01  1.20100000E+01  1.20100000E+01
  1.20100000E+01  1.20100000E+01  1.20100000E+01  1.20100000E+01  1.00800000E+00
  1.20100000E+01  1.00800000E+00  1.20100000E+01  1.00800000E+00  1.20100000E+01
  1.00800000E+00  1.20100000E+01  1.20100000E+01  1.00800000E+00  1.00800000E+00
  1.00800000E+00  1.00800000E+00  1.40100000E+01  1.40100000E+01  1.20100000E+01
  1.00800000E+00  1.40100000E+01  1.20100000E+01  1.00800000E+00  1.20100000E+01
  1.20100000E+01  1.20100000E+01  1.20100000E+01  1.00800000E+00  1.20100000E+01
  1.20100000E+01  1.00800000E+00  1.20100000E+01  1.20100000E+01  1.20100000E+01
  1.20100000E+01  1.20100000E+01  1.20100000E+01  1.20100000E+01  1.20100000E+01
  1.20100000E+01  1.20100000E+01  1.20100000E+01  1.20100000E+01  1.20100000E+01
  1.00800000E+00  1.20100000E+01  1.00800000E+00  1.00800000E+00  1.20100000E+01
  1.00800000E+00  1.20100000E+01  1.20100000E+01  1.00800000E+00  1.20100000E+01
  1.00800000E+00  1.20100000E+01  1.00800000E+00  1.20100000E+01  1.00800000E+00
  1.20100000E+01  1.00800000E+00  1.20100000E+01  1.00800000E+00  1.20100000E+01
  1.00800000E+00  1.20100000E+01  1.00800000E+00  1.20100000E+01  1.00800000E+00
  1.00800000E+00  1.20100000E+01  1.00800000E+00  1.00800000E+00  1.00800000E+00
  1.20100000E+01  1.00800000E+00  1.20100000E+01  1.00800000E+00  1.00800000E+00
  1.20100000E+01  1.00800000E+00  1.00800000E+00  1.20100000E+01  1.00800000E+00
  1.00800000E+00  1.60000000E+01  1.60000000E+01  1.60000000E+01  1.60000000E+01
  1.60000000E+01  1.60000000E+01  1.20100000E+01  1.20100000E+01  1.20100000E+01
  1.20100000E+01  1.20100000E+01  1.20100000E+01  1.00800000E+00  1.00800000E+00
  1.00800000E+00  1.00800000E+00  1.00800000E+00  1.00800000E+00  1.00800000E+00
  1.00800000E+00  1.00800000E+00  1.00800000E+00  1.00800000E+00  1.00800000E+00
  1.00800000E+00  1.00800000E+00  1.00800000E+00  1.00800000E+00  1.00800000E+00
  1.00800000E+00  1.60000000E+01  1.20100000E+01  1.20100000E+01  1.20100000E+01
  1.20100000E+01  1.00800000E+00  1.00800000E+00  1.00800000E+00  1.20100000E+01
  1.00800000E+00  1.20100000E+01  1.00800000E+00  1.20100000E+01  1.00800000E+00
  1.00800000E+00  1.40100000E+01  1.20100000E+01  1.20100000E+01  1.20100000E+01
  1.20100000E+01  1.20100000E+01  1.20100000E+01  1.20100000E+01  1.00800000E+00
  1.20100000E+01  1.00800000E+00  1.20100000E+01  1.00800000E+00  1.20100000E+01
  1.00800000E+00  1.20100000E+01  1.20100000E+01  1.00800000E+00  1.20100000E+01
  1.00800000E+00  1.00800000E+00  1.20100000E+01  1.20100000E+01  1.20100000E+01
  1.20100000E+01  1.60000000E+01  1.20100000E+01  1.20100000E+01  1.20100000E+01
  1.20100000E+01  1.20100000E+01  1.20100000E+01  1.20100000E+01  1.20100000E+01
  1.00800000E+00  1.20100000E+01  1.00800000E+00  1.20100000E+01  1.00800000E+00
  1.20100000E+01  1.00800000E+00  1.20100000E+01  1.20100000E+01  1.00800000E+00
  1.00800000E+00  1.00800000E+00  1.00800000E+00  1.40100000E+01  1.40100000E+01
  1.20100000E+01  1.00800000E+00  1.40100000E+01  1.20100000E+01  1.00800000E+00
  1.20100000E+01  1.20100000E+01  1.20100000E+01  1.20100000E+01  1.00800000E+00
  1.20100000E+01  1.20100000E+01  1.00800000E+00  1.20100000E+01  1.20100000E+01
  1.20100000E+01  1.20100000E+01  1.20100000E+01  1.20100000E+01  1.20100000E+01
  1.20100000E+01  1.20100000E+01  1.20100000E+01  1.20100000E+01  1.20100000E+01
  1.20100000E+01  1.00800000E+00  1.20100000E+01  1.00800000E+00  1.00800000E+00
  1.20100000E+01  1.00800000E+00  1.20100000E+01  1.20100000E+01  1.00800000E+00
  1.20100000E+01  1.00800000E+00  1.20100000E+01  1.00800000E+00  1.20100000E+01
  1.00800000E+00  1.20100000E+01  1.00800000E+00  1.20100000E+01  1.00800000E+00
  1.20100000E+01  1.00800000E+00  1.20100000E+01  1.00800000E+00  1.20100000E+01
  1.00800000E+00  1.00800000E+00  1.20100000E+01  1.00800000E+00  1.00800000E+00
  1.00800000E+00  1.20100000E+01  1.00800000E+00  1.20100000E+01  1.00800000E+00
  1.00800000E+00  1.20100000E+01  1.00800000E+00  1.00800000E+00  1.20100000E+01
  1.00800000E+00  1.00800000E+00  1.60000000E+01  1.60000000E+01  1.60000000E+01
  1.60000000E+01  1.60000000E+01  1.60000000E+01  1.20100000E+01  1.20100000E+01
  1.20100000E+01  1.20100000E+01  1.20100000E+01  1.20100000E+01  1.00800000E+00
  1.00800000E+00  1.00800000E+00  1.00800000E+00  1.00800000E+00  1.00800000E+00
  1.00800000E+00  1.00800000E+00  1.00800000E+00  1.00800000E+00  1.00800000E+00
  1.00800000E+00  1.00800000E+00  1.00800000E+00  1.00800000E+00  1.00800000E+00
  1.00800000E+00  1.00800000E+00  1.60000000E+01  1.20100000E+01  1.20100000E+01
  1.20100000E+01  1.20100000E+01  1.00800000E+00  1.00800000E+00  1.00800000E+00
  1.20100000E+01  1.00800000E+00  1.20100000E+01  1.00800000E+00  1.20100000E+01
  1.00800000E+00  1.00800000E+00  1.40100000E+01  1.20100000E+01  1.20100000E+01
  1.20100000E+01  1.20100000E+01  1.20100000E+01  1.20100000E+01  1.20100000E+01
  1.00800000E+00  1.20100000E+01  1.00800000E+00  1.20100000E+01  1.00800000E+00
  1.20100000E+01  1.00800000E+00  1.20100000E+01  1.20100000E+01  1.00800000E+00
  1.20100000E+01  1.00800000E+00  1.00800000E+00  1.20100000E+01  1.20100000E+01
  1.20100000E+01  1.20100000E+01  1.60000000E+01  1.20100000E+01  1.20100000E+01
  1.20100000E+01  1.20100000E+01  1.20100000E+01  1.20100000E+01  1.20100000E+01
  1.20100000E+01  1.00800000E+00  1.20100000E+01  1.00800000E+00  1.20100000E+01
  1.00800000E+00  1.20100000E+01  1.00800000E+00  1.20100000E+01  1.20100000E+01
  1.00800000E+00  1.00800000E+00  1.00800000E+00  1.00800000E+00  1.40100000E+01
  1.40100000E+01  1.20100000E+01  1.00800000E+00  1.40100000E+01  1.20100000E+01
  1.00800000E+00  1.20100000E+01  1.20100000E+01  1.20100000E+01  1.20100000E+01
  1.00800000E+00  1.20100000E+01  1.20100000E+01  1.00800000E+00  1.20100000E+01
  1.20100000E+01  1.20100000E+01  1.20100000E+01  1.20100000E+01  1.20100000E+01
  1.20100000E+01  1.20100000E+01  1.20100000E+01  1.20100000E+01  1.20100000E+01
  1.20100000E+01  1.20100000E+01  1.00800000E+00  1.20100000E+01  1.00800000E+00
  1.00800000E+00  1.20100000E+01  1.00800000E+00  1.20100000E+01  1.20100000E+01
  1.00800000E+00  1.20100000E+01  1.00800000E+00  1.20100000E+01  1.00800000E+00
  1.20100000E+01  1.00800000E+00  1.20100000E+01  1.00800000E+00  1.20100000E+01
  1.00800000E+00  1.20100000E+01  1.00800000E+00  1.20100000E+01  1.00800000E+00
  1.20100000E+01  1.00800000E+00  1.00800000E+00  1.20100000E+01  1.00800000E+00
  1.00800000E+00  1.00800000E+00  1.20100000E+01  1.00800000E+00  1.20100000E+01
  1.00800000E+00  1.00800000E+00  1.20100000E+01  1.00800000E+00  1.00800000E+00
  1.20100000E+01  1.00800000E+00  1.00800000E+00  1.60000000E+01  1.60000000E+01
  1.60000000E+01  1.60000000E+01  1.60000000E+01  1.60000000E+01  1.20100000E+01
  1.20100000E+01  1.20100000E+01  1.20100000E+01  1.20100000E+01  1.20100000E+01
  1.00800000E+00  1.00800000E+00  1.00800000E+00  1.00800000E+00  1.00800000E+00
  1.00800000E+00  1.00800000E+00  1.00800000E+00  1.00800000E+00  1.00800000E+00
  1.00800000E+00  1.00800000E+00  1.00800000E+00  1.00800000E+00  1.00800000E+00
  1.00800000E+00  1.00800000E+00  1.00800000E+00  1.60000000E+01  1.20100000E+01
  1.20100000E+01  1.20100000E+01  1.20100000E+01  1.00800000E+00  1.00800000E+00
  1.00800000E+00  1.20100000E+01  1.00800000E+00  1.20100000E+01  1.00800000E+00
  1.20100000E+01  1.00800000E+00  1.00800000E+00  1.40100000E+01  1.20100000E+01
  1.20100000E+01  1.20100000E+01  1.20100000E+01  1.20100000E+01  1.20100000E+01
  1.20100000E+01  1.00800000E+00  1.20100000E+01  1.00800000E+00  1.20100000E+01
  1.00800000E+00  1.20100000E+01  1.00800000E+00  1.20100000E+01  1.20100000E+01
  1.00800000E+00  1.20100000E+01  1.00800000E+00  1.00800000E+00  1.20100000E+01
  1.20100000E+01  1.20100000E+01  1.20100000E+01  1.60000000E+01  1.20100000E+01
  1.20100000E+01  1.20100000E+01  1.20100000E+01  1.20100000E+01  1.20100000E+01
  1.20100000E+01  1.20100000E+01  1.00800000E+00  1.20100000E+01  1.00800000E+00
  1.20100000E+01  1.00800000E+00  1.20100000E+01  1.00800000E+00  1.20100000E+01
  1.20100000E+01  1.00800000E+00  1.00800000E+00  1.00800000E+00  1.00800000E+00
  1.40100000E+01  1.40100000E+01  1.20100000E+01  1.00800000E+00  1.40100000E+01
  1.20100000E+01  1.00800000E+00  1.20100000E+01  1.20100000E+01  1.20100000E+01
  1.20100000E+01  1.00800000E+00  1.20100000E+01  1.20100000E+01  1.00800000E+00
  1.20100000E+01  1.20100000E+01  1.20100000E+01  1.20100000E+01  1.20100000E+01
  1.20100000E+01  1.20100000E+01  1.20100000E+01  1.20100000E+01  1.20100000E+01
  1.20100000E+01  1.20100000E+01  1.20100000E+01  1.00800000E+00  1.20100000E+01
  1.00800000E+00  1.00800000E+00  1.20100000E+01  1.00800000E+00  1.20100000E+01
  1.20100000E+01  1.00800000E+00  1.20100000E+01  1.00800000E+00  1.20100000E+01
  1.00800000E+00  1.20100000E+01  1.00800000E+00  1.20100000E+01  1.00800000E+00
  1.20100000E+01  1.00800000E+00  1.20100000E+01  1.00800000E+00  1.20100000E+01
  1.00800000E+00  1.20100000E+01  1.00800000E+00  1.00800000E+00  1.20100000E+01
  1.00800000E+00  1.00800000E+00  1.00800000E+00  1.20100000E+01  1.00800000E+00
  1.20100000E+01  1.00800000E+00  1.00800000E+00  1.20100000E+01  1.00800000E+00
  1.00800000E+00  1.20100000E+01  1.00800000E+00  1.00800000E+00  1.60000000E+01
  1.60000000E+01  1.60000000E+01  1.60000000E+01  1.60000000E+01  1.60000000E+01
  1.20100000E+01  1.20100000E+01  1.20100000E+01  1.20100000E+01  1.20100000E+01
  1.20100000E+01  1.00800000E+00  1.00800000E+00  1.00800000E+00  1.00800000E+00
  1.00800000E+00  1.00800000E+00  1.00800000E+00  1.00800000E+00  1.00800000E+00
  1.00800000E+00  1.00800000E+00  1.00800000E+00  1.00800000E+00  1.00800000E+00
  1.00800000E+00  1.00800000E+00  1.00800000E+00  1.00800000E+00  1.60000000E+01
  1.20100000E+01  1.20100000E+01  1.20100000E+01  1.20100000E+01  1.00800000E+00
  1.00800000E+00  1.00800000E+00  1.20100000E+01  1.00800000E+00  1.20100000E+01
  1.00800000E+00  1.20100000E+01  1.00800000E+00  1.00800000E+00  1.40100000E+01
  1.20100000E+01  1.20100000E+01  1.20100000E+01  1.20100000E+01  1.20100000E+01
  1.20100000E+01  1.20100000E+01  1.00800000E+00  1.20100000E+01  1.00800000E+00
  1.20100000E+01  1.00800000E+00  1.20100000E+01  1.00800000E+00  1.20100000E+01
  1.20100000E+01  1.00800000E+00  1.20100000E+01  1.00800000E+00  1.00800000E+00
  1.20100000E+01  1.20100000E+01  1.20100000E+01  1.20100000E+01  1.60000000E+01
  1.20100000E+01  1.20100000E+01  1.20100000E+01  1.20100000E+01  1.20100000E+01
  1.20100000E+01  1.20100000E+01  1.20100000E+01  1.00800000E+00  1.20100000E+01
  1.00800000E+00  1.20100000E+01  1.00800000E+00  1.20100000E+01  1.00800000E+00
  1.20100000E+01  1.20100000E+01  1.00800000E+00  1.00800000E+00  1.00800000E+00
  1.00800000E+00  1.40100000E+01  1.40100000E+01  1.20100000E+01  1.00800000E+00
  1.40100000E+01  1.20100000E+01  1.00800000E+00  1.20100000E+01  1.20100000E+01
  1.20100000E+01  1.20100000E+01  1.00800000E+00  1.20100000E+01  1.20100000E+01
  1.00800000E+00  1.20100000E+01  1.20100000E+01  1.20100000E+01  1.20100000E+01
  1.20100000E+01  1.20100000E+01  1.20100000E+01  1.20100000E+01  1.20100000E+01
  1.20100000E+01  1.20100000E+01  1.20100000E+01  1.20100000E+01  1.00800000E+00
  1.20100000E+01  1.00800000E+00  1.00800000E+00  1.20100000E+01  1.00800000E+00
  1.20100000E+01  1.20100000E+01  1.00800000E+00  1.20100000E+01  1.00800000E+00
  1.20100000E+01  1.00800000E+00  1.20100000E+01  1.00800000E+00  1.20100000E+01
  1.00800000E+00  1.20100000E+01  1.00800000E+00  1.20100000E+01  1.00800000E+00
  1.20100000E+01  1.00800000E+00  1.20100000E+01  1.00800000E+00  1.00800000E+00
  1.20100000E+01  1.00800000E+00  1.00800000E+00  1.00800000E+00  1.20100000E+01
  1.00800000E+00  1.20100000E+01  1.00800000E+00  1.00800000E+00  1.20100000E+01
  1.00800000E+00  1.00800000E+00  1.20100000E+01  1.00800000E+00  1.00800000E+00
  1.60000000E+01  1.60000000E+01  1.60000000E+01  1.60000000E+01  1.60000000E+01
  1.60000000E+01  1.20100000E+01  1.20100000E+01  1.20100000E+01  1.20100000E+01
  1.20100000E+01  1.20100000E+01  1.00800000E+00  1.00800000E+00  1.00800000E+00
  1.00800000E+00  1.00800000E+00  1.00800000E+00  1.00800000E+00  1.00800000E+00
  1.00800000E+00  1.00800000E+00  1.00800000E+00  1.00800000E+00  1.00800000E+00
  1.00800000E+00  1.00800000E+00  1.00800000E+00  1.00800000E+00  1.00800000E+00
  1.60000000E+01  1.20100000E+01  1.20100000E+01  1.20100000E+01  1.20100000E+01
  1.00800000E+00  1.00800000E+00  1.00800000E+00  1.20100000E+01  1.00800000E+00
  1.20100000E+01  1.00800000E+00  1.20100000E+01  1.00800000E+00  1.00800000E+00
  1.40100000E+01  1.20100000E+01  1.20100000E+01  1.20100000E+01  1.20100000E+01
  1.20100000E+01  1.20100000E+01  1.20100000E+01  1.00800000E+00  1.20100000E+01
  1.00800000E+00  1.20100000E+01  1.00800000E+00  1.20100000E+01  1.00800000E+00
  1.20100000E+01  1.20100000E+01  1.00800000E+00  1.20100000E+01  1.00800000E+00
  1.00800000E+00  1.20100000E+01  1.20100000E+01  1.20100000E+01  1.20100000E+01
  1.60000000E+01  1.20100000E+01  1.20100000E+01  1.20100000E+01  1.20100000E+01
  1.20100000E+01  1.20100000E+01  1.20100000E+01  1.20100000E+01  1.00800000E+00
  1.20100000E+01  1.00800000E+00  1.20100000E+01  1.00800000E+00  1.20100000E+01
  1.00800000E+00  1.20100000E+01  1.20100000E+01  1.00800000E+00  1.00800000E+00
  1.00800000E+00  1.00800000E+00  1.40100000E+01  1.40100000E+01  1.20100000E+01
  1.00800000E+00  1.40100000E+01  1.20100000E+01  1.00800000E+00  1.20100000E+01
  1.20100000E+01  1.20100000E+01  1.20100000E+01  1.00800000E+00  1.20100000E+01
  1.20100000E+01  1.00800000E+00  1.20100000E+01  1.20100000E+01  1.20100000E+01
  1.20100000E+01  1.20100000E+01  1.20100000E+01  1.20100000E+01  1.20100000E+01
  1.20100000E+01  1.20100000E+01  1.20100000E+01  1.20100000E+01  1.20100000E+01
  1.00800000E+00  1.20100000E+01  1.00800000E+00  1.00800000E+00  1.20100000E+01
  1.00800000E+00  1.20100000E+01  1.20100000E+01  1.00800000E+00  1.20100000E+01
  1.00800000E+00  1.20100000E+01  1.00800000E+00  1.20100000E+01  1.00800000E+00
  1.20100000E+01  1.00800000E+00  1.20100000E+01  1.00800000E+00  1.20100000E+01
  1.00800000E+00  1.20100000E+01  1.00800000E+00  1.20100000E+01  1.00800000E+00
  1.00800000E+00  1.20100000E+01  1.00800000E+00  1.00800000E+00  1.00800000E+00
  1.20100000E+01  1.00800000E+00  1.20100000E+01  1.00800000E+00  1.00800000E+00
  1.20100000E+01  1.00800000E+00  1.00800000E+00  1.20100000E+01  1.00800000E+00
  1.00800000E+00  1.60000000E+01  1.60000000E+01  1.60000000E+01  1.60000000E+01
  1.60000000E+01  1.60000000E+01  1.20100000E+01  1.20100000E+01  1.20100000E+01
  1.20100000E+01  1.20100000E+01  1.20100000E+01  1.00800000E+00  1.00800000E+00
  1.00800000E+00  1.00800000E+00  1.00800000E+00  1.00800000E+00  1.00800000E+00
  1.00800000E+00  1.00800000E+00  1.00800000E+00  1.00800000E+00  1.00800000E+00
  1.00800000E+00  1.00800000E+00  1.00800000E+00  1.00800000E+00  1.00800000E+00
  1.00800000E+00  1.60000000E+01  1.20100000E+01  1.20100000E+01  1.20100000E+01
  1.20100000E+01  1.00800000E+00  1.00800000E+00  1.00800000E+00  1.20100000E+01
  1.00800000E+00  1.20100000E+01  1.00800000E+00  1.20100000E+01  1.00800000E+00
  1.00800000E+00  1.40100000E+01  1.20100000E+01  1.20100000E+01  1.20100000E+01
  1.20100000E+01  1.20100000E+01  1.20100000E+01  1.20100000E+01  1.00800000E+00
  1.20100000E+01  1.00800000E+00  1.20100000E+01  1.00800000E+00  1.20100000E+01
  1.00800000E+00  1.20100000E+01  1.20100000E+01  1.00800000E+00  1.20100000E+01
  1.00800000E+00  1.00800000E+00  1.20100000E+01  1.20100000E+01  1.20100000E+01
  1.20100000E+01  1.60000000E+01  1.20100000E+01  1.20100000E+01  1.20100000E+01
  1.20100000E+01  1.20100000E+01  1.20100000E+01  1.20100000E+01  1.20100000E+01
  1.00800000E+00  1.20100000E+01  1.00800000E+00  1.20100000E+01  1.00800000E+00
  1.20100000E+01  1.00800000E+00  1.20100000E+01  1.20100000E+01  1.00800000E+00
  1.00800000E+00  1.00800000E+00  1.00800000E+00  1.40100000E+01  1.40100000E+01
  1.20100000E+01  1.00800000E+00  1.40100000E+01  1.20100000E+01  1.00800000E+00
  1.20100000E+01  1.20100000E+01  1.20100000E+01  1.20100000E+01  1.00800000E+00
  1.20100000E+01  1.20100000E+01  1.00800000E+00  1.20100000E+01  1.20100000E+01
  1.20100000E+01  1.20100000E+01  1.20100000E+01  1.20100000E+01  1.20100000E+01
  1.20100000E+01  1.20100000E+01  1.20100000E+01  1.20100000E+01  1.20100000E+01
  1.20100000E+01  1.00800000E+00  1.20100000E+01  1.00800000E+00  1.00800000E+00
  1.20100000E+01  1.00800000E+00  1.20100000E+01  1.20100000E+01  1.00800000E+00
  1.20100000E+01  1.00800000E+00  1.20100000E+01  1.00800000E+00  1.20100000E+01
  1.00800000E+00  1.20100000E+01  1.00800000E+00  1.20100000E+01  1.00800000E+00
  1.20100000E+01  1.00800000E+00  1.20100000E+01  1.00800000E+00  1.20100000E+01
  1.00800000E+00  1.00800000E+00  1.20100000E+01  1.00800000E+00  1.00800000E+00
  1.00800000E+00  1.20100000E+01  1.00800000E+00  1.20100000E+01  1.00800000E+00
  1.00800000E+00  1.20100000E+01  1.00800000E+00  1.00800000E+00  1.20100000E+01
  1.00800000E+00  1.00800000E+00  1.60000000E+01  1.60000000E+01  1.60000000E+01
  1.60000000E+01  1.60000000E+01  1.60000000E+01  1.20100000E+01  1.20100000E+01
  1.20100000E+01  1.20100000E+01  1.20100000E+01  1.20100000E+01  1.00800000E+00
  1.00800000E+00  1.00800000E+00  1.00800000E+00  1.00800000E+00  1.00800000E+00
  1.00800000E+00  1.00800000E+00  1.00800000E+00  1.00800000E+00  1.00800000E+00
  1.00800000E+00  1.00800000E+00  1.00800000E+00  1.00800000E+00  1.00800000E+00
  1.00800000E+00  1.00800000E+00  1.60000000E+01  1.20100000E+01  1.20100000E+01
  1.20100000E+01  1.20100000E+01  1.00800000E+00  1.00800000E+00  1.00800000E+00
  1.20100000E+01  1.00800000E+00  1.20100000E+01  1.00800000E+00  1.20100000E+01
  1.00800000E+00  1.00800000E+00  1.40100000E+01  1.20100000E+01  1.20100000E+01
  1.20100000E+01  1.20100000E+01  1.20100000E+01  1.20100000E+01  1.20100000E+01
  1.00800000E+00  1.20100000E+01  1.00800000E+00  1.20100000E+01  1.00800000E+00
  1.20100000E+01  1.00800000E+00  1.20100000E+01  1.20100000E+01  1.00800000E+00
  1.20100000E+01  1.00800000E+00  1.00800000E+00  1.20100000E+01  1.20100000E+01
  1.20100000E+01  1.20100000E+01  1.60000000E+01  1.20100000E+01  1.20100000E+01
  1.20100000E+01  1.20100000E+01  1.20100000E+01  1.20100000E+01  1.20100000E+01
  1.20100000E+01  1.00800000E+00  1.20100000E+01  1.00800000E+00  1.20100000E+01
  1.00800000E+00  1.20100000E+01  1.00800000E+00  1.20100000E+01  1.20100000E+01
  1.00800000E+00  1.00800000E+00  1.00800000E+00  1.00800000E+00  1.40100000E+01
  1.40100000E+01  1.20100000E+01  1.00800000E+00  1.40100000E+01  1.20100000E+01
  1.00800000E+00  1.20100000E+01  1.20100000E+01  1.20100000E+01  1.20100000E+01
  1.00800000E+00  1.20100000E+01  1.20100000E+01  1.00800000E+00  1.20100000E+01
  1.20100000E+01  1.20100000E+01  1.20100000E+01  1.20100000E+01  1.20100000E+01
  1.20100000E+01  1.20100000E+01  1.20100000E+01  1.20100000E+01  1.20100000E+01
  1.20100000E+01  1.20100000E+01  1.00800000E+00  1.20100000E+01  1.00800000E+00
  1.00800000E+00  1.20100000E+01  1.00800000E+00  1.20100000E+01  1.20100000E+01
  1.00800000E+00  1.20100000E+01  1.00800000E+00  1.20100000E+01  1.00800000E+00
  1.20100000E+01  1.00800000E+00  1.20100000E+01  1.00800000E+00  1.20100000E+01
  1.00800000E+00  1.20100000E+01  1.00800000E+00  1.20100000E+01  1.00800000E+00
  1.20100000E+01  1.00800000E+00  1.00800000E+00  1.20100000E+01  1.00800000E+00
  1.00800000E+00  1.00800000E+00  1.20100000E+01  1.00800000E+00  1.20100000E+01
  1.00800000E+00  1.00800000E+00  1.20100000E+01  1.00800000E+00  1.00800000E+00
  1.20100000E+01  1.00800000E+00  1.00800000E+00  1.60000000E+01  1.60000000E+01
  1.60000000E+01  1.60000000E+01  1.60000000E+01  1.60000000E+01  1.20100000E+01
  1.20100000E+01  1.20100000E+01  1.20100000E+01  1.20100000E+01  1.20100000E+01
  1.00800000E+00  1.00800000E+00  1.00800000E+00  1.00800000E+00  1.00800000E+00
  1.00800000E+00  1.00800000E+00  1.00800000E+00  1.00800000E+00  1.00800000E+00
  1.00800000E+00  1.00800000E+00  1.00800000E+00  1.00800000E+00  1.00800000E+00
  1.00800000E+00  1.00800000E+00  1.00800000E+00  1.60000000E+01  1.20100000E+01
  1.20100000E+01  1.20100000E+01  1.20100000E+01  1.00800000E+00  1.00800000E+00
  1.00800000E+00  1.20100000E+01  1.00800000E+00  1.20100000E+01  1.00800000E+00
  1.20100000E+01  1.00800000E+00  1.00800000E+00  1.40100000E+01  1.20100000E+01
  1.20100000E+01  1.20100000E+01  1.20100000E+01  1.20100000E+01  1.20100000E+01
  1.20100000E+01  1.00800000E+00  1.20100000E+01  1.00800000E+00  1.20100000E+01
  1.00800000E+00  1.20100000E+01  1.00800000E+00  1.20100000E+01  1.20100000E+01
  1.00800000E+00  1.20100000E+01  1.00800000E+00  1.00800000E+00  1.20100000E+01
  1.20100000E+01  1.20100000E+01  1.20100000E+01  1.60000000E+01  1.20100000E+01
  1.20100000E+01  1.20100000E+01  1.20100000E+01  1.20100000E+01  1.20100000E+01
  1.20100000E+01  1.20100000E+01  1.00800000E+00  1.20100000E+01  1.00800000E+00
  1.20100000E+01  1.00800000E+00  1.20100000E+01  1.00800000E+00  1.20100000E+01
  1.20100000E+01  1.00800000E+00  1.00800000E+00  1.00800000E+00  1.00800000E+00
  1.40100000E+01  1.40100000E+01  1.20100000E+01  1.00800000E+00  1.40100000E+01
  1.20100000E+01  1.00800000E+00  1.20100000E+01  1.20100000E+01  1.20100000E+01
  1.20100000E+01  1.00800000E+00  1.20100000E+01  1.20100000E+01  1.00800000E+00
  1.20100000E+01  1.20100000E+01  1.20100000E+01  1.20100000E+01  1.20100000E+01
  1.20100000E+01  1.20100000E+01  1.20100000E+01  1.20100000E+01  1.20100000E+01
  1.20100000E+01  1.20100000E+01  1.20100000E+01  1.00800000E+00  1.20100000E+01
  1.00800000E+00  1.00800000E+00  1.20100000E+01  1.00800000E+00  1.20100000E+01
  1.20100000E+01  1.00800000E+00  1.20100000E+01  1.00800000E+00  1.20100000E+01
  1.00800000E+00  1.20100000E+01  1.00800000E+00  1.20100000E+01  1.00800000E+00
  1.20100000E+01  1.00800000E+00  1.20100000E+01  1.00800000E+00  1.20100000E+01
  1.00800000E+00  1.20100000E+01  1.00800000E+00  1.00800000E+00  1.20100000E+01
  1.00800000E+00  1.00800000E+00  1.00800000E+00  1.20100000E+01  1.00800000E+00
  1.20100000E+01  1.00800000E+00  1.00800000E+00  1.20100000E+01  1.00800000E+00
  1.00800000E+00  1.20100000E+01  1.00800000E+00  1.00800000E+00  1.60000000E+01
  1.60000000E+01  1.60000000E+01  1.60000000E+01  1.60000000E+01  1.60000000E+01
  1.20100000E+01  1.20100000E+01  1.20100000E+01  1.20100000E+01  1.20100000E+01
  1.20100000E+01  1.00800000E+00  1.00800000E+00  1.00800000E+00  1.00800000E+00
  1.00800000E+00  1.00800000E+00  1.00800000E+00  1.00800000E+00  1.00800000E+00
  1.00800000E+00  1.00800000E+00  1.00800000E+00  1.00800000E+00  1.00800000E+00
  1.00800000E+00  1.00800000E+00  1.00800000E+00  1.00800000E+00  1.60000000E+01
  1.20100000E+01  1.20100000E+01  1.20100000E+01  1.20100000E+01  1.00800000E+00
  1.00800000E+00  1.00800000E+00  1.20100000E+01  1.00800000E+00  1.20100000E+01
  1.00800000E+00  1.20100000E+01  1.00800000E+00  1.00800000E+00  1.40100000E+01
  1.20100000E+01  1.20100000E+01  1.20100000E+01  1.20100000E+01  1.20100000E+01
  1.20100000E+01  1.20100000E+01  1.00800000E+00  1.20100000E+01  1.00800000E+00
  1.20100000E+01  1.00800000E+00  1.20100000E+01  1.00800000E+00  1.20100000E+01
  1.20100000E+01  1.00800000E+00  1.20100000E+01  1.00800000E+00  1.00800000E+00
  1.20100000E+01  1.20100000E+01  1.20100000E+01  1.20100000E+01  1.60000000E+01
  1.20100000E+01  1.20100000E+01  1.20100000E+01  1.20100000E+01  1.20100000E+01
  1.20100000E+01  1.20100000E+01  1.20100000E+01  1.00800000E+00  1.20100000E+01
  1.00800000E+00  1.20100000E+01  1.00800000E+00  1.20100000E+01  1.00800000E+00
  1.20100000E+01  1.20100000E+01  1.00800000E+00  1.00800000E+00  1.00800000E+00
  1.00800000E+00  1.40100000E+01  1.40100000E+01  1.20100000E+01  1.00800000E+00
  1.40100000E+01  1.20100000E+01  1.00800000E+00  1.20100000E+01  1.20100000E+01
  1.20100000E+01  1.20100000E+01  1.00800000E+00  1.20100000E+01  1.20100000E+01
  1.00800000E+00  1.20100000E+01  1.20100000E+01  1.20100000E+01  1.20100000E+01
  1.20100000E+01  1.20100000E+01  1.20100000E+01  1.20100000E+01  1.20100000E+01
  1.20100000E+01  1.20100000E+01  1.20100000E+01  1.20100000E+01  1.00800000E+00
  1.20100000E+01  1.00800000E+00  1.00800000E+00  1.20100000E+01  1.00800000E+00
  1.20100000E+01  1.20100000E+01  1.00800000E+00  1.20100000E+01  1.00800000E+00
  1.20100000E+01  1.00800000E+00  1.20100000E+01  1.00800000E+00  1.20100000E+01
  1.00800000E+00  1.20100000E+01  1.00800000E+00  1.20100000E+01  1.00800000E+00
  1.20100000E+01  1.00800000E+00  1.20100000E+01  1.00800000E+00  1.00800000E+00
  1.20100000E+01  1.00800000E+00  1.00800000E+00  1.00800000E+00  1.20100000E+01
  1.00800000E+00  1.20100000E+01  1.00800000E+00  1.00800000E+00  1.20100000E+01
  1.00800000E+00  1.00800000E+00  1.20100000E+01  1.00800000E+00  1.00800000E+00
  1.60000000E+01  1.60000000E+01  1.60000000E+01  1.60000000E+01  1.60000000E+01
  1.60000000E+01  1.20100000E+01  1.20100000E+01  1.20100000E+01  1.20100000E+01
  1.20100000E+01  1.20100000E+01  1.00800000E+00  1.00800000E+00  1.00800000E+00
  1.00800000E+00  1.00800000E+00  1.00800000E+00  1.00800000E+00  1.00800000E+00
  1.00800000E+00  1.00800000E+00  1.00800000E+00  1.00800000E+00  1.00800000E+00
  1.00800000E+00  1.00800000E+00  1.00800000E+00  1.00800000E+00  1.00800000E+00
  1.60000000E+01  1.20100000E+01  1.20100000E+01  1.20100000E+01  1.20100000E+01
  1.00800000E+00  1.00800000E+00  1.00800000E+00  1.20100000E+01  1.00800000E+00
  1.20100000E+01  1.00800000E+00  1.20100000E+01  1.00800000E+00  1.00800000E+00
  1.40100000E+01  1.20100000E+01  1.20100000E+01  1.20100000E+01  1.20100000E+01
  1.20100000E+01  1.20100000E+01  1.20100000E+01  1.00800000E+00  1.20100000E+01
  1.00800000E+00  1.20100000E+01  1.00800000E+00  1.20100000E+01  1.00800000E+00
  1.20100000E+01  1.20100000E+01  1.00800000E+00  1.20100000E+01  1.00800000E+00
  1.00800000E+00  1.20100000E+01  1.20100000E+01  1.20100000E+01  1.20100000E+01
  1.60000000E+01  1.20100000E+01  1.20100000E+01  1.20100000E+01  1.20100000E+01
  1.20100000E+01  1.20100000E+01  1.20100000E+01  1.20100000E+01  1.00800000E+00
  1.20100000E+01  1.00800000E+00  1.20100000E+01  1.00800000E+00  1.20100000E+01
  1.00800000E+00  1.20100000E+01  1.20100000E+01  1.00800000E+00  1.00800000E+00
  1.00800000E+00  1.00800000E+00  1.40100000E+01  1.40100000E+01  1.20100000E+01
  1.00800000E+00  1.40100000E+01  1.20100000E+01  1.00800000E+00  1.20100000E+01
  1.20100000E+01  1.20100000E+01  1.20100000E+01  1.00800000E+00  1.20100000E+01
  1.20100000E+01  1.00800000E+00  1.20100000E+01  1.20100000E+01  1.20100000E+01
  1.20100000E+01  1.20100000E+01  1.20100000E+01  1.20100000E+01  1.20100000E+01
  1.20100000E+01  1.20100000E+01  1.20100000E+01  1.20100000E+01  1.20100000E+01
  1.00800000E+00  1.20100000E+01  1.00800000E+00  1.00800000E+00  1.20100000E+01
  1.00800000E+00  1.20100000E+01  1.20100000E+01  1.00800000E+00  1.20100000E+01
  1.00800000E+00  1.20100000E+01  1.00800000E+00  1.20100000E+01  1.00800000E+00
  1.20100000E+01  1.00800000E+00  1.20100000E+01  1.00800000E+00  1.20100000E+01
  1.00800000E+00  1.20100000E+01  1.00800000E+00  1.20100000E+01  1.00800000E+00
  1.00800000E+00  1.20100000E+01  1.00800000E+00  1.00800000E+00  1.00800000E+00
  1.20100000E+01  1.00800000E+00  1.20100000E+01  1.00800000E+00  1.00800000E+00
  1.20100000E+01  1.00800000E+00  1.00800000E+00  1.20100000E+01  1.00800000E+00
  1.00800000E+00  1.60000000E+01  1.60000000E+01  1.60000000E+01  1.60000000E+01
  1.60000000E+01  1.60000000E+01  1.20100000E+01  1.20100000E+01  1.20100000E+01
  1.20100000E+01  1.20100000E+01  1.20100000E+01  1.00800000E+00  1.00800000E+00
  1.00800000E+00  1.00800000E+00  1.00800000E+00  1.00800000E+00  1.00800000E+00
  1.00800000E+00  1.00800000E+00  1.00800000E+00  1.00800000E+00  1.00800000E+00
  1.00800000E+00  1.00800000E+00  1.00800000E+00  1.00800000E+00  1.00800000E+00
  1.00800000E+00  1.60000000E+01  1.20100000E+01  1.20100000E+01  1.20100000E+01
  1.20100000E+01  1.00800000E+00  1.00800000E+00  1.00800000E+00  1.20100000E+01
  1.00800000E+00  1.20100000E+01  1.00800000E+00  1.20100000E+01  1.00800000E+00
  1.00800000E+00  1.40100000E+01  1.20100000E+01  1.20100000E+01  1.20100000E+01
  1.20100000E+01  1.20100000E+01  1.20100000E+01  1.20100000E+01  1.00800000E+00
  1.20100000E+01  1.00800000E+00  1.20100000E+01  1.00800000E+00  1.20100000E+01
  1.00800000E+00  1.20100000E+01  1.20100000E+01  1.00800000E+00  1.20100000E+01
  1.00800000E+00  1.00800000E+00  1.20100000E+01  1.20100000E+01  1.20100000E+01
  1.20100000E+01  1.60000000E+01  1.20100000E+01  1.20100000E+01  1.20100000E+01
  1.20100000E+01  1.20100000E+01  1.20100000E+01  1.20100000E+01  1.20100000E+01
  1.00800000E+00  1.20100000E+01  1.00800000E+00  1.20100000E+01  1.00800000E+00
  1.20100000E+01  1.00800000E+00  1.20100000E+01  1.20100000E+01  1.00800000E+00
  1.00800000E+00  1.00800000E+00  1.00800000E+00  1.40100000E+01  1.40100000E+01
  1.20100000E+01  1.00800000E+00  1.40100000E+01  1.20100000E+01  1.00800000E+00
  1.20100000E+01  1.20100000E+01  1.20100000E+01  1.20100000E+01  1.00800000E+00
  1.20100000E+01  1.20100000E+01  1.00800000E+00  1.20100000E+01  1.20100000E+01
  1.20100000E+01  1.20100000E+01  1.20100000E+01  1.20100000E+01  1.20100000E+01
  1.20100000E+01  1.20100000E+01  1.20100000E+01  1.20100000E+01  1.20100000E+01
  1.20100000E+01  1.00800000E+00  1.20100000E+01  1.00800000E+00  1.00800000E+00
  1.20100000E+01  1.00800000E+00  1.20100000E+01  1.20100000E+01  1.00800000E+00
  1.20100000E+01  1.00800000E+00  1.20100000E+01  1.00800000E+00  1.20100000E+01
  1.00800000E+00  1.20100000E+01  1.00800000E+00  1.20100000E+01  1.00800000E+00
  1.20100000E+01  1.00800000E+00  1.20100000E+01  1.00800000E+00  1.20100000E+01
  1.00800000E+00  1.00800000E+00  1.20100000E+01  1.00800000E+00  1.00800000E+00
  1.00800000E+00  1.20100000E+01  1.00800000E+00  1.20100000E+01  1.00800000E+00
  1.00800000E+00  1.20100000E+01  1.00800000E+00  1.00800000E+00  1.20100000E+01
  1.00800000E+00  1.00800000E+00  1.60000000E+01  1.60000000E+01  1.60000000E+01
  1.60000000E+01  1.60000000E+01  1.60000000E+01  1.20100000E+01  1.20100000E+01
  1.20100000E+01  1.20100000E+01  1.20100000E+01  1.20100000E+01  1.00800000E+00
  1.00800000E+00  1.00800000E+00  1.00800000E+00  1.00800000E+00  1.00800000E+00
  1.00800000E+00  1.00800000E+00  1.00800000E+00  1.00800000E+00  1.00800000E+00
  1.00800000E+00  1.00800000E+00  1.00800000E+00  1.00800000E+00  1.00800000E+00
  1.00800000E+00  1.00800000E+00  1.60000000E+01  1.20100000E+01  1.20100000E+01
  1.20100000E+01  1.20100000E+01  1.00800000E+00  1.00800000E+00  1.00800000E+00
  1.20100000E+01  1.00800000E+00  1.20100000E+01  1.00800000E+00  1.20100000E+01
  1.00800000E+00  1.00800000E+00  1.40100000E+01  1.20100000E+01  1.20100000E+01
  1.20100000E+01  1.20100000E+01  1.20100000E+01  1.20100000E+01  1.20100000E+01
  1.00800000E+00  1.20100000E+01  1.00800000E+00  1.20100000E+01  1.00800000E+00
  1.20100000E+01  1.00800000E+00  1.20100000E+01  1.20100000E+01  1.00800000E+00
  1.20100000E+01  1.00800000E+00  1.00800000E+00  1.20100000E+01  1.20100000E+01
  1.20100000E+01  1.20100000E+01  1.60000000E+01  1.20100000E+01  1.20100000E+01
  1.20100000E+01  1.20100000E+01  1.20100000E+01  1.20100000E+01  1.20100000E+01
  1.20100000E+01  1.00800000E+00  1.20100000E+01  1.00800000E+00  1.20100000E+01
  1.00800000E+00  1.20100000E+01  1.00800000E+00  1.20100000E+01  1.20100000E+01
  1.00800000E+00  1.00800000E+00  1.00800000E+00  1.00800000E+00  1.40100000E+01
  1.40100000E+01  1.20100000E+01  1.00800000E+00  1.40100000E+01  1.20100000E+01
  1.00800000E+00  1.20100000E+01  1.20100000E+01  1.20100000E+01  1.20100000E+01
  1.00800000E+00  1.20100000E+01  1.20100000E+01  1.00800000E+00  1.20100000E+01
  1.20100000E+01  1.20100000E+01  1.20100000E+01  1.20100000E+01  1.20100000E+01
  1.20100000E+01  1.20100000E+01  1.20100000E+01  1.20100000E+01  1.20100000E+01
  1.20100000E+01  1.20100000E+01  1.00800000E+00  1.20100000E+01  1.00800000E+00
  1.00800000E+00  1.20100000E+01  1.00800000E+00  1.20100000E+01  1.20100000E+01
  1.00800000E+00  1.20100000E+01  1.00800000E+00  1.20100000E+01  1.00800000E+00
  1.20100000E+01  1.00800000E+00  1.20100000E+01  1.00800000E+00  1.20100000E+01
  1.00800000E+00  1.20100000E+01  1.00800000E+00  1.20100000E+01  1.00800000E+00
  1.20100000E+01  1.00800000E+00  1.00800000E+00  1.20100000E+01  1.00800000E+00
  1.00800000E+00  1.00800000E+00  1.20100000E+01  1.00800000E+00  1.20100000E+01
  1.00800000E+00  1.00800000E+00  1.20100000E+01  1.00800000E+00  1.00800000E+00
  1.20100000E+01  1.00800000E+00  1.00800000E+00  1.60000000E+01  1.60000000E+01
  1.60000000E+01  1.60000000E+01  1.60000000E+01  1.60000000E+01  1.20100000E+01
  1.20100000E+01  1.20100000E+01  1.20100000E+01  1.20100000E+01  1.20100000E+01
  1.00800000E+00  1.00800000E+00  1.00800000E+00  1.00800000E+00  1.00800000E+00
  1.00800000E+00  1.00800000E+00  1.00800000E+00  1.00800000E+00  1.00800000E+00
  1.00800000E+00  1.00800000E+00  1.00800000E+00  1.00800000E+00  1.00800000E+00
  1.00800000E+00  1.00800000E+00  1.00800000E+00  1.60000000E+01  1.20100000E+01
  1.20100000E+01  1.20100000E+01  1.20100000E+01  1.00800000E+00  1.00800000E+00
  1.00800000E+00  1.20100000E+01  1.00800000E+00  1.20100000E+01  1.00800000E+00
  1.20100000E+01  1.00800000E+00  1.00800000E+00  1.40100000E+01  1.20100000E+01
  1.20100000E+01  1.20100000E+01  1.20100000E+01  1.20100000E+01  1.20100000E+01
  1.20100000E+01  1.00800000E+00  1.20100000E+01  1.00800000E+00  1.20100000E+01
  1.00800000E+00  1.20100000E+01  1.00800000E+00  1.20100000E+01  1.20100000E+01
  1.00800000E+00  1.20100000E+01  1.00800000E+00  1.00800000E+00  1.20100000E+01
  1.20100000E+01  1.20100000E+01  1.20100000E+01  1.60000000E+01  1.20100000E+01
  1.20100000E+01  1.20100000E+01  1.20100000E+01  1.20100000E+01  1.20100000E+01
  1.20100000E+01  1.20100000E+01  1.00800000E+00  1.20100000E+01  1.00800000E+00
  1.20100000E+01  1.00800000E+00  1.20100000E+01  1.00800000E+00  1.20100000E+01
  1.20100000E+01  1.00800000E+00  1.00800000E+00  1.00800000E+00  1.00800000E+00
  1.40100000E+01  1.40100000E+01  1.20100000E+01  1.00800000E+00  1.40100000E+01
  1.20100000E+01  1.00800000E+00  1.20100000E+01  1.20100000E+01  1.20100000E+01
  1.20100000E+01  1.00800000E+00  1.20100000E+01  1.20100000E+01  1.00800000E+00
  1.20100000E+01  1.20100000E+01  1.20100000E+01  1.20100000E+01  1.20100000E+01
  1.20100000E+01  1.20100000E+01  1.20100000E+01  1.20100000E+01  1.20100000E+01
  1.20100000E+01  1.20100000E+01  1.20100000E+01  1.00800000E+00  1.20100000E+01
  1.00800000E+00  1.00800000E+00  1.20100000E+01  1.00800000E+00  1.20100000E+01
  1.20100000E+01  1.00800000E+00  1.20100000E+01  1.00800000E+00  1.20100000E+01
  1.00800000E+00  1.20100000E+01  1.00800000E+00  1.20100000E+01  1.00800000E+00
  1.20100000E+01  1.00800000E+00  1.20100000E+01  1.00800000E+00  1.20100000E+01
  1.00800000E+00  1.20100000E+01  1.00800000E+00  1.00800000E+00  1.20100000E+01
  1.00800000E+00  1.00800000E+00  1.00800000E+00  1.20100000E+01  1.00800000E+00
  1.20100000E+01  1.00800000E+00  1.00800000E+00  1.20100000E+01  1.00800000E+00
  1.00800000E+00  1.20100000E+01  1.00800000E+00  1.00800000E+00  1.60000000E+01
  1.60000000E+01  1.60000000E+01  1.60000000E+01  1.60000000E+01  1.60000000E+01
  1.20100000E+01  1.20100000E+01  1.20100000E+01  1.20100000E+01  1.20100000E+01
  1.20100000E+01  1.00800000E+00  1.00800000E+00  1.00800000E+00  1.00800000E+00
  1.00800000E+00  1.00800000E+00  1.00800000E+00  1.00800000E+00  1.00800000E+00
  1.00800000E+00  1.00800000E+00  1.00800000E+00  1.00800000E+00  1.00800000E+00
  1.00800000E+00  1.00800000E+00  1.00800000E+00  1.00800000E+00  1.60000000E+01
  1.20100000E+01  1.20100000E+01  1.20100000E+01  1.20100000E+01  1.00800000E+00
  1.00800000E+00  1.00800000E+00  1.20100000E+01  1.00800000E+00  1.20100000E+01
  1.00800000E+00  1.20100000E+01  1.00800000E+00  1.00800000E+00  1.40100000E+01
  1.20100000E+01  1.20100000E+01  1.20100000E+01  1.20100000E+01  1.20100000E+01
  1.20100000E+01  1.20100000E+01  1.00800000E+00  1.20100000E+01  1.00800000E+00
  1.20100000E+01  1.00800000E+00  1.20100000E+01  1.00800000E+00  1.20100000E+01
  1.20100000E+01  1.00800000E+00  1.20100000E+01  1.00800000E+00  1.00800000E+00
  1.20100000E+01  1.20100000E+01  1.20100000E+01  1.20100000E+01  1.60000000E+01
  1.20100000E+01  1.20100000E+01  1.20100000E+01  1.20100000E+01  1.20100000E+01
  1.20100000E+01  1.20100000E+01  1.20100000E+01  1.00800000E+00  1.20100000E+01
  1.00800000E+00  1.20100000E+01  1.00800000E+00  1.20100000E+01  1.00800000E+00
  1.20100000E+01  1.20100000E+01  1.00800000E+00  1.00800000E+00  1.00800000E+00
  1.00800000E+00  1.40100000E+01  1.40100000E+01  1.20100000E+01  1.00800000E+00
  1.40100000E+01  1.20100000E+01  1.00800000E+00  1.20100000E+01  1.20100000E+01
  1.20100000E+01  1.20100000E+01  1.00800000E+00  1.20100000E+01  1.20100000E+01
  1.00800000E+00  1.20100000E+01  1.20100000E+01  1.20100000E+01  1.20100000E+01
  1.20100000E+01  1.20100000E+01  1.20100000E+01  1.20100000E+01  1.20100000E+01
  1.20100000E+01  1.20100000E+01  1.20100000E+01  1.20100000E+01  1.00800000E+00
  1.20100000E+01  1.00800000E+00  1.00800000E+00  1.20100000E+01  1.00800000E+00
  1.20100000E+01  1.20100000E+01  1.00800000E+00  1.20100000E+01  1.00800000E+00
  1.20100000E+01  1.00800000E+00  1.20100000E+01  1.00800000E+00  1.20100000E+01
  1.00800000E+00  1.20100000E+01  1.00800000E+00  1.20100000E+01  1.00800000E+00
  1.20100000E+01  1.00800000E+00  1.20100000E+01  1.00800000E+00  1.00800000E+00
  1.20100000E+01  1.00800000E+00  1.00800000E+00  1.00800000E+00  1.20100000E+01
  1.00800000E+00  1.20100000E+01  1.00800000E+00  1.00800000E+00  1.20100000E+01
  1.00800000E+00  1.00800000E+00  1.20100000E+01  1.00800000E+00  1.00800000E+00
  1.60000000E+01  1.60000000E+01  1.60000000E+01  1.60000000E+01  1.60000000E+01
  1.60000000E+01  1.20100000E+01  1.20100000E+01  1.20100000E+01  1.20100000E+01
  1.20100000E+01  1.20100000E+01  1.00800000E+00  1.00800000E+00  1.00800000E+00
  1.00800000E+00  1.00800000E+00  1.00800000E+00  1.00800000E+00  1.00800000E+00
  1.00800000E+00  1.00800000E+00  1.00800000E+00  1.00800000E+00  1.00800000E+00
  1.00800000E+00  1.00800000E+00  1.00800000E+00  1.00800000E+00  1.00800000E+00
  1.60000000E+01  1.20100000E+01  1.20100000E+01  1.20100000E+01  1.20100000E+01
  1.00800000E+00  1.00800000E+00  1.00800000E+00  1.20100000E+01  1.00800000E+00
  1.20100000E+01  1.00800000E+00  1.20100000E+01  1.00800000E+00  1.00800000E+00
  1.40100000E+01  1.20100000E+01  1.20100000E+01  1.20100000E+01  1.20100000E+01
  1.20100000E+01  1.20100000E+01  1.20100000E+01  1.00800000E+00  1.20100000E+01
  1.00800000E+00  1.20100000E+01  1.00800000E+00  1.20100000E+01  1.00800000E+00
  1.20100000E+01  1.20100000E+01  1.00800000E+00  1.20100000E+01  1.00800000E+00
  1.00800000E+00  1.20100000E+01  1.20100000E+01  1.20100000E+01  1.20100000E+01
  1.60000000E+01  1.20100000E+01  1.20100000E+01  1.20100000E+01  1.20100000E+01
  1.20100000E+01  1.20100000E+01  1.20100000E+01  1.20100000E+01  1.00800000E+00
  1.20100000E+01  1.00800000E+00  1.20100000E+01  1.00800000E+00  1.20100000E+01
  1.00800000E+00  1.20100000E+01  1.20100000E+01  1.00800000E+00  1.00800000E+00
  1.00800000E+00  1.00800000E+00  1.40100000E+01  1.40100000E+01  1.20100000E+01
  1.00800000E+00  1.40100000E+01  1.20100000E+01  1.00800000E+00  1.20100000E+01
  1.20100000E+01  1.20100000E+01  1.20100000E+01  1.00800000E+00  1.20100000E+01
  1.20100000E+01  1.00800000E+00  1.20100000E+01  1.20100000E+01  1.20100000E+01
  1.20100000E+01  1.20100000E+01  1.20100000E+01  1.20100000E+01  1.20100000E+01
  1.20100000E+01  1.20100000E+01  1.20100000E+01  1.20100000E+01  1.20100000E+01
  1.00800000E+00  1.20100000E+01  1.00800000E+00  1.00800000E+00  1.20100000E+01
  1.00800000E+00  1.20100000E+01  1.20100000E+01  1.00800000E+00  1.20100000E+01
  1.00800000E+00  1.20100000E+01  1.00800000E+00  1.20100000E+01  1.00800000E+00
  1.20100000E+01  1.00800000E+00  1.20100000E+01  1.00800000E+00  1.20100000E+01
  1.00800000E+00  1.20100000E+01  1.00800000E+00  1.20100000E+01  1.00800000E+00
  1.00800000E+00  1.20100000E+01  1.00800000E+00  1.00800000E+00  1.00800000E+00
  1.20100000E+01  1.00800000E+00  1.20100000E+01  1.00800000E+00  1.00800000E+00
  1.20100000E+01  1.00800000E+00  1.00800000E+00  1.20100000E+01  1.00800000E+00
  1.00800000E+00  1.60000000E+01  1.60000000E+01  1.60000000E+01  1.60000000E+01
  1.60000000E+01  1.60000000E+01  1.20100000E+01  1.20100000E+01  1.20100000E+01
  1.20100000E+01  1.20100000E+01  1.20100000E+01  1.00800000E+00  1.00800000E+00
  1.00800000E+00  1.00800000E+00  1.00800000E+00  1.00800000E+00  1.00800000E+00
  1.00800000E+00  1.00800000E+00  1.00800000E+00  1.00800000E+00  1.00800000E+00
  1.00800000E+00  1.00800000E+00  1.00800000E+00  1.00800000E+00  1.00800000E+00
  1.00800000E+00  1.60000000E+01  1.20100000E+01  1.20100000E+01  1.20100000E+01
  1.20100000E+01  1.00800000E+00  1.00800000E+00  1.00800000E+00  1.20100000E+01
  1.00800000E+00  1.20100000E+01  1.00800000E+00  1.20100000E+01  1.00800000E+00
  1.00800000E+00  1.40100000E+01  1.20100000E+01  1.20100000E+01  1.20100000E+01
  1.20100000E+01  1.20100000E+01  1.20100000E+01  1.20100000E+01  1.00800000E+00
  1.20100000E+01  1.00800000E+00  1.20100000E+01  1.00800000E+00  1.20100000E+01
  1.00800000E+00  1.20100000E+01  1.20100000E+01  1.00800000E+00  1.20100000E+01
  1.00800000E+00  1.00800000E+00  1.20100000E+01  1.20100000E+01  1.20100000E+01
  1.20100000E+01  1.60000000E+01  1.20100000E+01  1.20100000E+01  1.20100000E+01
  1.20100000E+01  1.20100000E+01  1.20100000E+01  1.20100000E+01  1.20100000E+01
  1.00800000E+00  1.20100000E+01  1.00800000E+00  1.20100000E+01  1.00800000E+00
  1.20100000E+01  1.00800000E+00  1.20100000E+01  1.20100000E+01  1.00800000E+00
  1.00800000E+00  1.00800000E+00  1.00800000E+00  1.40100000E+01  1.40100000E+01
  1.20100000E+01  1.00800000E+00  1.40100000E+01  1.20100000E+01  1.00800000E+00
  1.20100000E+01  1.20100000E+01  1.20100000E+01  1.20100000E+01  1.00800000E+00
  1.20100000E+01  1.20100000E+01  1.00800000E+00  1.20100000E+01  1.20100000E+01
  1.20100000E+01  1.20100000E+01  1.20100000E+01  1.20100000E+01  1.20100000E+01
  1.20100000E+01  1.20100000E+01  1.20100000E+01  1.20100000E+01  1.20100000E+01
  1.20100000E+01  1.00800000E+00  1.20100000E+01  1.00800000E+00  1.00800000E+00
  1.20100000E+01  1.00800000E+00  1.20100000E+01  1.20100000E+01  1.00800000E+00
  1.20100000E+01  1.00800000E+00  1.20100000E+01  1.00800000E+00  1.20100000E+01
  1.00800000E+00  1.20100000E+01  1.00800000E+00  1.20100000E+01  1.00800000E+00
  1.20100000E+01  1.00800000E+00  1.20100000E+01  1.00800000E+00  1.20100000E+01
  1.00800000E+00  1.00800000E+00  1.20100000E+01  1.00800000E+00  1.00800000E+00
  1.00800000E+00  1.20100000E+01  1.00800000E+00  1.20100000E+01  1.00800000E+00
  1.00800000E+00  1.20100000E+01  1.00800000E+00  1.00800000E+00  1.20100000E+01
  1.00800000E+00  1.00800000E+00  1.60000000E+01  1.60000000E+01  1.60000000E+01
  1.60000000E+01  1.60000000E+01  1.60000000E+01  1.20100000E+01  1.20100000E+01
  1.20100000E+01  1.20100000E+01  1.20100000E+01  1.20100000E+01  1.00800000E+00
  1.00800000E+00  1.00800000E+00  1.00800000E+00  1.00800000E+00  1.00800000E+00
  1.00800000E+00  1.00800000E+00  1.00800000E+00  1.00800000E+00  1.00800000E+00
  1.00800000E+00  1.00800000E+00  1.00800000E+00  1.00800000E+00  1.00800000E+00
  1.00800000E+00  1.00800000E+00  1.60000000E+01  1.20100000E+01  1.20100000E+01
  1.20100000E+01  1.20100000E+01  1.00800000E+00  1.00800000E+00  1.00800000E+00
  1.20100000E+01  1.00800000E+00  1.20100000E+01  1.00800000E+00  1.20100000E+01
  1.00800000E+00  1.00800000E+00  1.40100000E+01  1.20100000E+01  1.20100000E+01
  1.20100000E+01  1.20100000E+01  1.20100000E+01  1.20100000E+01  1.20100000E+01
  1.00800000E+00  1.20100000E+01  1.00800000E+00  1.20100000E+01  1.00800000E+00
  1.20100000E+01  1.00800000E+00  1.20100000E+01  1.20100000E+01  1.00800000E+00
  1.20100000E+01  1.00800000E+00  1.00800000E+00  1.20100000E+01  1.20100000E+01
  1.20100000E+01  1.20100000E+01  1.60000000E+01  1.20100000E+01  1.20100000E+01
  1.20100000E+01  1.20100000E+01  1.20100000E+01  1.20100000E+01  1.20100000E+01
  1.20100000E+01  1.00800000E+00  1.20100000E+01  1.00800000E+00  1.20100000E+01
  1.00800000E+00  1.20100000E+01  1.00800000E+00  1.20100000E+01  1.20100000E+01
  1.00800000E+00  1.00800000E+00  1.00800000E+00  1.00800000E+00  1.40100000E+01
  1.40100000E+01  1.20100000E+01  1.00800000E+00  1.40100000E+01  1.20100000E+01
  1.00800000E+00  1.20100000E+01  1.20100000E+01  1.20100000E+01  1.20100000E+01
  1.00800000E+00  1.20100000E+01  1.20100000E+01  1.00800000E+00  1.20100000E+01
  1.20100000E+01  1.20100000E+01  1.20100000E+01  1.20100000E+01  1.20100000E+01
  1.20100000E+01  1.20100000E+01  1.20100000E+01  1.20100000E+01  1.20100000E+01
  1.20100000E+01  1.20100000E+01  1.00800000E+00  1.20100000E+01  1.00800000E+00
  1.00800000E+00  1.20100000E+01  1.00800000E+00  1.20100000E+01  1.20100000E+01
  1.00800000E+00  1.20100000E+01  1.00800000E+00  1.20100000E+01  1.00800000E+00
  1.20100000E+01  1.00800000E+00  1.20100000E+01  1.00800000E+00  1.20100000E+01
  1.00800000E+00  1.20100000E+01  1.00800000E+00  1.20100000E+01  1.00800000E+00
  1.20100000E+01  1.00800000E+00  1.00800000E+00  1.20100000E+01  1.00800000E+00
  1.00800000E+00  1.00800000E+00  1.20100000E+01  1.00800000E+00  1.20100000E+01
  1.00800000E+00  1.00800000E+00  1.20100000E+01  1.00800000E+00  1.00800000E+00
  1.20100000E+01  1.00800000E+00  1.00800000E+00  1.60000000E+01  1.60000000E+01
  1.60000000E+01  1.60000000E+01  1.60000000E+01  1.60000000E+01  1.20100000E+01
  1.20100000E+01  1.20100000E+01  1.20100000E+01  1.20100000E+01  1.20100000E+01
  1.00800000E+00  1.00800000E+00  1.00800000E+00  1.00800000E+00  1.00800000E+00
  1.00800000E+00  1.00800000E+00  1.00800000E+00  1.00800000E+00  1.00800000E+00
  1.00800000E+00  1.00800000E+00  1.00800000E+00  1.00800000E+00  1.00800000E+00
  1.00800000E+00  1.00800000E+00  1.00800000E+00  1.60000000E+01  1.20100000E+01
  1.20100000E+01  1.20100000E+01  1.20100000E+01  1.00800000E+00  1.00800000E+00
  1.00800000E+00  1.20100000E+01  1.00800000E+00  1.20100000E+01  1.00800000E+00
  1.20100000E+01  1.00800000E+00  1.00800000E+00  1.40100000E+01  1.20100000E+01
  1.20100000E+01  1.20100000E+01  1.20100000E+01  1.20100000E+01  1.20100000E+01
  1.20100000E+01  1.00800000E+00  1.20100000E+01  1.00800000E+00  1.20100000E+01
  1.00800000E+00  1.20100000E+01  1.00800000E+00  1.20100000E+01  1.20100000E+01
  1.00800000E+00  1.20100000E+01  1.00800000E+00  1.00800000E+00  1.20100000E+01
  1.20100000E+01  1.20100000E+01  1.20100000E+01  1.60000000E+01  1.20100000E+01
  1.20100000E+01  1.20100000E+01  1.20100000E+01  1.20100000E+01  1.20100000E+01
  1.20100000E+01  1.20100000E+01  1.00800000E+00  1.20100000E+01  1.00800000E+00
  1.20100000E+01  1.00800000E+00  1.20100000E+01  1.00800000E+00  1.20100000E+01
  1.20100000E+01  1.00800000E+00  1.00800000E+00  1.00800000E+00  1.00800000E+00
  1.40100000E+01  1.40100000E+01  1.20100000E+01  1.00800000E+00  1.40100000E+01
  1.20100000E+01  1.00800000E+00  1.20100000E+01  1.20100000E+01  1.20100000E+01
  1.20100000E+01  1.00800000E+00  1.20100000E+01  1.20100000E+01  1.00800000E+00
  1.20100000E+01  1.20100000E+01  1.20100000E+01  1.20100000E+01  1.20100000E+01
  1.20100000E+01  1.20100000E+01  1.20100000E+01  1.20100000E+01  1.20100000E+01
  1.20100000E+01  1.20100000E+01  1.20100000E+01  1.00800000E+00  1.20100000E+01
  1.00800000E+00  1.00800000E+00  1.20100000E+01  1.00800000E+00  1.20100000E+01
  1.20100000E+01  1.00800000E+00  1.20100000E+01  1.00800000E+00  1.20100000E+01
  1.00800000E+00  1.20100000E+01  1.00800000E+00  1.20100000E+01  1.00800000E+00
  1.20100000E+01  1.00800000E+00  1.20100000E+01  1.00800000E+00  1.20100000E+01
  1.00800000E+00  1.20100000E+01  1.00800000E+00  1.00800000E+00  1.20100000E+01
  1.00800000E+00  1.00800000E+00  1.00800000E+00  1.20100000E+01  1.00800000E+00
  1.20100000E+01  1.00800000E+00  1.00800000E+00  1.20100000E+01  1.00800000E+00
  1.00800000E+00  1.20100000E+01  1.00800000E+00  1.00800000E+00  1.60000000E+01
  1.60000000E+01  1.60000000E+01  1.60000000E+01  1.60000000E+01  1.60000000E+01
  1.20100000E+01  1.20100000E+01  1.20100000E+01  1.20100000E+01  1.20100000E+01
  1.20100000E+01  1.00800000E+00  1.00800000E+00  1.00800000E+00  1.00800000E+00
  1.00800000E+00  1.00800000E+00  1.00800000E+00  1.00800000E+00  1.00800000E+00
  1.00800000E+00  1.00800000E+00  1.00800000E+00  1.00800000E+00  1.00800000E+00
  1.00800000E+00  1.00800000E+00  1.00800000E+00  1.00800000E+00  1.60000000E+01
  1.20100000E+01  1.20100000E+01  1.20100000E+01  1.20100000E+01  1.00800000E+00
  1.00800000E+00  1.00800000E+00  1.20100000E+01  1.00800000E+00  1.20100000E+01
  1.00800000E+00  1.20100000E+01  1.00800000E+00  1.00800000E+00  1.40100000E+01
  1.20100000E+01  1.20100000E+01  1.20100000E+01  1.20100000E+01  1.20100000E+01
  1.20100000E+01  1.20100000E+01  1.00800000E+00  1.20100000E+01  1.00800000E+00
  1.20100000E+01  1.00800000E+00  1.20100000E+01  1.00800000E+00  1.20100000E+01
  1.20100000E+01  1.00800000E+00  1.20100000E+01  1.00800000E+00  1.00800000E+00
  1.20100000E+01  1.20100000E+01  1.20100000E+01  1.20100000E+01  1.60000000E+01
  1.20100000E+01  1.20100000E+01  1.20100000E+01  1.20100000E+01  1.20100000E+01
  1.20100000E+01  1.20100000E+01  1.20100000E+01  1.00800000E+00  1.20100000E+01
  1.00800000E+00  1.20100000E+01  1.00800000E+00  1.20100000E+01  1.00800000E+00
  1.20100000E+01  1.20100000E+01  1.00800000E+00  1.00800000E+00  1.00800000E+00
  1.00800000E+00  1.40100000E+01  1.40100000E+01  1.20100000E+01  1.00800000E+00
  1.40100000E+01  1.20100000E+01  1.00800000E+00  1.20100000E+01  1.20100000E+01
  1.20100000E+01  1.20100000E+01  1.00800000E+00  1.20100000E+01  1.20100000E+01
  1.00800000E+00  1.20100000E+01  1.20100000E+01  1.20100000E+01  1.20100000E+01
  1.20100000E+01  1.20100000E+01  1.20100000E+01  1.20100000E+01  1.20100000E+01
  1.20100000E+01  1.20100000E+01  1.20100000E+01  1.20100000E+01  1.00800000E+00
  1.20100000E+01  1.00800000E+00  1.00800000E+00  1.20100000E+01  1.00800000E+00
  1.20100000E+01  1.20100000E+01  1.00800000E+00  1.20100000E+01  1.00800000E+00
  1.20100000E+01  1.00800000E+00  1.20100000E+01  1.00800000E+00  1.20100000E+01
  1.00800000E+00  1.20100000E+01  1.00800000E+00  1.20100000E+01  1.00800000E+00
  1.20100000E+01  1.00800000E+00  1.20100000E+01  1.00800000E+00  1.00800000E+00
  1.20100000E+01  1.00800000E+00  1.00800000E+00  1.00800000E+00  1.20100000E+01
  1.00800000E+00  1.20100000E+01  1.00800000E+00  1.00800000E+00  1.20100000E+01
  1.00800000E+00  1.00800000E+00  1.20100000E+01  1.00800000E+00  1.00800000E+00
  1.60000000E+01  1.60000000E+01  1.60000000E+01  1.60000000E+01  1.60000000E+01
  1.60000000E+01  1.20100000E+01  1.20100000E+01  1.20100000E+01  1.20100000E+01
  1.20100000E+01  1.20100000E+01  1.00800000E+00  1.00800000E+00  1.00800000E+00
  1.00800000E+00  1.00800000E+00  1.00800000E+00  1.00800000E+00  1.00800000E+00
  1.00800000E+00  1.00800000E+00  1.00800000E+00  1.00800000E+00  1.00800000E+00
  1.00800000E+00  1.00800000E+00  1.00800000E+00  1.00800000E+00  1.00800000E+00
  1.60000000E+01  1.20100000E+01  1.20100000E+01  1.20100000E+01  1.20100000E+01
  1.00800000E+00  1.00800000E+00  1.00800000E+00  1.20100000E+01  1.00800000E+00
  1.20100000E+01  1.00800000E+00  1.20100000E+01  1.00800000E+00  1.00800000E+00
  1.40100000E+01  1.20100000E+01  1.20100000E+01  1.20100000E+01  1.20100000E+01
  1.20100000E+01  1.20100000E+01  1.20100000E+01  1.00800000E+00  1.20100000E+01
  1.00800000E+00  1.20100000E+01  1.00800000E+00  1.20100000E+01  1.00800000E+00
  1.20100000E+01  1.20100000E+01  1.00800000E+00  1.20100000E+01  1.00800000E+00
  1.00800000E+00  1.20100000E+01  1.20100000E+01  1.20100000E+01  1.20100000E+01
  1.60000000E+01  1.20100000E+01  1.20100000E+01  1.20100000E+01  1.20100000E+01
  1.20100000E+01  1.20100000E+01  1.20100000E+01  1.20100000E+01  1.00800000E+00
  1.20100000E+01  1.00800000E+00  1.20100000E+01  1.00800000E+00  1.20100000E+01
  1.00800000E+00  1.20100000E+01  1.20100000E+01  1.00800000E+00  1.00800000E+00
  1.00800000E+00  1.00800000E+00  1.40100000E+01  1.40100000E+01  1.20100000E+01
  1.00800000E+00  1.40100000E+01  1.20100000E+01  1.00800000E+00  1.20100000E+01
  1.20100000E+01  1.20100000E+01  1.20100000E+01  1.00800000E+00  1.20100000E+01
  1.20100000E+01  1.00800000E+00  1.20100000E+01  1.20100000E+01  1.20100000E+01
  1.20100000E+01  1.20100000E+01  1.20100000E+01  1.20100000E+01  1.20100000E+01
  1.20100000E+01  1.20100000E+01  1.20100000E+01  1.20100000E+01  1.20100000E+01
  1.00800000E+00  1.20100000E+01  1.00800000E+00  1.00800000E+00  1.20100000E+01
  1.00800000E+00  1.20100000E+01  1.20100000E+01  1.00800000E+00  1.20100000E+01
  1.00800000E+00  1.20100000E+01  1.00800000E+00  1.20100000E+01  1.00800000E+00
  1.20100000E+01  1.00800000E+00  1.20100000E+01  1.00800000E+00  1.20100000E+01
  1.00800000E+00  1.20100000E+01  1.00800000E+00  1.20100000E+01  1.00800000E+00
  1.00800000E+00  1.20100000E+01  1.00800000E+00  1.00800000E+00  1.00800000E+00
  1.20100000E+01  1.00800000E+00  1.20100000E+01  1.00800000E+00  1.00800000E+00
  1.20100000E+01  1.00800000E+00  1.00800000E+00  1.20100000E+01  1.00800000E+00
  1.00800000E+00  1.60000000E+01  1.60000000E+01  1.60000000E+01  1.60000000E+01
  1.60000000E+01  1.60000000E+01  1.20100000E+01  1.20100000E+01  1.20100000E+01
  1.20100000E+01  1.20100000E+01  1.20100000E+01  1.00800000E+00  1.00800000E+00
  1.00800000E+00  1.00800000E+00  1.00800000E+00  1.00800000E+00  1.00800000E+00
  1.00800000E+00  1.00800000E+00  1.00800000E+00  1.00800000E+00  1.00800000E+00
  1.00800000E+00  1.00800000E+00  1.00800000E+00  1.00800000E+00  1.00800000E+00
  1.00800000E+00  1.60000000E+01  1.20100000E+01  1.20100000E+01  1.20100000E+01
  1.20100000E+01  1.00800000E+00  1.00800000E+00  1.00800000E+00  1.20100000E+01
  1.00800000E+00  1.20100000E+01  1.00800000E+00  1.20100000E+01  1.00800000E+00
  1.00800000E+00  1.40100000E+01  1.20100000E+01  1.20100000E+01  1.20100000E+01
  1.20100000E+01  1.20100000E+01  1.20100000E+01  1.20100000E+01  1.00800000E+00
  1.20100000E+01  1.00800000E+00  1.20100000E+01  1.00800000E+00  1.20100000E+01
  1.00800000E+00  1.20100000E+01  1.20100000E+01  1.00800000E+00  1.20100000E+01
  1.00800000E+00  1.00800000E+00  1.20100000E+01  1.20100000E+01  1.20100000E+01
  1.20100000E+01  1.60000000E+01  1.20100000E+01  1.20100000E+01  1.20100000E+01
  1.20100000E+01  1.20100000E+01  1.20100000E+01  1.20100000E+01  1.20100000E+01
  1.00800000E+00  1.20100000E+01  1.00800000E+00  1.20100000E+01  1.00800000E+00
  1.20100000E+01  1.00800000E+00  1.20100000E+01  1.20100000E+01  1.00800000E+00
  1.00800000E+00  1.00800000E+00  1.00800000E+00  1.40100000E+01  1.40100000E+01
  1.20100000E+01  1.00800000E+00  1.40100000E+01  1.20100000E+01  1.00800000E+00
  1.20100000E+01  1.20100000E+01  1.20100000E+01  1.20100000E+01  1.00800000E+00
  1.20100000E+01  1.20100000E+01  1.00800000E+00  1.20100000E+01  1.20100000E+01
  1.20100000E+01  1.20100000E+01  1.20100000E+01  1.20100000E+01  1.20100000E+01
  1.20100000E+01  1.20100000E+01  1.20100000E+01  1.20100000E+01  1.20100000E+01
  1.20100000E+01  1.00800000E+00  1.20100000E+01  1.00800000E+00  1.00800000E+00
  1.20100000E+01  1.00800000E+00  1.20100000E+01  1.20100000E+01  1.00800000E+00
  1.20100000E+01  1.00800000E+00  1.20100000E+01  1.00800000E+00  1.20100000E+01
  1.00800000E+00  1.20100000E+01  1.00800000E+00  1.20100000E+01  1.00800000E+00
  1.20100000E+01  1.00800000E+00  1.20100000E+01  1.00800000E+00  1.20100000E+01
  1.00800000E+00  1.00800000E+00  1.20100000E+01  1.00800000E+00  1.00800000E+00
  1.00800000E+00  1.20100000E+01  1.00800000E+00  1.20100000E+01  1.00800000E+00
  1.00800000E+00  1.20100000E+01  1.00800000E+00  1.00800000E+00  1.20100000E+01
  1.00800000E+00  1.00800000E+00  1.60000000E+01  1.60000000E+01  1.60000000E+01
  1.60000000E+01  1.60000000E+01  1.60000000E+01  1.20100000E+01  1.20100000E+01
  1.20100000E+01  1.20100000E+01  1.20100000E+01  1.20100000E+01  1.00800000E+00
  1.00800000E+00  1.00800000E+00  1.00800000E+00  1.00800000E+00  1.00800000E+00
  1.00800000E+00  1.00800000E+00  1.00800000E+00  1.00800000E+00  1.00800000E+00
  1.00800000E+00  1.00800000E+00  1.00800000E+00  1.00800000E+00  1.00800000E+00
  1.00800000E+00  1.00800000E+00  1.60000000E+01  1.20100000E+01  1.20100000E+01
  1.20100000E+01  1.20100000E+01  1.00800000E+00  1.00800000E+00  1.00800000E+00
  1.20100000E+01  1.00800000E+00  1.20100000E+01  1.00800000E+00  1.20100000E+01
  1.00800000E+00  1.00800000E+00  1.40100000E+01  1.20100000E+01  1.20100000E+01
  1.20100000E+01  1.20100000E+01  1.20100000E+01  1.20100000E+01  1.20100000E+01
  1.00800000E+00  1.20100000E+01  1.00800000E+00  1.20100000E+01  1.00800000E+00
  1.20100000E+01  1.00800000E+00  1.20100000E+01  1.20100000E+01  1.00800000E+00
  1.20100000E+01  1.00800000E+00  1.00800000E+00  1.20100000E+01  1.20100000E+01
  1.20100000E+01  1.20100000E+01  1.60000000E+01  1.20100000E+01  1.20100000E+01
  1.20100000E+01  1.20100000E+01  1.20100000E+01  1.20100000E+01  1.20100000E+01
  1.20100000E+01  1.00800000E+00  1.20100000E+01  1.00800000E+00  1.20100000E+01
  1.00800000E+00  1.20100000E+01  1.00800000E+00  1.20100000E+01  1.20100000E+01
  1.00800000E+00  1.00800000E+00  1.00800000E+00  1.00800000E+00  1.40100000E+01
  1.40100000E+01  1.20100000E+01  1.00800000E+00  1.40100000E+01  1.20100000E+01
  1.00800000E+00  1.20100000E+01  1.20100000E+01  1.20100000E+01  1.20100000E+01
  1.00800000E+00  1.20100000E+01  1.20100000E+01  1.00800000E+00  1.20100000E+01
  1.20100000E+01  1.20100000E+01  1.20100000E+01  1.20100000E+01  1.20100000E+01
  1.20100000E+01  1.20100000E+01  1.20100000E+01  1.20100000E+01  1.20100000E+01
  1.20100000E+01  1.20100000E+01  1.00800000E+00  1.20100000E+01  1.00800000E+00
  1.00800000E+00  1.20100000E+01  1.00800000E+00  1.20100000E+01  1.20100000E+01
  1.00800000E+00  1.20100000E+01  1.00800000E+00  1.20100000E+01  1.00800000E+00
  1.20100000E+01  1.00800000E+00  1.20100000E+01  1.00800000E+00  1.20100000E+01
  1.00800000E+00  1.20100000E+01  1.00800000E+00  1.20100000E+01  1.00800000E+00
  1.20100000E+01  1.00800000E+00  1.00800000E+00  1.20100000E+01  1.00800000E+00
  1.00800000E+00  1.00800000E+00  1.20100000E+01  1.00800000E+00  1.20100000E+01
  1.00800000E+00  1.00800000E+00  1.20100000E+01  1.00800000E+00  1.00800000E+00
  1.20100000E+01  1.00800000E+00  1.00800000E+00  1.60000000E+01  1.60000000E+01
  1.60000000E+01  1.60000000E+01  1.60000000E+01  1.60000000E+01  1.20100000E+01
  1.20100000E+01  1.20100000E+01  1.20100000E+01  1.20100000E+01  1.20100000E+01
  1.00800000E+00  1.00800000E+00  1.00800000E+00  1.00800000E+00  1.00800000E+00
  1.00800000E+00  1.00800000E+00  1.00800000E+00  1.00800000E+00  1.00800000E+00
  1.00800000E+00  1.00800000E+00  1.00800000E+00  1.00800000E+00  1.00800000E+00
  1.00800000E+00  1.00800000E+00  1.00800000E+00  1.60000000E+01  1.20100000E+01
  1.20100000E+01  1.20100000E+01  1.20100000E+01  1.00800000E+00  1.00800000E+00
  1.00800000E+00  1.20100000E+01  1.00800000E+00  1.20100000E+01  1.00800000E+00
  1.20100000E+01  1.00800000E+00  1.00800000E+00  1.40100000E+01  1.20100000E+01
  1.20100000E+01  1.20100000E+01  1.20100000E+01  1.20100000E+01  1.20100000E+01
  1.20100000E+01  1.00800000E+00  1.20100000E+01  1.00800000E+00  1.20100000E+01
  1.00800000E+00  1.20100000E+01  1.00800000E+00  1.20100000E+01  1.20100000E+01
  1.00800000E+00  1.20100000E+01  1.00800000E+00  1.00800000E+00  1.20100000E+01
  1.20100000E+01  1.20100000E+01  1.20100000E+01  1.60000000E+01  1.20100000E+01
  1.20100000E+01  1.20100000E+01  1.20100000E+01  1.20100000E+01  1.20100000E+01
  1.20100000E+01  1.20100000E+01  1.00800000E+00  1.20100000E+01  1.00800000E+00
  1.20100000E+01  1.00800000E+00  1.20100000E+01  1.00800000E+00  1.20100000E+01
  1.20100000E+01  1.00800000E+00  1.00800000E+00  1.00800000E+00  1.00800000E+00
  1.40100000E+01  1.40100000E+01  1.20100000E+01  1.00800000E+00  1.40100000E+01
  1.20100000E+01  1.00800000E+00  1.20100000E+01  1.20100000E+01  1.20100000E+01
  1.20100000E+01  1.00800000E+00  1.20100000E+01  1.20100000E+01  1.00800000E+00
  1.20100000E+01  1.20100000E+01  1.20100000E+01  1.20100000E+01  1.20100000E+01
  1.20100000E+01  1.20100000E+01  1.20100000E+01  1.20100000E+01  1.20100000E+01
  1.20100000E+01  1.20100000E+01  1.20100000E+01  1.00800000E+00  1.20100000E+01
  1.00800000E+00  1.00800000E+00  1.20100000E+01  1.00800000E+00  1.20100000E+01
  1.20100000E+01  1.00800000E+00  1.20100000E+01  1.00800000E+00  1.20100000E+01
  1.00800000E+00  1.20100000E+01  1.00800000E+00  1.20100000E+01  1.00800000E+00
  1.20100000E+01  1.00800000E+00  1.20100000E+01  1.00800000E+00  1.20100000E+01
  1.00800000E+00  1.20100000E+01  1.00800000E+00  1.00800000E+00  1.20100000E+01
  1.00800000E+00  1.00800000E+00  1.00800000E+00  1.20100000E+01  1.00800000E+00
  1.20100000E+01  1.00800000E+00  1.00800000E+00  1.20100000E+01  1.00800000E+00
  1.00800000E+00  1.20100000E+01  1.00800000E+00  1.00800000E+00  1.60000000E+01
  1.60000000E+01  1.60000000E+01  1.60000000E+01  1.60000000E+01  1.60000000E+01
  1.20100000E+01  1.20100000E+01  1.20100000E+01  1.20100000E+01  1.20100000E+01
  1.20100000E+01  1.00800000E+00  1.00800000E+00  1.00800000E+00  1.00800000E+00
  1.00800000E+00  1.00800000E+00  1.00800000E+00  1.00800000E+00  1.00800000E+00
  1.00800000E+00  1.00800000E+00  1.00800000E+00  1.00800000E+00  1.00800000E+00
  1.00800000E+00  1.00800000E+00  1.00800000E+00  1.00800000E+00  1.60000000E+01
  1.20100000E+01  1.20100000E+01  1.20100000E+01  1.20100000E+01  1.00800000E+00
  1.00800000E+00  1.00800000E+00  1.20100000E+01  1.00800000E+00  1.20100000E+01
  1.00800000E+00  1.20100000E+01  1.00800000E+00  1.00800000E+00  1.40100000E+01
  1.20100000E+01  1.20100000E+01  1.20100000E+01  1.20100000E+01  1.20100000E+01
  1.20100000E+01  1.20100000E+01  1.00800000E+00  1.20100000E+01  1.00800000E+00
  1.20100000E+01  1.00800000E+00  1.20100000E+01  1.00800000E+00  1.20100000E+01
  1.20100000E+01  1.00800000E+00  1.20100000E+01  1.00800000E+00  1.00800000E+00
  1.20100000E+01  1.20100000E+01  1.20100000E+01  1.20100000E+01  1.60000000E+01
  1.20100000E+01  1.20100000E+01  1.20100000E+01  1.20100000E+01  1.20100000E+01
  1.20100000E+01  1.20100000E+01  1.20100000E+01  1.00800000E+00  1.20100000E+01
  1.00800000E+00  1.20100000E+01  1.00800000E+00  1.20100000E+01  1.00800000E+00
  1.20100000E+01  1.20100000E+01  1.00800000E+00  1.00800000E+00  1.00800000E+00
  1.00800000E+00  1.40100000E+01  1.40100000E+01  1.20100000E+01  1.00800000E+00
  1.40100000E+01  1.20100000E+01  1.00800000E+00  1.20100000E+01  1.20100000E+01
  1.20100000E+01  1.20100000E+01  1.00800000E+00  1.20100000E+01  1.20100000E+01
  1.00800000E+00  1.20100000E+01  1.20100000E+01  1.20100000E+01  1.20100000E+01
  1.20100000E+01  1.20100000E+01  1.20100000E+01  1.20100000E+01  1.20100000E+01
  1.20100000E+01  1.20100000E+01  1.20100000E+01  1.20100000E+01  1.00800000E+00
  1.20100000E+01  1.00800000E+00  1.00800000E+00  1.20100000E+01  1.00800000E+00
  1.20100000E+01  1.20100000E+01  1.00800000E+00  1.20100000E+01  1.00800000E+00
  1.20100000E+01  1.00800000E+00  1.20100000E+01  1.00800000E+00  1.20100000E+01
  1.00800000E+00  1.20100000E+01  1.00800000E+00  1.20100000E+01  1.00800000E+00
  1.20100000E+01  1.00800000E+00  1.20100000E+01  1.00800000E+00  1.00800000E+00
  1.20100000E+01  1.00800000E+00  1.00800000E+00  1.00800000E+00  1.20100000E+01
  1.00800000E+00  1.20100000E+01  1.00800000E+00  1.00800000E+00  1.20100000E+01
  1.00800000E+00  1.00800000E+00  1.20100000E+01  1.00800000E+00  1.00800000E+00
  1.60000000E+01  1.60000000E+01  1.60000000E+01  1.60000000E+01  1.60000000E+01
  1.60000000E+01  1.20100000E+01  1.20100000E+01  1.20100000E+01  1.20100000E+01
  1.20100000E+01  1.20100000E+01  1.00800000E+00  1.00800000E+00  1.00800000E+00
  1.00800000E+00  1.00800000E+00  1.00800000E+00  1.00800000E+00  1.00800000E+00
  1.00800000E+00  1.00800000E+00  1.00800000E+00  1.00800000E+00  1.00800000E+00
  1.00800000E+00  1.00800000E+00  1.00800000E+00  1.00800000E+00  1.00800000E+00
  1.60000000E+01  1.20100000E+01  1.20100000E+01  1.20100000E+01  1.20100000E+01
  1.00800000E+00  1.00800000E+00  1.00800000E+00  1.20100000E+01  1.00800000E+00
  1.20100000E+01  1.00800000E+00  1.20100000E+01  1.00800000E+00  1.00800000E+00
  1.40100000E+01  1.20100000E+01  1.20100000E+01  1.20100000E+01  1.20100000E+01
  1.20100000E+01  1.20100000E+01  1.20100000E+01  1.00800000E+00  1.20100000E+01
  1.00800000E+00  1.20100000E+01  1.00800000E+00  1.20100000E+01  1.00800000E+00
  1.20100000E+01  1.20100000E+01  1.00800000E+00  1.20100000E+01  1.00800000E+00
  1.00800000E+00  1.20100000E+01  1.20100000E+01  1.20100000E+01  1.20100000E+01
  1.60000000E+01  1.20100000E+01  1.20100000E+01  1.20100000E+01  1.20100000E+01
  1.20100000E+01  1.20100000E+01  1.20100000E+01  1.20100000E+01  1.00800000E+00
  1.20100000E+01  1.00800000E+00  1.20100000E+01  1.00800000E+00  1.20100000E+01
  1.00800000E+00  1.20100000E+01  1.20100000E+01  1.00800000E+00  1.00800000E+00
  1.00800000E+00  1.00800000E+00  1.40100000E+01  1.40100000E+01  1.20100000E+01
  1.00800000E+00  1.40100000E+01  1.20100000E+01  1.00800000E+00  1.20100000E+01
  1.20100000E+01  1.20100000E+01  1.20100000E+01  1.00800000E+00  1.20100000E+01
  1.20100000E+01  1.00800000E+00  1.20100000E+01  1.20100000E+01  1.20100000E+01
  1.20100000E+01  1.20100000E+01  1.20100000E+01  1.20100000E+01  1.20100000E+01
  1.20100000E+01  1.20100000E+01  1.20100000E+01  1.20100000E+01  1.20100000E+01
  1.00800000E+00  1.20100000E+01  1.00800000E+00  1.00800000E+00  1.20100000E+01
  1.00800000E+00  1.20100000E+01  1.20100000E+01  1.00800000E+00  1.20100000E+01
  1.00800000E+00  1.20100000E+01  1.00800000E+00  1.20100000E+01  1.00800000E+00
  1.20100000E+01  1.00800000E+00  1.20100000E+01  1.00800000E+00  1.20100000E+01
  1.00800000E+00  1.20100000E+01  1.00800000E+00  1.20100000E+01  1.00800000E+00
  1.00800000E+00  1.20100000E+01  1.00800000E+00  1.00800000E+00  1.00800000E+00
  1.20100000E+01  1.00800000E+00  1.20100000E+01  1.00800000E+00  1.00800000E+00
  1.20100000E+01  1.00800000E+00  1.00800000E+00  1.20100000E+01  1.00800000E+00
  1.00800000E+00  1.60000000E+01  1.60000000E+01  1.60000000E+01  1.60000000E+01
  1.60000000E+01  1.60000000E+01  1.20100000E+01  1.20100000E+01  1.20100000E+01
  1.20100000E+01  1.20100000E+01  1.20100000E+01  1.00800000E+00  1.00800000E+00
  1.00800000E+00  1.00800000E+00  1.00800000E+00  1.00800000E+00  1.00800000E+00
  1.00800000E+00  1.00800000E+00  1.00800000E+00  1.00800000E+00  1.00800000E+00
  1.00800000E+00  1.00800000E+00  1.00800000E+00  1.00800000E+00  1.00800000E+00
  1.00800000E+00  1.60000000E+01  1.20100000E+01  1.20100000E+01  1.20100000E+01
  1.20100000E+01  1.00800000E+00  1.00800000E+00  1.00800000E+00  1.20100000E+01
  1.00800000E+00  1.20100000E+01  1.00800000E+00  1.20100000E+01  1.00800000E+00
  1.00800000E+00  1.40100000E+01  1.20100000E+01  1.20100000E+01  1.20100000E+01
  1.20100000E+01  1.20100000E+01  1.20100000E+01  1.20100000E+01  1.00800000E+00
  1.20100000E+01  1.00800000E+00  1.20100000E+01  1.00800000E+00  1.20100000E+01
  1.00800000E+00  1.20100000E+01  1.20100000E+01  1.00800000E+00  1.20100000E+01
  1.00800000E+00  1.00800000E+00  1.20100000E+01  1.20100000E+01  1.20100000E+01
  1.20100000E+01  1.60000000E+01  1.20100000E+01  1.20100000E+01  1.20100000E+01
  1.20100000E+01  1.20100000E+01  1.20100000E+01  1.20100000E+01  1.20100000E+01
  1.00800000E+00  1.20100000E+01  1.00800000E+00  1.20100000E+01  1.00800000E+00
  1.20100000E+01  1.00800000E+00  1.20100000E+01  1.20100000E+01  1.00800000E+00
  1.00800000E+00  1.00800000E+00  1.00800000E+00  1.40100000E+01  1.40100000E+01
  1.20100000E+01  1.00800000E+00  1.40100000E+01  1.20100000E+01  1.00800000E+00
  1.20100000E+01  1.20100000E+01  1.20100000E+01  1.20100000E+01  1.00800000E+00
  1.20100000E+01  1.20100000E+01  1.00800000E+00  1.20100000E+01  1.20100000E+01
  1.20100000E+01  1.20100000E+01  1.20100000E+01  1.20100000E+01  1.20100000E+01
  1.20100000E+01  1.20100000E+01  1.20100000E+01  1.20100000E+01  1.20100000E+01
  1.20100000E+01  1.00800000E+00  1.20100000E+01  1.00800000E+00  1.00800000E+00
  1.20100000E+01  1.00800000E+00  1.20100000E+01  1.20100000E+01  1.00800000E+00
  1.20100000E+01  1.00800000E+00  1.20100000E+01  1.00800000E+00  1.20100000E+01
  1.00800000E+00  1.20100000E+01  1.00800000E+00  1.20100000E+01  1.00800000E+00
  1.20100000E+01  1.00800000E+00  1.20100000E+01  1.00800000E+00  1.20100000E+01
  1.00800000E+00  1.00800000E+00  1.20100000E+01  1.00800000E+00  1.00800000E+00
  1.00800000E+00  1.20100000E+01  1.00800000E+00  1.20100000E+01  1.00800000E+00
  1.00800000E+00  1.20100000E+01  1.00800000E+00  1.00800000E+00  1.20100000E+01
  1.00800000E+00  1.00800000E+00  1.60000000E+01  1.60000000E+01  1.60000000E+01
  1.60000000E+01  1.60000000E+01  1.60000000E+01  1.20100000E+01  1.20100000E+01
  1.20100000E+01  1.20100000E+01  1.20100000E+01  1.20100000E+01  1.00800000E+00
  1.00800000E+00  1.00800000E+00  1.00800000E+00  1.00800000E+00  1.00800000E+00
  1.00800000E+00  1.00800000E+00  1.00800000E+00  1.00800000E+00  1.00800000E+00
  1.00800000E+00  1.00800000E+00  1.00800000E+00  1.00800000E+00  1.00800000E+00
  1.00800000E+00  1.00800000E+00  1.60000000E+01  1.20100000E+01  1.20100000E+01
  1.20100000E+01  1.20100000E+01  1.00800000E+00  1.00800000E+00  1.00800000E+00
  1.20100000E+01  1.00800000E+00  1.20100000E+01  1.00800000E+00  1.20100000E+01
  1.00800000E+00  1.00800000E+00  1.40100000E+01  1.20100000E+01  1.20100000E+01
  1.20100000E+01  1.20100000E+01  1.20100000E+01  1.20100000E+01  1.20100000E+01
  1.00800000E+00  1.20100000E+01  1.00800000E+00  1.20100000E+01  1.00800000E+00
  1.20100000E+01  1.00800000E+00  1.20100000E+01  1.20100000E+01  1.00800000E+00
  1.20100000E+01  1.00800000E+00  1.00800000E+00  1.20100000E+01  1.20100000E+01
  1.20100000E+01  1.20100000E+01  1.60000000E+01  1.20100000E+01  1.20100000E+01
  1.20100000E+01  1.20100000E+01  1.20100000E+01  1.20100000E+01  1.20100000E+01
  1.20100000E+01  1.00800000E+00  1.20100000E+01  1.00800000E+00  1.20100000E+01
  1.00800000E+00  1.20100000E+01  1.00800000E+00  1.20100000E+01  1.20100000E+01
  1.00800000E+00  1.00800000E+00  1.00800000E+00  1.00800000E+00  1.40100000E+01
  1.40100000E+01  1.20100000E+01  1.00800000E+00  1.40100000E+01  1.20100000E+01
  1.00800000E+00  1.20100000E+01  1.20100000E+01  1.20100000E+01  1.20100000E+01
  1.00800000E+00  1.20100000E+01  1.20100000E+01  1.00800000E+00  1.20100000E+01
  1.20100000E+01  1.20100000E+01  1.20100000E+01  1.20100000E+01  1.20100000E+01
  1.20100000E+01  1.20100000E+01  1.20100000E+01  1.20100000E+01  1.20100000E+01
  1.20100000E+01  1.20100000E+01  1.00800000E+00  1.20100000E+01  1.00800000E+00
  1.00800000E+00  1.20100000E+01  1.00800000E+00  1.20100000E+01  1.20100000E+01
  1.00800000E+00  1.20100000E+01  1.00800000E+00  1.20100000E+01  1.00800000E+00
  1.20100000E+01  1.00800000E+00  1.20100000E+01  1.00800000E+00  1.20100000E+01
  1.00800000E+00  1.20100000E+01  1.00800000E+00  1.20100000E+01  1.00800000E+00
  1.20100000E+01  1.00800000E+00  1.00800000E+00  1.20100000E+01  1.00800000E+00
  1.00800000E+00  1.00800000E+00  1.20100000E+01  1.00800000E+00  1.20100000E+01
  1.00800000E+00  1.00800000E+00  1.20100000E+01  1.00800000E+00  1.00800000E+00
  1.20100000E+01  1.00800000E+00  1.00800000E+00  1.60000000E+01  1.60000000E+01
  1.60000000E+01  1.60000000E+01  1.60000000E+01  1.60000000E+01  1.20100000E+01
  1.20100000E+01  1.20100000E+01  1.20100000E+01  1.20100000E+01  1.20100000E+01
  1.00800000E+00  1.00800000E+00  1.00800000E+00  1.00800000E+00  1.00800000E+00
  1.00800000E+00  1.00800000E+00  1.00800000E+00  1.00800000E+00  1.00800000E+00
  1.00800000E+00  1.00800000E+00  1.00800000E+00  1.00800000E+00  1.00800000E+00
  1.00800000E+00  1.00800000E+00  1.00800000E+00  1.60000000E+01  1.20100000E+01
  1.20100000E+01  1.20100000E+01  1.20100000E+01  1.00800000E+00  1.00800000E+00
  1.00800000E+00  1.20100000E+01  1.00800000E+00  1.20100000E+01  1.00800000E+00
  1.20100000E+01  1.00800000E+00  1.00800000E+00  1.40100000E+01  1.20100000E+01
  1.20100000E+01  1.20100000E+01  1.20100000E+01  1.20100000E+01  1.20100000E+01
  1.20100000E+01  1.00800000E+00  1.20100000E+01  1.00800000E+00  1.20100000E+01
  1.00800000E+00  1.20100000E+01  1.00800000E+00  1.20100000E+01  1.20100000E+01
  1.00800000E+00  1.20100000E+01  1.00800000E+00  1.00800000E+00  1.20100000E+01
  1.20100000E+01  1.20100000E+01  1.20100000E+01  1.60000000E+01  1.20100000E+01
  1.20100000E+01  1.20100000E+01  1.20100000E+01  1.20100000E+01  1.20100000E+01
  1.20100000E+01  1.20100000E+01  1.00800000E+00  1.20100000E+01  1.00800000E+00
  1.20100000E+01  1.00800000E+00  1.20100000E+01  1.00800000E+00  1.20100000E+01
  1.20100000E+01  1.00800000E+00  1.00800000E+00  1.00800000E+00  1.00800000E+00
  1.40100000E+01  1.40100000E+01  1.20100000E+01  1.00800000E+00  1.40100000E+01
  1.20100000E+01  1.00800000E+00  1.20100000E+01  1.20100000E+01  1.20100000E+01
  1.20100000E+01  1.00800000E+00  1.20100000E+01  1.20100000E+01  1.00800000E+00
  1.20100000E+01  1.20100000E+01  1.20100000E+01  1.20100000E+01  1.20100000E+01
  1.20100000E+01  1.20100000E+01  1.20100000E+01  1.20100000E+01  1.20100000E+01
  1.20100000E+01  1.20100000E+01  1.20100000E+01  1.00800000E+00  1.20100000E+01
  1.00800000E+00  1.00800000E+00  1.20100000E+01  1.00800000E+00  1.20100000E+01
  1.20100000E+01  1.00800000E+00  1.20100000E+01  1.00800000E+00  1.20100000E+01
  1.00800000E+00  1.20100000E+01  1.00800000E+00  1.20100000E+01  1.00800000E+00
  1.20100000E+01  1.00800000E+00  1.20100000E+01  1.00800000E+00  1.20100000E+01
  1.00800000E+00  1.20100000E+01  1.00800000E+00  1.00800000E+00  1.20100000E+01
  1.00800000E+00  1.00800000E+00  1.00800000E+00  1.20100000E+01  1.00800000E+00
  1.20100000E+01  1.00800000E+00  1.00800000E+00  1.20100000E+01  1.00800000E+00
  1.00800000E+00  1.20100000E+01  1.00800000E+00  1.00800000E+00  1.60000000E+01
  1.60000000E+01  1.60000000E+01  1.60000000E+01  1.60000000E+01  1.60000000E+01
  1.20100000E+01  1.20100000E+01  1.20100000E+01  1.20100000E+01  1.20100000E+01
  1.20100000E+01  1.00800000E+00  1.00800000E+00  1.00800000E+00  1.00800000E+00
  1.00800000E+00  1.00800000E+00  1.00800000E+00  1.00800000E+00  1.00800000E+00
  1.00800000E+00  1.00800000E+00  1.00800000E+00  1.00800000E+00  1.00800000E+00
  1.00800000E+00  1.00800000E+00  1.00800000E+00  1.00800000E+00  1.60000000E+01
  1.20100000E+01  1.20100000E+01  1.20100000E+01  1.20100000E+01  1.00800000E+00
  1.00800000E+00  1.00800000E+00  1.20100000E+01  1.00800000E+00  1.20100000E+01
  1.00800000E+00  1.20100000E+01  1.00800000E+00  1.00800000E+00  1.40100000E+01
  1.20100000E+01  1.20100000E+01  1.20100000E+01  1.20100000E+01  1.20100000E+01
  1.20100000E+01  1.20100000E+01  1.00800000E+00  1.20100000E+01  1.00800000E+00
  1.20100000E+01  1.00800000E+00  1.20100000E+01  1.00800000E+00  1.20100000E+01
  1.20100000E+01  1.00800000E+00  1.20100000E+01  1.00800000E+00  1.00800000E+00
  1.20100000E+01  1.20100000E+01  1.20100000E+01  1.20100000E+01  1.60000000E+01
  1.20100000E+01  1.20100000E+01  1.20100000E+01  1.20100000E+01  1.20100000E+01
  1.20100000E+01  1.20100000E+01  1.20100000E+01  1.00800000E+00  1.20100000E+01
  1.00800000E+00  1.20100000E+01  1.00800000E+00  1.20100000E+01  1.00800000E+00
  1.20100000E+01  1.20100000E+01  1.00800000E+00  1.00800000E+00  1.00800000E+00
  1.00800000E+00  1.40100000E+01  1.40100000E+01  1.20100000E+01  1.00800000E+00
  1.40100000E+01  1.20100000E+01  1.00800000E+00  1.20100000E+01  1.20100000E+01
  1.20100000E+01  1.20100000E+01  1.00800000E+00  1.20100000E+01  1.20100000E+01
  1.00800000E+00  1.20100000E+01  1.20100000E+01  1.20100000E+01  1.20100000E+01
  1.20100000E+01  1.20100000E+01  1.20100000E+01  1.20100000E+01  1.20100000E+01
  1.20100000E+01  1.20100000E+01  1.20100000E+01  1.20100000E+01  1.00800000E+00
  1.20100000E+01  1.00800000E+00  1.00800000E+00  1.20100000E+01  1.00800000E+00
  1.20100000E+01  1.20100000E+01  1.00800000E+00  1.20100000E+01  1.00800000E+00
  1.20100000E+01  1.00800000E+00  1.20100000E+01  1.00800000E+00  1.20100000E+01
  1.00800000E+00  1.20100000E+01  1.00800000E+00  1.20100000E+01  1.00800000E+00
  1.20100000E+01  1.00800000E+00  1.20100000E+01  1.00800000E+00  1.00800000E+00
  1.20100000E+01  1.00800000E+00  1.00800000E+00  1.00800000E+00  1.20100000E+01
  1.00800000E+00  1.20100000E+01  1.00800000E+00  1.00800000E+00  1.20100000E+01
  1.00800000E+00  1.00800000E+00  1.20100000E+01  1.00800000E+00  1.00800000E+00
  1.60000000E+01  1.60000000E+01  1.60000000E+01  1.60000000E+01  1.60000000E+01
  1.60000000E+01  1.20100000E+01  1.20100000E+01  1.20100000E+01  1.20100000E+01
  1.20100000E+01  1.20100000E+01  1.00800000E+00  1.00800000E+00  1.00800000E+00
  1.00800000E+00  1.00800000E+00  1.00800000E+00  1.00800000E+00  1.00800000E+00
  1.00800000E+00  1.00800000E+00  1.00800000E+00  1.00800000E+00  1.00800000E+00
  1.00800000E+00  1.00800000E+00  1.00800000E+00  1.00800000E+00  1.00800000E+00
  1.60000000E+01  1.20100000E+01  1.20100000E+01  1.20100000E+01  1.20100000E+01
  1.00800000E+00  1.00800000E+00  1.00800000E+00  1.20100000E+01  1.00800000E+00
  1.20100000E+01  1.00800000E+00  1.20100000E+01  1.00800000E+00  1.00800000E+00
  1.40100000E+01  1.20100000E+01  1.20100000E+01  1.20100000E+01  1.20100000E+01
  1.20100000E+01  1.20100000E+01  1.20100000E+01  1.00800000E+00  1.20100000E+01
  1.00800000E+00  1.20100000E+01  1.00800000E+00  1.20100000E+01  1.00800000E+00
  1.20100000E+01  1.20100000E+01  1.00800000E+00  1.20100000E+01  1.00800000E+00
  1.00800000E+00  1.20100000E+01  1.20100000E+01  1.20100000E+01  1.20100000E+01
  1.60000000E+01  1.20100000E+01  1.20100000E+01  1.20100000E+01  1.20100000E+01
  1.20100000E+01  1.20100000E+01  1.20100000E+01  1.20100000E+01  1.00800000E+00
  1.20100000E+01  1.00800000E+00  1.20100000E+01  1.00800000E+00  1.20100000E+01
  1.00800000E+00  1.20100000E+01  1.20100000E+01  1.00800000E+00  1.00800000E+00
  1.00800000E+00  1.00800000E+00  1.40100000E+01  1.40100000E+01  1.20100000E+01
  1.00800000E+00  1.40100000E+01  1.20100000E+01  1.00800000E+00  1.20100000E+01
  1.20100000E+01  1.20100000E+01  1.20100000E+01  1.00800000E+00  1.20100000E+01
  1.20100000E+01  1.00800000E+00  1.20100000E+01  1.20100000E+01  1.20100000E+01
  1.20100000E+01  1.20100000E+01  1.20100000E+01  1.20100000E+01  1.20100000E+01
  1.20100000E+01  1.20100000E+01  1.20100000E+01  1.20100000E+01  1.20100000E+01
  1.00800000E+00  1.20100000E+01  1.00800000E+00  1.00800000E+00  1.20100000E+01
  1.00800000E+00  1.20100000E+01  1.20100000E+01  1.00800000E+00  1.20100000E+01
  1.00800000E+00  1.20100000E+01  1.00800000E+00  1.20100000E+01  1.00800000E+00
  1.20100000E+01  1.00800000E+00  1.20100000E+01  1.00800000E+00  1.20100000E+01
  1.00800000E+00  1.20100000E+01  1.00800000E+00  1.20100000E+01  1.00800000E+00
  1.00800000E+00  1.20100000E+01  1.00800000E+00  1.00800000E+00  1.00800000E+00
  1.20100000E+01  1.00800000E+00  1.20100000E+01  1.00800000E+00  1.00800000E+00
  1.20100000E+01  1.00800000E+00  1.00800000E+00  1.20100000E+01  1.00800000E+00
  1.00800000E+00  1.60000000E+01  1.60000000E+01  1.60000000E+01  1.60000000E+01
  1.60000000E+01  1.60000000E+01  1.20100000E+01  1.20100000E+01  1.20100000E+01
  1.20100000E+01  1.20100000E+01  1.20100000E+01  1.00800000E+00  1.00800000E+00
  1.00800000E+00  1.00800000E+00  1.00800000E+00  1.00800000E+00  1.00800000E+00
  1.00800000E+00  1.00800000E+00  1.00800000E+00  1.00800000E+00  1.00800000E+00
  1.00800000E+00  1.00800000E+00  1.00800000E+00  1.00800000E+00  1.00800000E+00
  1.00800000E+00  1.60000000E+01  1.20100000E+01  1.20100000E+01  1.20100000E+01
  1.20100000E+01  1.00800000E+00  1.00800000E+00  1.00800000E+00  1.20100000E+01
  1.00800000E+00  1.20100000E+01  1.00800000E+00  1.20100000E+01  1.00800000E+00
  1.00800000E+00  1.40100000E+01  1.20100000E+01  1.20100000E+01  1.20100000E+01
  1.20100000E+01  1.20100000E+01  1.20100000E+01  1.20100000E+01  1.00800000E+00
  1.20100000E+01  1.00800000E+00  1.20100000E+01  1.00800000E+00  1.20100000E+01
  1.00800000E+00  1.20100000E+01  1.20100000E+01  1.00800000E+00  1.20100000E+01
  1.00800000E+00  1.00800000E+00  1.20100000E+01  1.20100000E+01  1.20100000E+01
  1.20100000E+01  1.60000000E+01  1.20100000E+01  1.20100000E+01  1.20100000E+01
  1.20100000E+01  1.20100000E+01  1.20100000E+01  1.20100000E+01  1.20100000E+01
  1.00800000E+00  1.20100000E+01  1.00800000E+00  1.20100000E+01  1.00800000E+00
  1.20100000E+01  1.00800000E+00  1.20100000E+01  1.20100000E+01  1.00800000E+00
  1.00800000E+00  1.00800000E+00  1.00800000E+00  1.40100000E+01  1.40100000E+01
  1.20100000E+01  1.00800000E+00  1.40100000E+01  1.20100000E+01  1.00800000E+00
  1.20100000E+01  1.20100000E+01  1.20100000E+01  1.20100000E+01  1.00800000E+00
  1.20100000E+01  1.20100000E+01  1.00800000E+00  1.20100000E+01  1.20100000E+01
  1.20100000E+01  1.20100000E+01  1.20100000E+01  1.20100000E+01  1.20100000E+01
  1.20100000E+01  1.20100000E+01  1.20100000E+01  1.20100000E+01  1.20100000E+01
  1.20100000E+01  1.00800000E+00  1.20100000E+01  1.00800000E+00  1.00800000E+00
  1.20100000E+01  1.00800000E+00  1.20100000E+01  1.20100000E+01  1.00800000E+00
  1.20100000E+01  1.00800000E+00  1.20100000E+01  1.00800000E+00  1.20100000E+01
  1.00800000E+00  1.20100000E+01  1.00800000E+00  1.20100000E+01  1.00800000E+00
  1.20100000E+01  1.00800000E+00  1.20100000E+01  1.00800000E+00  1.20100000E+01
  1.00800000E+00  1.00800000E+00  1.20100000E+01  1.00800000E+00  1.00800000E+00
  1.00800000E+00  1.20100000E+01  1.00800000E+00  1.20100000E+01  1.00800000E+00
  1.00800000E+00  1.20100000E+01  1.00800000E+00  1.00800000E+00  1.20100000E+01
  1.00800000E+00  1.00800000E+00  1.60000000E+01  1.60000000E+01  1.60000000E+01
  1.60000000E+01  1.60000000E+01  1.60000000E+01  1.20100000E+01  1.20100000E+01
  1.20100000E+01  1.20100000E+01  1.20100000E+01  1.20100000E+01  1.00800000E+00
  1.00800000E+00  1.00800000E+00  1.00800000E+00  1.00800000E+00  1.00800000E+00
  1.00800000E+00  1.00800000E+00  1.00800000E+00  1.00800000E+00  1.00800000E+00
  1.00800000E+00  1.00800000E+00  1.00800000E+00  1.00800000E+00  1.00800000E+00
  1.00800000E+00  1.00800000E+00  1.60000000E+01  1.20100000E+01  1.20100000E+01
  1.20100000E+01  1.20100000E+01  1.00800000E+00  1.00800000E+00  1.00800000E+00
  1.20100000E+01  1.00800000E+00  1.20100000E+01  1.00800000E+00  1.20100000E+01
  1.00800000E+00  1.00800000E+00  1.40100000E+01  1.20100000E+01  1.20100000E+01
  1.20100000E+01  1.20100000E+01  1.20100000E+01  1.20100000E+01  1.20100000E+01
  1.00800000E+00  1.20100000E+01  1.00800000E+00  1.20100000E+01  1.00800000E+00
  1.20100000E+01  1.00800000E+00  1.20100000E+01  1.20100000E+01  1.00800000E+00
  1.20100000E+01  1.00800000E+00  1.00800000E+00  1.20100000E+01  1.20100000E+01
  1.20100000E+01  1.20100000E+01  1.60000000E+01  1.20100000E+01  1.20100000E+01
  1.20100000E+01  1.20100000E+01  1.20100000E+01  1.20100000E+01  1.20100000E+01
  1.20100000E+01  1.00800000E+00  1.20100000E+01  1.00800000E+00  1.20100000E+01
  1.00800000E+00  1.20100000E+01  1.00800000E+00  1.20100000E+01  1.20100000E+01
  1.00800000E+00  1.00800000E+00  1.00800000E+00  1.00800000E+00  1.40100000E+01
  1.40100000E+01  1.20100000E+01  1.00800000E+00  1.40100000E+01  1.20100000E+01
  1.00800000E+00  1.20100000E+01  1.20100000E+01  1.20100000E+01  1.20100000E+01
  1.00800000E+00  1.20100000E+01  1.20100000E+01  1.00800000E+00  1.20100000E+01
  1.20100000E+01  1.20100000E+01  1.20100000E+01  1.20100000E+01  1.20100000E+01
  1.20100000E+01  1.20100000E+01  1.20100000E+01  1.20100000E+01  1.20100000E+01
  1.20100000E+01  1.20100000E+01  1.00800000E+00  1.20100000E+01  1.00800000E+00
  1.00800000E+00  1.20100000E+01  1.00800000E+00  1.20100000E+01  1.20100000E+01
  1.00800000E+00  1.20100000E+01  1.00800000E+00  1.20100000E+01  1.00800000E+00
  1.20100000E+01  1.00800000E+00  1.20100000E+01  1.00800000E+00  1.20100000E+01
  1.00800000E+00  1.20100000E+01  1.00800000E+00  1.20100000E+01  1.00800000E+00
  1.20100000E+01  1.00800000E+00  1.00800000E+00  1.20100000E+01  1.00800000E+00
  1.00800000E+00  1.00800000E+00  1.20100000E+01  1.00800000E+00  1.20100000E+01
  1.00800000E+00  1.00800000E+00  1.20100000E+01  1.00800000E+00  1.00800000E+00
  1.20100000E+01  1.00800000E+00  1.00800000E+00  1.60000000E+01  1.60000000E+01
  1.60000000E+01  1.60000000E+01  1.60000000E+01  1.60000000E+01  1.20100000E+01
  1.20100000E+01  1.20100000E+01  1.20100000E+01  1.20100000E+01  1.20100000E+01
  1.00800000E+00  1.00800000E+00  1.00800000E+00  1.00800000E+00  1.00800000E+00
  1.00800000E+00  1.00800000E+00  1.00800000E+00  1.00800000E+00  1.00800000E+00
  1.00800000E+00  1.00800000E+00  1.00800000E+00  1.00800000E+00  1.00800000E+00
  1.00800000E+00  1.00800000E+00  1.00800000E+00  1.60000000E+01  1.20100000E+01
  1.20100000E+01  1.20100000E+01  1.20100000E+01  1.00800000E+00  1.00800000E+00
  1.00800000E+00  1.20100000E+01  1.00800000E+00  1.20100000E+01  1.00800000E+00
  1.20100000E+01  1.00800000E+00  1.00800000E+00  1.40100000E+01  1.20100000E+01
  1.20100000E+01  1.20100000E+01  1.20100000E+01  1.20100000E+01  1.20100000E+01
  1.20100000E+01  1.00800000E+00  1.20100000E+01  1.00800000E+00  1.20100000E+01
  1.00800000E+00  1.20100000E+01  1.00800000E+00  1.20100000E+01  1.20100000E+01
  1.00800000E+00  1.20100000E+01  1.00800000E+00  1.00800000E+00  1.20100000E+01
  1.20100000E+01  1.20100000E+01  1.20100000E+01  1.60000000E+01  1.20100000E+01
  1.20100000E+01  1.20100000E+01  1.20100000E+01  1.20100000E+01  1.20100000E+01
  1.20100000E+01  1.20100000E+01  1.00800000E+00  1.20100000E+01  1.00800000E+00
  1.20100000E+01  1.00800000E+00  1.20100000E+01  1.00800000E+00  1.20100000E+01
  1.20100000E+01  1.00800000E+00  1.00800000E+00  1.00800000E+00  1.00800000E+00
  1.40100000E+01  1.40100000E+01  1.20100000E+01  1.00800000E+00  1.40100000E+01
  1.20100000E+01  1.00800000E+00  1.20100000E+01  1.20100000E+01  1.20100000E+01
  1.20100000E+01  1.00800000E+00  1.20100000E+01  1.20100000E+01  1.00800000E+00
  1.20100000E+01  1.20100000E+01  1.20100000E+01  1.20100000E+01  1.20100000E+01
  1.20100000E+01  1.20100000E+01  1.20100000E+01  1.20100000E+01  1.20100000E+01
  1.20100000E+01  1.20100000E+01  1.20100000E+01  1.00800000E+00  1.20100000E+01
  1.00800000E+00  1.00800000E+00  1.20100000E+01  1.00800000E+00  1.20100000E+01
  1.20100000E+01  1.00800000E+00  1.20100000E+01  1.00800000E+00  1.20100000E+01
  1.00800000E+00  1.20100000E+01  1.00800000E+00  1.20100000E+01  1.00800000E+00
  1.20100000E+01  1.00800000E+00  1.20100000E+01  1.00800000E+00  1.20100000E+01
  1.00800000E+00  1.20100000E+01  1.00800000E+00  1.00800000E+00  1.20100000E+01
  1.00800000E+00  1.00800000E+00  1.00800000E+00  1.20100000E+01  1.00800000E+00
  1.20100000E+01  1.00800000E+00  1.00800000E+00  1.20100000E+01  1.00800000E+00
  1.00800000E+00  1.20100000E+01  1.00800000E+00  1.00800000E+00  1.60000000E+01
  1.60000000E+01  1.60000000E+01  1.60000000E+01  1.60000000E+01  1.60000000E+01
  1.20100000E+01  1.20100000E+01  1.20100000E+01  1.20100000E+01  1.20100000E+01
  1.20100000E+01  1.00800000E+00  1.00800000E+00  1.00800000E+00  1.00800000E+00
  1.00800000E+00  1.00800000E+00  1.00800000E+00  1.00800000E+00  1.00800000E+00
  1.00800000E+00  1.00800000E+00  1.00800000E+00  1.00800000E+00  1.00800000E+00
  1.00800000E+00  1.00800000E+00  1.00800000E+00  1.00800000E+00  1.60000000E+01
  1.20100000E+01  1.20100000E+01  1.20100000E+01  1.20100000E+01  1.00800000E+00
  1.00800000E+00  1.00800000E+00  1.20100000E+01  1.00800000E+00  1.20100000E+01
  1.00800000E+00  1.20100000E+01  1.00800000E+00  1.00800000E+00  1.40100000E+01
  1.20100000E+01  1.20100000E+01  1.20100000E+01  1.20100000E+01  1.20100000E+01
  1.20100000E+01  1.20100000E+01  1.00800000E+00  1.20100000E+01  1.00800000E+00
  1.20100000E+01  1.00800000E+00  1.20100000E+01  1.00800000E+00  1.20100000E+01
  1.20100000E+01  1.00800000E+00  1.20100000E+01  1.00800000E+00  1.00800000E+00
  1.20100000E+01  1.20100000E+01  1.20100000E+01  1.20100000E+01  1.60000000E+01
  1.20100000E+01  1.20100000E+01  1.20100000E+01  1.20100000E+01  1.20100000E+01
  1.20100000E+01  1.20100000E+01  1.20100000E+01  1.00800000E+00  1.20100000E+01
  1.00800000E+00  1.20100000E+01  1.00800000E+00  1.20100000E+01  1.00800000E+00
  1.20100000E+01  1.20100000E+01  1.00800000E+00  1.00800000E+00  1.00800000E+00
  1.00800000E+00  1.40100000E+01  1.40100000E+01  1.20100000E+01  1.00800000E+00
  1.40100000E+01  1.20100000E+01  1.00800000E+00  1.20100000E+01  1.20100000E+01
  1.20100000E+01  1.20100000E+01  1.00800000E+00  1.20100000E+01  1.20100000E+01
  1.00800000E+00  1.20100000E+01  1.20100000E+01  1.20100000E+01  1.20100000E+01
  1.20100000E+01  1.20100000E+01  1.20100000E+01  1.20100000E+01  1.20100000E+01
  1.20100000E+01  1.20100000E+01  1.20100000E+01  1.20100000E+01  1.00800000E+00
  1.20100000E+01  1.00800000E+00  1.00800000E+00  1.20100000E+01  1.00800000E+00
  1.20100000E+01  1.20100000E+01  1.00800000E+00  1.20100000E+01  1.00800000E+00
  1.20100000E+01  1.00800000E+00  1.20100000E+01  1.00800000E+00  1.20100000E+01
  1.00800000E+00  1.20100000E+01  1.00800000E+00  1.20100000E+01  1.00800000E+00
  1.20100000E+01  1.00800000E+00  1.20100000E+01  1.00800000E+00  1.00800000E+00
  1.20100000E+01  1.00800000E+00  1.00800000E+00  1.00800000E+00  1.20100000E+01
  1.00800000E+00  1.20100000E+01  1.00800000E+00  1.00800000E+00  1.20100000E+01
  1.00800000E+00  1.00800000E+00  1.20100000E+01  1.00800000E+00  1.00800000E+00
  1.60000000E+01  1.60000000E+01  1.60000000E+01  1.60000000E+01  1.60000000E+01
  1.60000000E+01  1.20100000E+01  1.20100000E+01  1.20100000E+01  1.20100000E+01
  1.20100000E+01  1.20100000E+01  1.00800000E+00  1.00800000E+00  1.00800000E+00
  1.00800000E+00  1.00800000E+00  1.00800000E+00  1.00800000E+00  1.00800000E+00
  1.00800000E+00  1.00800000E+00  1.00800000E+00  1.00800000E+00  1.00800000E+00
  1.00800000E+00  1.00800000E+00  1.00800000E+00  1.00800000E+00  1.00800000E+00
  1.60000000E+01  1.20100000E+01  1.20100000E+01  1.20100000E+01  1.20100000E+01
  1.00800000E+00  1.00800000E+00  1.00800000E+00  1.20100000E+01  1.00800000E+00
  1.20100000E+01  1.00800000E+00  1.20100000E+01  1.00800000E+00  1.00800000E+00
  1.40100000E+01  1.20100000E+01  1.20100000E+01  1.20100000E+01  1.20100000E+01
  1.20100000E+01  1.20100000E+01  1.20100000E+01  1.00800000E+00  1.20100000E+01
  1.00800000E+00  1.20100000E+01  1.00800000E+00  1.20100000E+01  1.00800000E+00
  1.20100000E+01  1.20100000E+01  1.00800000E+00  1.20100000E+01  1.00800000E+00
  1.00800000E+00  1.20100000E+01  1.20100000E+01  1.20100000E+01  1.20100000E+01
  1.60000000E+01  1.20100000E+01  1.20100000E+01  1.20100000E+01  1.20100000E+01
  1.20100000E+01  1.20100000E+01  1.20100000E+01  1.20100000E+01  1.00800000E+00
  1.20100000E+01  1.00800000E+00  1.20100000E+01  1.00800000E+00  1.20100000E+01
  1.00800000E+00  1.20100000E+01  1.20100000E+01  1.00800000E+00  1.00800000E+00
  1.00800000E+00  1.00800000E+00  1.40100000E+01  1.40100000E+01  1.20100000E+01
  1.00800000E+00  1.40100000E+01  1.20100000E+01  1.00800000E+00  1.20100000E+01
  1.20100000E+01  1.20100000E+01  1.20100000E+01  1.00800000E+00  1.20100000E+01
  1.20100000E+01  1.00800000E+00  1.20100000E+01  1.20100000E+01  1.20100000E+01
  1.20100000E+01  1.20100000E+01  1.20100000E+01  1.20100000E+01  1.20100000E+01
  1.20100000E+01  1.20100000E+01  1.20100000E+01  1.20100000E+01  1.20100000E+01
  1.00800000E+00  1.20100000E+01  1.00800000E+00  1.00800000E+00  1.20100000E+01
  1.00800000E+00  1.20100000E+01  1.20100000E+01  1.00800000E+00  1.20100000E+01
  1.00800000E+00  1.20100000E+01  1.00800000E+00  1.20100000E+01  1.00800000E+00
  1.20100000E+01  1.00800000E+00  1.20100000E+01  1.00800000E+00  1.20100000E+01
  1.00800000E+00  1.20100000E+01  1.00800000E+00  1.20100000E+01  1.00800000E+00
  1.00800000E+00  1.20100000E+01  1.00800000E+00  1.00800000E+00  1.00800000E+00
  1.20100000E+01  1.00800000E+00  1.20100000E+01  1.00800000E+00  1.00800000E+00
  1.20100000E+01  1.00800000E+00  1.00800000E+00  1.20100000E+01  1.00800000E+00
  1.00800000E+00  1.60000000E+01  1.60000000E+01  1.60000000E+01  1.60000000E+01
  1.60000000E+01  1.60000000E+01  1.20100000E+01  1.20100000E+01  1.20100000E+01
  1.20100000E+01  1.20100000E+01  1.20100000E+01  1.00800000E+00  1.00800000E+00
  1.00800000E+00  1.00800000E+00  1.00800000E+00  1.00800000E+00  1.00800000E+00
  1.00800000E+00  1.00800000E+00  1.00800000E+00  1.00800000E+00  1.00800000E+00
  1.00800000E+00  1.00800000E+00  1.00800000E+00  1.00800000E+00  1.00800000E+00
  1.00800000E+00  1.60000000E+01  1.20100000E+01  1.20100000E+01  1.20100000E+01
  1.20100000E+01  1.00800000E+00  1.00800000E+00  1.00800000E+00  1.20100000E+01
  1.00800000E+00  1.20100000E+01  1.00800000E+00  1.20100000E+01  1.00800000E+00
  1.00800000E+00  1.40100000E+01  1.20100000E+01  1.20100000E+01  1.20100000E+01
  1.20100000E+01  1.20100000E+01  1.20100000E+01  1.20100000E+01  1.00800000E+00
  1.20100000E+01  1.00800000E+00  1.20100000E+01  1.00800000E+00  1.20100000E+01
  1.00800000E+00  1.20100000E+01  1.20100000E+01  1.00800000E+00  1.20100000E+01
  1.00800000E+00  1.00800000E+00  1.20100000E+01  1.20100000E+01  1.20100000E+01
  1.20100000E+01  1.60000000E+01  1.20100000E+01  1.20100000E+01  1.20100000E+01
  1.20100000E+01  1.20100000E+01  1.20100000E+01  1.20100000E+01  1.20100000E+01
  1.00800000E+00  1.20100000E+01  1.00800000E+00  1.20100000E+01  1.00800000E+00
  1.20100000E+01  1.00800000E+00  1.20100000E+01  1.20100000E+01  1.00800000E+00
  1.00800000E+00  1.00800000E+00  1.00800000E+00  1.40100000E+01  1.40100000E+01
  1.20100000E+01  1.00800000E+00  1.40100000E+01  1.20100000E+01  1.00800000E+00
  1.20100000E+01  1.20100000E+01  1.20100000E+01  1.20100000E+01  1.00800000E+00
  1.20100000E+01  1.20100000E+01  1.00800000E+00  1.20100000E+01  1.20100000E+01
  1.20100000E+01  1.20100000E+01  1.20100000E+01  1.20100000E+01  1.20100000E+01
  1.20100000E+01  1.20100000E+01  1.20100000E+01  1.20100000E+01  1.20100000E+01
  1.20100000E+01  1.00800000E+00  1.20100000E+01  1.00800000E+00  1.00800000E+00
  1.20100000E+01  1.00800000E+00  1.20100000E+01  1.20100000E+01  1.00800000E+00
  1.20100000E+01  1.00800000E+00  1.20100000E+01  1.00800000E+00  1.20100000E+01
  1.00800000E+00  1.20100000E+01  1.00800000E+00  1.20100000E+01  1.00800000E+00
  1.20100000E+01  1.00800000E+00  1.20100000E+01  1.00800000E+00  1.20100000E+01
  1.00800000E+00  1.00800000E+00  1.20100000E+01  1.00800000E+00  1.00800000E+00
  1.00800000E+00  1.20100000E+01  1.00800000E+00  1.20100000E+01  1.00800000E+00
  1.00800000E+00  1.20100000E+01  1.00800000E+00  1.00800000E+00  1.20100000E+01
  1.00800000E+00  1.00800000E+00  1.60000000E+01  1.60000000E+01  1.60000000E+01
  1.60000000E+01  1.60000000E+01  1.60000000E+01  1.20100000E+01  1.20100000E+01
  1.20100000E+01  1.20100000E+01  1.20100000E+01  1.20100000E+01  1.00800000E+00
  1.00800000E+00  1.00800000E+00  1.00800000E+00  1.00800000E+00  1.00800000E+00
  1.00800000E+00  1.00800000E+00  1.00800000E+00  1.00800000E+00  1.00800000E+00
  1.00800000E+00  1.00800000E+00  1.00800000E+00  1.00800000E+00  1.00800000E+00
  1.00800000E+00  1.00800000E+00  1.60000000E+01  1.20100000E+01  1.20100000E+01
  1.20100000E+01  1.20100000E+01  1.00800000E+00  1.00800000E+00  1.00800000E+00
  1.20100000E+01  1.00800000E+00  1.20100000E+01  1.00800000E+00  1.20100000E+01
  1.00800000E+00  1.00800000E+00  1.40100000E+01  1.20100000E+01  1.20100000E+01
  1.20100000E+01  1.20100000E+01  1.20100000E+01  1.20100000E+01  1.20100000E+01
  1.00800000E+00  1.20100000E+01  1.00800000E+00  1.20100000E+01  1.00800000E+00
  1.20100000E+01  1.00800000E+00  1.20100000E+01  1.20100000E+01  1.00800000E+00
  1.20100000E+01  1.00800000E+00  1.00800000E+00  1.20100000E+01  1.20100000E+01
  1.20100000E+01  1.20100000E+01  1.60000000E+01  1.20100000E+01  1.20100000E+01
  1.20100000E+01  1.20100000E+01  1.20100000E+01  1.20100000E+01  1.20100000E+01
  1.20100000E+01  1.00800000E+00  1.20100000E+01  1.00800000E+00  1.20100000E+01
  1.00800000E+00  1.20100000E+01  1.00800000E+00  1.20100000E+01  1.20100000E+01
  1.00800000E+00  1.00800000E+00  1.00800000E+00  1.00800000E+00  1.40100000E+01
  1.40100000E+01  1.20100000E+01  1.00800000E+00  1.40100000E+01  1.20100000E+01
  1.00800000E+00  1.20100000E+01  1.20100000E+01  1.20100000E+01  1.20100000E+01
  1.00800000E+00  1.20100000E+01  1.20100000E+01  1.00800000E+00  1.20100000E+01
  1.20100000E+01  1.20100000E+01  1.20100000E+01  1.20100000E+01  1.20100000E+01
  1.20100000E+01  1.20100000E+01  1.20100000E+01  1.20100000E+01  1.20100000E+01
  1.20100000E+01  1.20100000E+01  1.00800000E+00  1.20100000E+01  1.00800000E+00
  1.00800000E+00  1.20100000E+01  1.00800000E+00  1.20100000E+01  1.20100000E+01
  1.00800000E+00  1.20100000E+01  1.00800000E+00  1.20100000E+01  1.00800000E+00
  1.20100000E+01  1.00800000E+00  1.20100000E+01  1.00800000E+00  1.20100000E+01
  1.00800000E+00  1.20100000E+01  1.00800000E+00  1.20100000E+01  1.00800000E+00
  1.20100000E+01  1.00800000E+00  1.00800000E+00  1.20100000E+01  1.00800000E+00
  1.00800000E+00  1.00800000E+00  1.20100000E+01  1.00800000E+00  1.20100000E+01
  1.00800000E+00  1.00800000E+00  1.20100000E+01  1.00800000E+00  1.00800000E+00
  1.20100000E+01  1.00800000E+00  1.00800000E+00  1.60000000E+01  1.60000000E+01
  1.60000000E+01  1.60000000E+01  1.60000000E+01  1.60000000E+01  1.20100000E+01
  1.20100000E+01  1.20100000E+01  1.20100000E+01  1.20100000E+01  1.20100000E+01
  1.00800000E+00  1.00800000E+00  1.00800000E+00  1.00800000E+00  1.00800000E+00
  1.00800000E+00  1.00800000E+00  1.00800000E+00  1.00800000E+00  1.00800000E+00
  1.00800000E+00  1.00800000E+00  1.00800000E+00  1.00800000E+00  1.00800000E+00
  1.00800000E+00  1.00800000E+00  1.00800000E+00  1.60000000E+01  1.20100000E+01
  1.20100000E+01  1.20100000E+01  1.20100000E+01  1.00800000E+00  1.00800000E+00
  1.00800000E+00  1.20100000E+01  1.00800000E+00  1.20100000E+01  1.00800000E+00
  1.20100000E+01  1.00800000E+00  1.00800000E+00  1.40100000E+01  1.20100000E+01
  1.20100000E+01  1.20100000E+01  1.20100000E+01  1.20100000E+01  1.20100000E+01
  1.20100000E+01  1.00800000E+00  1.20100000E+01  1.00800000E+00  1.20100000E+01
  1.00800000E+00  1.20100000E+01  1.00800000E+00  1.20100000E+01  1.20100000E+01
  1.00800000E+00  1.20100000E+01  1.00800000E+00  1.00800000E+00  1.20100000E+01
  1.20100000E+01  1.20100000E+01  1.20100000E+01  1.60000000E+01  1.20100000E+01
  1.20100000E+01  1.20100000E+01  1.20100000E+01  1.20100000E+01  1.20100000E+01
  1.20100000E+01  1.20100000E+01  1.00800000E+00  1.20100000E+01  1.00800000E+00
  1.20100000E+01  1.00800000E+00  1.20100000E+01  1.00800000E+00  1.20100000E+01
  1.20100000E+01  1.00800000E+00  1.00800000E+00  1.00800000E+00  1.00800000E+00
  1.40100000E+01  1.40100000E+01  1.20100000E+01  1.00800000E+00  1.40100000E+01
  1.20100000E+01  1.00800000E+00  1.20100000E+01  1.20100000E+01  1.20100000E+01
  1.20100000E+01  1.00800000E+00  1.20100000E+01  1.20100000E+01  1.00800000E+00
  1.20100000E+01  1.20100000E+01  1.20100000E+01  1.20100000E+01  1.20100000E+01
  1.20100000E+01  1.20100000E+01  1.20100000E+01  1.20100000E+01  1.20100000E+01
  1.20100000E+01  1.20100000E+01  1.20100000E+01  1.00800000E+00  1.20100000E+01
  1.00800000E+00  1.00800000E+00  1.20100000E+01  1.00800000E+00  1.20100000E+01
  1.20100000E+01  1.00800000E+00  1.20100000E+01  1.00800000E+00  1.20100000E+01
  1.00800000E+00  1.20100000E+01  1.00800000E+00  1.20100000E+01  1.00800000E+00
  1.20100000E+01  1.00800000E+00  1.20100000E+01  1.00800000E+00  1.20100000E+01
  1.00800000E+00  1.20100000E+01  1.00800000E+00  1.00800000E+00  1.20100000E+01
  1.00800000E+00  1.00800000E+00  1.00800000E+00  1.20100000E+01  1.00800000E+00
  1.20100000E+01  1.00800000E+00  1.00800000E+00  1.20100000E+01  1.00800000E+00
  1.00800000E+00  1.20100000E+01  1.00800000E+00  1.00800000E+00  1.60000000E+01
  1.60000000E+01  1.60000000E+01  1.60000000E+01  1.60000000E+01  1.60000000E+01
  1.20100000E+01  1.20100000E+01  1.20100000E+01  1.20100000E+01  1.20100000E+01
  1.20100000E+01  1.00800000E+00  1.00800000E+00  1.00800000E+00  1.00800000E+00
  1.00800000E+00  1.00800000E+00  1.00800000E+00  1.00800000E+00  1.00800000E+00
  1.00800000E+00  1.00800000E+00  1.00800000E+00  1.00800000E+00  1.00800000E+00
  1.00800000E+00  1.00800000E+00  1.00800000E+00  1.00800000E+00  1.60000000E+01
  1.20100000E+01  1.20100000E+01  1.20100000E+01  1.20100000E+01  1.00800000E+00
  1.00800000E+00  1.00800000E+00  1.20100000E+01  1.00800000E+00  1.20100000E+01
  1.00800000E+00  1.20100000E+01  1.00800000E+00  1.00800000E+00  1.40100000E+01
  1.20100000E+01  1.20100000E+01  1.20100000E+01  1.20100000E+01  1.20100000E+01
  1.20100000E+01  1.20100000E+01  1.00800000E+00  1.20100000E+01  1.00800000E+00
  1.20100000E+01  1.00800000E+00  1.20100000E+01  1.00800000E+00  1.20100000E+01
  1.20100000E+01  1.00800000E+00  1.20100000E+01  1.00800000E+00  1.00800000E+00
  1.20100000E+01  1.20100000E+01  1.20100000E+01  1.20100000E+01  1.60000000E+01
  1.20100000E+01  1.20100000E+01  1.20100000E+01  1.20100000E+01  1.20100000E+01
  1.20100000E+01  1.20100000E+01  1.20100000E+01  1.00800000E+00  1.20100000E+01
  1.00800000E+00  1.20100000E+01  1.00800000E+00  1.20100000E+01  1.00800000E+00
  1.20100000E+01  1.20100000E+01  1.00800000E+00  1.00800000E+00  1.00800000E+00
  1.00800000E+00  1.40100000E+01  1.40100000E+01  1.20100000E+01  1.00800000E+00
  1.40100000E+01  1.20100000E+01  1.00800000E+00  1.20100000E+01  1.20100000E+01
  1.20100000E+01  1.20100000E+01  1.00800000E+00  1.20100000E+01  1.20100000E+01
  1.00800000E+00  1.20100000E+01  1.20100000E+01  1.20100000E+01  1.20100000E+01
  1.20100000E+01  1.20100000E+01  1.20100000E+01  1.20100000E+01  1.20100000E+01
  1.20100000E+01  1.20100000E+01  1.20100000E+01  1.20100000E+01  1.00800000E+00
  1.20100000E+01  1.00800000E+00  1.00800000E+00  1.20100000E+01  1.00800000E+00
  1.20100000E+01  1.20100000E+01  1.00800000E+00  1.20100000E+01  1.00800000E+00
  1.20100000E+01  1.00800000E+00  1.20100000E+01  1.00800000E+00  1.20100000E+01
  1.00800000E+00  1.20100000E+01  1.00800000E+00  1.20100000E+01  1.00800000E+00
  1.20100000E+01  1.00800000E+00  1.20100000E+01  1.00800000E+00  1.00800000E+00
  1.20100000E+01  1.00800000E+00  1.00800000E+00  1.00800000E+00  1.20100000E+01
  1.00800000E+00  1.20100000E+01  1.00800000E+00  1.00800000E+00  1.20100000E+01
  1.00800000E+00  1.00800000E+00  1.20100000E+01  1.00800000E+00  1.00800000E+00
  1.60000000E+01  1.60000000E+01  1.60000000E+01  1.60000000E+01  1.60000000E+01
  1.60000000E+01  1.20100000E+01  1.20100000E+01  1.20100000E+01  1.20100000E+01
  1.20100000E+01  1.20100000E+01  1.00800000E+00  1.00800000E+00  1.00800000E+00
  1.00800000E+00  1.00800000E+00  1.00800000E+00  1.00800000E+00  1.00800000E+00
  1.00800000E+00  1.00800000E+00  1.00800000E+00  1.00800000E+00  1.00800000E+00
  1.00800000E+00  1.00800000E+00  1.00800000E+00  1.00800000E+00  1.00800000E+00
  1.60000000E+01  1.20100000E+01  1.20100000E+01  1.20100000E+01  1.20100000E+01
  1.00800000E+00  1.00800000E+00  1.00800000E+00  1.20100000E+01  1.00800000E+00
  1.20100000E+01  1.00800000E+00  1.20100000E+01  1.00800000E+00  1.00800000E+00
  1.40100000E+01  1.20100000E+01  1.20100000E+01  1.20100000E+01  1.20100000E+01
  1.20100000E+01  1.20100000E+01  1.20100000E+01  1.00800000E+00  1.20100000E+01
  1.00800000E+00  1.20100000E+01  1.00800000E+00  1.20100000E+01  1.00800000E+00
  1.20100000E+01  1.20100000E+01  1.00800000E+00  1.20100000E+01  1.00800000E+00
  1.00800000E+00  1.20100000E+01  1.20100000E+01  1.20100000E+01  1.20100000E+01
  1.60000000E+01  1.20100000E+01  1.20100000E+01  1.20100000E+01  1.20100000E+01
  1.20100000E+01  1.20100000E+01  1.20100000E+01  1.20100000E+01  1.00800000E+00
  1.20100000E+01  1.00800000E+00  1.20100000E+01  1.00800000E+00  1.20100000E+01
  1.00800000E+00  1.20100000E+01  1.20100000E+01  1.00800000E+00  1.00800000E+00
  1.00800000E+00  1.00800000E+00  1.40100000E+01  1.40100000E+01  1.20100000E+01
  1.00800000E+00  1.40100000E+01  1.20100000E+01  1.00800000E+00  1.20100000E+01
  1.20100000E+01  1.20100000E+01  1.20100000E+01  1.00800000E+00  1.20100000E+01
  1.20100000E+01  1.00800000E+00  1.20100000E+01  1.20100000E+01  1.20100000E+01
  1.20100000E+01  1.20100000E+01  1.20100000E+01  1.20100000E+01  1.20100000E+01
  1.20100000E+01  1.20100000E+01  1.20100000E+01  1.20100000E+01  1.20100000E+01
  1.00800000E+00  1.20100000E+01  1.00800000E+00  1.00800000E+00  1.20100000E+01
  1.00800000E+00  1.20100000E+01  1.20100000E+01  1.00800000E+00  1.20100000E+01
  1.00800000E+00  1.20100000E+01  1.00800000E+00  1.20100000E+01  1.00800000E+00
  1.20100000E+01  1.00800000E+00  1.20100000E+01  1.00800000E+00  1.20100000E+01
  1.00800000E+00  1.20100000E+01  1.00800000E+00  1.20100000E+01  1.00800000E+00
  1.00800000E+00  1.20100000E+01  1.00800000E+00  1.00800000E+00  1.00800000E+00
  1.20100000E+01  1.00800000E+00  1.20100000E+01  1.00800000E+00  1.00800000E+00
  1.20100000E+01  1.00800000E+00  1.00800000E+00  1.20100000E+01  1.00800000E+00
  1.00800000E+00  1.60000000E+01  1.60000000E+01  1.60000000E+01  1.60000000E+01
  1.60000000E+01  1.60000000E+01  1.20100000E+01  1.20100000E+01  1.20100000E+01
  1.20100000E+01  1.20100000E+01  1.20100000E+01  1.00800000E+00  1.00800000E+00
  1.00800000E+00  1.00800000E+00  1.00800000E+00  1.00800000E+00  1.00800000E+00
  1.00800000E+00  1.00800000E+00  1.00800000E+00  1.00800000E+00  1.00800000E+00
  1.00800000E+00  1.00800000E+00  1.00800000E+00  1.00800000E+00  1.00800000E+00
  1.00800000E+00  1.60000000E+01  1.20100000E+01  1.20100000E+01  1.20100000E+01
  1.20100000E+01  1.00800000E+00  1.00800000E+00  1.00800000E+00  1.20100000E+01
  1.00800000E+00  1.20100000E+01  1.00800000E+00  1.20100000E+01  1.00800000E+00
  1.00800000E+00  1.40100000E+01  1.20100000E+01  1.20100000E+01  1.20100000E+01
  1.20100000E+01  1.20100000E+01  1.20100000E+01  1.20100000E+01  1.00800000E+00
  1.20100000E+01  1.00800000E+00  1.20100000E+01  1.00800000E+00  1.20100000E+01
  1.00800000E+00  1.20100000E+01  1.20100000E+01  1.00800000E+00  1.20100000E+01
  1.00800000E+00  1.00800000E+00  1.20100000E+01  1.20100000E+01  1.20100000E+01
  1.20100000E+01  1.60000000E+01  1.20100000E+01  1.20100000E+01  1.20100000E+01
  1.20100000E+01  1.20100000E+01  1.20100000E+01  1.20100000E+01  1.20100000E+01
  1.00800000E+00  1.20100000E+01  1.00800000E+00  1.20100000E+01  1.00800000E+00
  1.20100000E+01  1.00800000E+00  1.20100000E+01  1.20100000E+01  1.00800000E+00
  1.00800000E+00  1.00800000E+00  1.00800000E+00  1.40100000E+01  1.40100000E+01
  1.20100000E+01  1.00800000E+00  1.40100000E+01  1.20100000E+01  1.00800000E+00
  1.20100000E+01  1.20100000E+01  1.20100000E+01  1.20100000E+01  1.00800000E+00
  1.20100000E+01  1.20100000E+01  1.00800000E+00  1.20100000E+01  1.20100000E+01
  1.20100000E+01  1.20100000E+01  1.20100000E+01  1.20100000E+01  1.20100000E+01
  1.20100000E+01  1.20100000E+01  1.20100000E+01  1.20100000E+01  1.20100000E+01
  1.20100000E+01  1.00800000E+00  1.20100000E+01  1.00800000E+00  1.00800000E+00
  1.20100000E+01  1.00800000E+00  1.20100000E+01  1.20100000E+01  1.00800000E+00
  1.20100000E+01  1.00800000E+00  1.20100000E+01  1.00800000E+00  1.20100000E+01
  1.00800000E+00  1.20100000E+01  1.00800000E+00  1.20100000E+01  1.00800000E+00
  1.20100000E+01  1.00800000E+00  1.20100000E+01  1.00800000E+00  1.20100000E+01
  1.00800000E+00  1.00800000E+00  1.20100000E+01  1.00800000E+00  1.00800000E+00
  1.00800000E+00  1.20100000E+01  1.00800000E+00  1.20100000E+01  1.00800000E+00
  1.00800000E+00  1.20100000E+01  1.00800000E+00  1.00800000E+00  1.20100000E+01
  1.00800000E+00  1.00800000E+00  1.60000000E+01  1.60000000E+01  1.60000000E+01
  1.60000000E+01  1.60000000E+01  1.60000000E+01  1.20100000E+01  1.20100000E+01
  1.20100000E+01  1.20100000E+01  1.20100000E+01  1.20100000E+01  1.00800000E+00
  1.00800000E+00  1.00800000E+00  1.00800000E+00  1.00800000E+00  1.00800000E+00
  1.00800000E+00  1.00800000E+00  1.00800000E+00  1.00800000E+00  1.00800000E+00
  1.00800000E+00  1.00800000E+00  1.00800000E+00  1.00800000E+00  1.00800000E+00
  1.00800000E+00  1.00800000E+00  1.60000000E+01  1.20100000E+01  1.20100000E+01
  1.20100000E+01  1.20100000E+01  1.00800000E+00  1.00800000E+00  1.00800000E+00
  1.20100000E+01  1.00800000E+00  1.20100000E+01  1.00800000E+00  1.20100000E+01
  1.00800000E+00  1.00800000E+00  1.40100000E+01  1.20100000E+01  1.20100000E+01
  1.20100000E+01  1.20100000E+01  1.20100000E+01  1.20100000E+01  1.20100000E+01
  1.00800000E+00  1.20100000E+01  1.00800000E+00  1.20100000E+01  1.00800000E+00
  1.20100000E+01  1.00800000E+00  1.20100000E+01  1.20100000E+01  1.00800000E+00
  1.20100000E+01  1.00800000E+00  1.00800000E+00  1.20100000E+01  1.20100000E+01
  1.20100000E+01  1.20100000E+01  1.60000000E+01  1.20100000E+01  1.20100000E+01
  1.20100000E+01  1.20100000E+01  1.20100000E+01  1.20100000E+01  1.20100000E+01
  1.20100000E+01  1.00800000E+00  1.20100000E+01  1.00800000E+00  1.20100000E+01
  1.00800000E+00  1.20100000E+01  1.00800000E+00  1.20100000E+01  1.20100000E+01
  1.00800000E+00  1.00800000E+00  1.00800000E+00  1.00800000E+00  1.40100000E+01
  1.40100000E+01  1.20100000E+01  1.00800000E+00  1.40100000E+01  1.20100000E+01
  1.00800000E+00  1.20100000E+01  1.20100000E+01  1.20100000E+01  1.20100000E+01
  1.00800000E+00  1.20100000E+01  1.20100000E+01  1.00800000E+00  1.20100000E+01
  1.20100000E+01  1.20100000E+01  1.20100000E+01  1.20100000E+01  1.20100000E+01
  1.20100000E+01  1.20100000E+01  1.20100000E+01  1.20100000E+01  1.20100000E+01
  1.20100000E+01  1.20100000E+01  1.00800000E+00  1.20100000E+01  1.00800000E+00
  1.00800000E+00  1.20100000E+01  1.00800000E+00  1.20100000E+01  1.20100000E+01
  1.00800000E+00  1.20100000E+01  1.00800000E+00  1.20100000E+01  1.00800000E+00
  1.20100000E+01  1.00800000E+00  1.20100000E+01  1.00800000E+00  1.20100000E+01
  1.00800000E+00  1.20100000E+01  1.00800000E+00  1.20100000E+01  1.00800000E+00
  1.20100000E+01  1.00800000E+00  1.00800000E+00  1.20100000E+01  1.00800000E+00
  1.00800000E+00  1.00800000E+00  1.20100000E+01  1.00800000E+00  1.20100000E+01
  1.00800000E+00  1.00800000E+00  1.20100000E+01  1.00800000E+00  1.00800000E+00
  1.20100000E+01  1.00800000E+00  1.00800000E+00  1.60000000E+01  1.60000000E+01
  1.60000000E+01  1.60000000E+01  1.60000000E+01  1.60000000E+01  1.20100000E+01
  1.20100000E+01  1.20100000E+01  1.20100000E+01  1.20100000E+01  1.20100000E+01
  1.00800000E+00  1.00800000E+00  1.00800000E+00  1.00800000E+00  1.00800000E+00
  1.00800000E+00  1.00800000E+00  1.00800000E+00  1.00800000E+00  1.00800000E+00
  1.00800000E+00  1.00800000E+00  1.00800000E+00  1.00800000E+00  1.00800000E+00
  1.00800000E+00  1.00800000E+00  1.00800000E+00  1.60000000E+01  1.20100000E+01
  1.20100000E+01  1.20100000E+01  1.20100000E+01  1.00800000E+00  1.00800000E+00
  1.00800000E+00  1.20100000E+01  1.00800000E+00  1.20100000E+01  1.00800000E+00
  1.20100000E+01  1.00800000E+00  1.00800000E+00  1.40100000E+01  1.20100000E+01
  1.20100000E+01  1.20100000E+01  1.20100000E+01  1.20100000E+01  1.20100000E+01
  1.20100000E+01  1.00800000E+00  1.20100000E+01  1.00800000E+00  1.20100000E+01
  1.00800000E+00  1.20100000E+01  1.00800000E+00  1.20100000E+01  1.20100000E+01
  1.00800000E+00  1.20100000E+01  1.00800000E+00  1.00800000E+00  1.20100000E+01
  1.20100000E+01  1.20100000E+01  1.20100000E+01  1.60000000E+01  1.20100000E+01
  1.20100000E+01  1.20100000E+01  1.20100000E+01  1.20100000E+01  1.20100000E+01
  1.20100000E+01  1.20100000E+01  1.00800000E+00  1.20100000E+01  1.00800000E+00
  1.20100000E+01  1.00800000E+00  1.20100000E+01  1.00800000E+00  1.20100000E+01
  1.20100000E+01  1.00800000E+00  1.00800000E+00  1.00800000E+00  1.00800000E+00
  1.40100000E+01  1.40100000E+01  1.20100000E+01  1.00800000E+00  1.40100000E+01
  1.20100000E+01  1.00800000E+00  1.20100000E+01  1.20100000E+01  1.20100000E+01
  1.20100000E+01  1.00800000E+00  1.20100000E+01  1.20100000E+01  1.00800000E+00
  1.20100000E+01  1.20100000E+01  1.20100000E+01  1.20100000E+01  1.20100000E+01
  1.20100000E+01  1.20100000E+01  1.20100000E+01  1.20100000E+01  1.20100000E+01
  1.20100000E+01  1.20100000E+01  1.20100000E+01  1.00800000E+00  1.20100000E+01
  1.00800000E+00  1.00800000E+00  1.20100000E+01  1.00800000E+00  1.20100000E+01
  1.20100000E+01  1.00800000E+00  1.20100000E+01  1.00800000E+00  1.20100000E+01
  1.00800000E+00  1.20100000E+01  1.00800000E+00  1.20100000E+01  1.00800000E+00
  1.20100000E+01  1.00800000E+00  1.20100000E+01  1.00800000E+00  1.20100000E+01
  1.00800000E+00  1.20100000E+01  1.00800000E+00  1.00800000E+00  1.20100000E+01
  1.00800000E+00  1.00800000E+00  1.00800000E+00  1.20100000E+01  1.00800000E+00
  1.20100000E+01  1.00800000E+00  1.00800000E+00  1.20100000E+01  1.00800000E+00
  1.00800000E+00  1.20100000E+01  1.00800000E+00  1.00800000E+00  1.60000000E+01
  1.60000000E+01  1.60000000E+01  1.60000000E+01  1.60000000E+01  1.60000000E+01
  1.20100000E+01  1.20100000E+01  1.20100000E+01  1.20100000E+01  1.20100000E+01
  1.20100000E+01  1.00800000E+00  1.00800000E+00  1.00800000E+00  1.00800000E+00
  1.00800000E+00  1.00800000E+00  1.00800000E+00  1.00800000E+00  1.00800000E+00
  1.00800000E+00  1.00800000E+00  1.00800000E+00  1.00800000E+00  1.00800000E+00
  1.00800000E+00  1.00800000E+00  1.00800000E+00  1.00800000E+00  1.60000000E+01
  1.20100000E+01  1.20100000E+01  1.20100000E+01  1.20100000E+01  1.00800000E+00
  1.00800000E+00  1.00800000E+00  1.20100000E+01  1.00800000E+00  1.20100000E+01
  1.00800000E+00  1.20100000E+01  1.00800000E+00  1.00800000E+00  1.40100000E+01
  1.20100000E+01  1.20100000E+01  1.20100000E+01  1.20100000E+01  1.20100000E+01
  1.20100000E+01  1.20100000E+01  1.00800000E+00  1.20100000E+01  1.00800000E+00
  1.20100000E+01  1.00800000E+00  1.20100000E+01  1.00800000E+00  1.20100000E+01
  1.20100000E+01  1.00800000E+00  1.20100000E+01  1.00800000E+00  1.00800000E+00
  1.20100000E+01  1.20100000E+01  1.20100000E+01  1.20100000E+01  1.60000000E+01
  1.20100000E+01  1.20100000E+01  1.20100000E+01  1.20100000E+01  1.20100000E+01
  1.20100000E+01  1.20100000E+01  1.20100000E+01  1.00800000E+00  1.20100000E+01
  1.00800000E+00  1.20100000E+01  1.00800000E+00  1.20100000E+01  1.00800000E+00
  1.20100000E+01  1.20100000E+01  1.00800000E+00  1.00800000E+00  1.00800000E+00
  1.00800000E+00  1.40100000E+01  1.40100000E+01  1.20100000E+01  1.00800000E+00
  1.40100000E+01  1.20100000E+01  1.00800000E+00  1.20100000E+01  1.20100000E+01
  1.20100000E+01  1.20100000E+01  1.00800000E+00  1.20100000E+01  1.20100000E+01
  1.00800000E+00  1.20100000E+01  1.20100000E+01  1.20100000E+01  1.20100000E+01
  1.20100000E+01  1.20100000E+01  1.20100000E+01  1.20100000E+01  1.20100000E+01
  1.20100000E+01  1.20100000E+01  1.20100000E+01  1.20100000E+01  1.00800000E+00
  1.20100000E+01  1.00800000E+00  1.00800000E+00  1.20100000E+01  1.00800000E+00
  1.20100000E+01  1.20100000E+01  1.00800000E+00  1.20100000E+01  1.00800000E+00
  1.20100000E+01  1.00800000E+00  1.20100000E+01  1.00800000E+00  1.20100000E+01
  1.00800000E+00  1.20100000E+01  1.00800000E+00  1.20100000E+01  1.00800000E+00
  1.20100000E+01  1.00800000E+00  1.20100000E+01  1.00800000E+00  1.00800000E+00
  1.20100000E+01  1.00800000E+00  1.00800000E+00  1.00800000E+00  1.20100000E+01
  1.00800000E+00  1.20100000E+01  1.00800000E+00  1.00800000E+00  1.20100000E+01
  1.00800000E+00  1.00800000E+00  1.20100000E+01  1.00800000E+00  1.00800000E+00
  1.60000000E+01  1.60000000E+01  1.60000000E+01  1.60000000E+01  1.60000000E+01
  1.60000000E+01  1.20100000E+01  1.20100000E+01  1.20100000E+01  1.20100000E+01
  1.20100000E+01  1.20100000E+01  1.00800000E+00  1.00800000E+00  1.00800000E+00
  1.00800000E+00  1.00800000E+00  1.00800000E+00  1.00800000E+00  1.00800000E+00
  1.00800000E+00  1.00800000E+00  1.00800000E+00  1.00800000E+00  1.00800000E+00
  1.00800000E+00  1.00800000E+00  1.00800000E+00  1.00800000E+00  1.00800000E+00
  1.60000000E+01  1.20100000E+01  1.20100000E+01  1.20100000E+01  1.20100000E+01
  1.00800000E+00  1.00800000E+00  1.00800000E+00  1.20100000E+01  1.00800000E+00
  1.20100000E+01  1.00800000E+00  1.20100000E+01  1.00800000E+00  1.00800000E+00
  1.40100000E+01  1.20100000E+01  1.20100000E+01  1.20100000E+01  1.20100000E+01
  1.20100000E+01  1.20100000E+01  1.20100000E+01  1.00800000E+00  1.20100000E+01
  1.00800000E+00  1.20100000E+01  1.00800000E+00  1.20100000E+01  1.00800000E+00
  1.20100000E+01  1.20100000E+01  1.00800000E+00  1.20100000E+01  1.00800000E+00
  1.00800000E+00  1.20100000E+01  1.20100000E+01  1.20100000E+01  1.20100000E+01
  1.60000000E+01  1.20100000E+01  1.20100000E+01  1.20100000E+01  1.20100000E+01
  1.20100000E+01  1.20100000E+01  1.20100000E+01  1.20100000E+01  1.00800000E+00
  1.20100000E+01  1.00800000E+00  1.20100000E+01  1.00800000E+00  1.20100000E+01
  1.00800000E+00  1.20100000E+01  1.20100000E+01  1.00800000E+00  1.00800000E+00
  1.00800000E+00  1.00800000E+00  1.40100000E+01  1.40100000E+01  1.20100000E+01
  1.00800000E+00  1.40100000E+01  1.20100000E+01  1.00800000E+00  1.20100000E+01
  1.20100000E+01  1.20100000E+01  1.20100000E+01  1.00800000E+00  1.20100000E+01
  1.20100000E+01  1.00800000E+00  1.20100000E+01  1.20100000E+01  1.20100000E+01
  1.20100000E+01  1.20100000E+01  1.20100000E+01  1.20100000E+01  1.20100000E+01
  1.20100000E+01  1.20100000E+01  1.20100000E+01  1.20100000E+01  1.20100000E+01
  1.00800000E+00  1.20100000E+01  1.00800000E+00  1.00800000E+00  1.20100000E+01
  1.00800000E+00  1.20100000E+01  1.20100000E+01  1.00800000E+00  1.20100000E+01
  1.00800000E+00  1.20100000E+01  1.00800000E+00  1.20100000E+01  1.00800000E+00
  1.20100000E+01  1.00800000E+00  1.20100000E+01  1.00800000E+00  1.20100000E+01
  1.00800000E+00  1.20100000E+01  1.00800000E+00  1.20100000E+01  1.00800000E+00
  1.00800000E+00  1.20100000E+01  1.00800000E+00  1.00800000E+00  1.00800000E+00
  1.20100000E+01  1.00800000E+00  1.20100000E+01  1.00800000E+00  1.00800000E+00
  1.20100000E+01  1.00800000E+00  1.00800000E+00  1.20100000E+01  1.00800000E+00
  1.00800000E+00  1.60000000E+01  1.60000000E+01  1.60000000E+01  1.60000000E+01
  1.60000000E+01  1.60000000E+01  1.20100000E+01  1.20100000E+01  1.20100000E+01
  1.20100000E+01  1.20100000E+01  1.20100000E+01  1.00800000E+00  1.00800000E+00
  1.00800000E+00  1.00800000E+00  1.00800000E+00  1.00800000E+00  1.00800000E+00
  1.00800000E+00  1.00800000E+00  1.00800000E+00  1.00800000E+00  1.00800000E+00
  1.00800000E+00  1.00800000E+00  1.00800000E+00  1.00800000E+00  1.00800000E+00
  1.00800000E+00  1.60000000E+01  1.20100000E+01  1.20100000E+01  1.20100000E+01
  1.20100000E+01  1.00800000E+00  1.00800000E+00  1.00800000E+00  1.20100000E+01
  1.00800000E+00  1.20100000E+01  1.00800000E+00  1.20100000E+01  1.00800000E+00
  1.00800000E+00  1.40100000E+01  1.20100000E+01  1.20100000E+01  1.20100000E+01
  1.20100000E+01  1.20100000E+01  1.20100000E+01  1.20100000E+01  1.00800000E+00
  1.20100000E+01  1.00800000E+00  1.20100000E+01  1.00800000E+00  1.20100000E+01
  1.00800000E+00  1.20100000E+01  1.20100000E+01  1.00800000E+00  1.20100000E+01
  1.00800000E+00  1.00800000E+00  1.20100000E+01  1.20100000E+01  1.20100000E+01
  1.20100000E+01  1.60000000E+01  1.20100000E+01  1.20100000E+01  1.20100000E+01
  1.20100000E+01  1.20100000E+01  1.20100000E+01  1.20100000E+01  1.20100000E+01
  1.00800000E+00  1.20100000E+01  1.00800000E+00  1.20100000E+01  1.00800000E+00
  1.20100000E+01  1.00800000E+00  1.20100000E+01  1.20100000E+01  1.00800000E+00
  1.00800000E+00  1.00800000E+00  1.00800000E+00  1.40100000E+01  1.40100000E+01
  1.20100000E+01  1.00800000E+00  1.40100000E+01  1.20100000E+01  1.00800000E+00
  1.20100000E+01  1.20100000E+01  1.20100000E+01  1.20100000E+01  1.00800000E+00
  1.20100000E+01  1.20100000E+01  1.00800000E+00  1.20100000E+01  1.20100000E+01
  1.20100000E+01  1.20100000E+01  1.20100000E+01  1.20100000E+01  1.20100000E+01
  1.20100000E+01  1.20100000E+01  1.20100000E+01  1.20100000E+01  1.20100000E+01
  1.20100000E+01  1.00800000E+00  1.20100000E+01  1.00800000E+00  1.00800000E+00
  1.20100000E+01  1.00800000E+00  1.20100000E+01  1.20100000E+01  1.00800000E+00
  1.20100000E+01  1.00800000E+00  1.20100000E+01  1.00800000E+00  1.20100000E+01
  1.00800000E+00  1.20100000E+01  1.00800000E+00  1.20100000E+01  1.00800000E+00
  1.20100000E+01  1.00800000E+00  1.20100000E+01  1.00800000E+00  1.20100000E+01
  1.00800000E+00  1.00800000E+00  1.20100000E+01  1.00800000E+00  1.00800000E+00
  1.00800000E+00  1.20100000E+01  1.00800000E+00  1.20100000E+01  1.00800000E+00
  1.00800000E+00  1.20100000E+01  1.00800000E+00  1.00800000E+00  1.20100000E+01
  1.00800000E+00  1.00800000E+00  1.60000000E+01  1.60000000E+01  1.60000000E+01
  1.60000000E+01  1.60000000E+01  1.60000000E+01  1.20100000E+01  1.20100000E+01
  1.20100000E+01  1.20100000E+01  1.20100000E+01  1.20100000E+01  1.00800000E+00
  1.00800000E+00  1.00800000E+00  1.00800000E+00  1.00800000E+00  1.00800000E+00
  1.00800000E+00  1.00800000E+00  1.00800000E+00  1.00800000E+00  1.00800000E+00
  1.00800000E+00  1.00800000E+00  1.00800000E+00  1.00800000E+00  1.00800000E+00
  1.00800000E+00  1.00800000E+00  1.60000000E+01  1.20100000E+01  1.20100000E+01
  1.20100000E+01  1.20100000E+01  1.00800000E+00  1.00800000E+00  1.00800000E+00
  1.20100000E+01  1.00800000E+00  1.20100000E+01  1.00800000E+00  1.20100000E+01
  1.00800000E+00  1.00800000E+00  1.40100000E+01  1.20100000E+01  1.20100000E+01
  1.20100000E+01  1.20100000E+01  1.20100000E+01  1.20100000E+01  1.20100000E+01
  1.00800000E+00  1.20100000E+01  1.00800000E+00  1.20100000E+01  1.00800000E+00
  1.20100000E+01  1.00800000E+00  1.20100000E+01  1.20100000E+01  1.00800000E+00
  1.20100000E+01  1.00800000E+00  1.00800000E+00  1.20100000E+01  1.20100000E+01
  1.20100000E+01  1.20100000E+01  1.60000000E+01  1.20100000E+01  1.20100000E+01
  1.20100000E+01  1.20100000E+01  1.20100000E+01  1.20100000E+01  1.20100000E+01
  1.20100000E+01  1.00800000E+00  1.20100000E+01  1.00800000E+00  1.20100000E+01
  1.00800000E+00  1.20100000E+01  1.00800000E+00  1.20100000E+01  1.20100000E+01
  1.00800000E+00  1.00800000E+00  1.00800000E+00  1.00800000E+00  1.40100000E+01
  1.40100000E+01  1.20100000E+01  1.00800000E+00  1.40100000E+01  1.20100000E+01
  1.00800000E+00  1.20100000E+01  1.20100000E+01  1.20100000E+01  1.20100000E+01
  1.00800000E+00  1.20100000E+01  1.20100000E+01  1.00800000E+00  1.20100000E+01
  1.20100000E+01  1.20100000E+01  1.20100000E+01  1.20100000E+01  1.20100000E+01
  1.20100000E+01  1.20100000E+01  1.20100000E+01  1.20100000E+01  1.20100000E+01
  1.20100000E+01  1.20100000E+01  1.00800000E+00  1.20100000E+01  1.00800000E+00
  1.00800000E+00  1.20100000E+01  1.00800000E+00  1.20100000E+01  1.20100000E+01
  1.00800000E+00  1.20100000E+01  1.00800000E+00  1.20100000E+01  1.00800000E+00
  1.20100000E+01  1.00800000E+00  1.20100000E+01  1.00800000E+00  1.20100000E+01
  1.00800000E+00  1.20100000E+01  1.00800000E+00  1.20100000E+01  1.00800000E+00
  1.20100000E+01  1.00800000E+00  1.00800000E+00  1.20100000E+01  1.00800000E+00
  1.00800000E+00  1.00800000E+00  1.20100000E+01  1.00800000E+00  1.20100000E+01
  1.00800000E+00  1.00800000E+00  1.20100000E+01  1.00800000E+00  1.00800000E+00
  1.20100000E+01  1.00800000E+00  1.00800000E+00  1.60000000E+01  1.60000000E+01
  1.60000000E+01  1.60000000E+01  1.60000000E+01  1.60000000E+01  1.20100000E+01
  1.20100000E+01  1.20100000E+01  1.20100000E+01  1.20100000E+01  1.20100000E+01
  1.00800000E+00  1.00800000E+00  1.00800000E+00  1.00800000E+00  1.00800000E+00
  1.00800000E+00  1.00800000E+00  1.00800000E+00  1.00800000E+00  1.00800000E+00
  1.00800000E+00  1.00800000E+00  1.00800000E+00  1.00800000E+00  1.00800000E+00
  1.00800000E+00  1.00800000E+00  1.00800000E+00  1.60000000E+01  1.20100000E+01
  1.20100000E+01  1.20100000E+01  1.20100000E+01  1.00800000E+00  1.00800000E+00
  1.00800000E+00  1.20100000E+01  1.00800000E+00  1.20100000E+01  1.00800000E+00
  1.20100000E+01  1.00800000E+00  1.00800000E+00  1.40100000E+01  1.20100000E+01
  1.20100000E+01  1.20100000E+01  1.20100000E+01  1.20100000E+01  1.20100000E+01
  1.20100000E+01  1.00800000E+00  1.20100000E+01  1.00800000E+00  1.20100000E+01
  1.00800000E+00  1.20100000E+01  1.00800000E+00  1.20100000E+01  1.20100000E+01
  1.00800000E+00  1.20100000E+01  1.00800000E+00  1.00800000E+00  1.20100000E+01
  1.20100000E+01  1.20100000E+01  1.20100000E+01  1.60000000E+01  1.20100000E+01
  1.20100000E+01  1.20100000E+01  1.20100000E+01  1.20100000E+01  1.20100000E+01
  1.20100000E+01  1.20100000E+01  1.00800000E+00  1.20100000E+01  1.00800000E+00
  1.20100000E+01  1.00800000E+00  1.20100000E+01  1.00800000E+00  1.20100000E+01
  1.20100000E+01  1.00800000E+00  1.00800000E+00  1.00800000E+00  1.00800000E+00
  1.40100000E+01  1.40100000E+01  1.20100000E+01  1.00800000E+00  1.40100000E+01
  1.20100000E+01  1.00800000E+00  1.20100000E+01  1.20100000E+01  1.20100000E+01
  1.20100000E+01  1.00800000E+00  1.20100000E+01  1.20100000E+01  1.00800000E+00
  1.20100000E+01  1.20100000E+01  1.20100000E+01  1.20100000E+01  1.20100000E+01
  1.20100000E+01  1.20100000E+01  1.20100000E+01  1.20100000E+01  1.20100000E+01
  1.20100000E+01  1.20100000E+01  1.20100000E+01  1.00800000E+00  1.20100000E+01
  1.00800000E+00  1.00800000E+00  1.20100000E+01  1.00800000E+00  1.20100000E+01
  1.20100000E+01  1.00800000E+00  1.20100000E+01  1.00800000E+00  1.20100000E+01
  1.00800000E+00  1.20100000E+01  1.00800000E+00  1.20100000E+01  1.00800000E+00
  1.20100000E+01  1.00800000E+00  1.20100000E+01  1.00800000E+00  1.20100000E+01
  1.00800000E+00  1.20100000E+01  1.00800000E+00  1.00800000E+00  1.20100000E+01
  1.00800000E+00  1.00800000E+00  1.00800000E+00  1.20100000E+01  1.00800000E+00
  1.20100000E+01  1.00800000E+00  1.00800000E+00  1.20100000E+01  1.00800000E+00
  1.00800000E+00  1.20100000E+01  1.00800000E+00  1.00800000E+00  1.60000000E+01
  1.60000000E+01  1.60000000E+01  1.60000000E+01  1.60000000E+01  1.60000000E+01
  1.20100000E+01  1.20100000E+01  1.20100000E+01  1.20100000E+01  1.20100000E+01
  1.20100000E+01  1.00800000E+00  1.00800000E+00  1.00800000E+00  1.00800000E+00
  1.00800000E+00  1.00800000E+00  1.00800000E+00  1.00800000E+00  1.00800000E+00
  1.00800000E+00  1.00800000E+00  1.00800000E+00  1.00800000E+00  1.00800000E+00
  1.00800000E+00  1.00800000E+00  1.00800000E+00  1.00800000E+00  1.60000000E+01
  1.20100000E+01  1.20100000E+01  1.20100000E+01  1.20100000E+01  1.00800000E+00
  1.00800000E+00  1.00800000E+00  1.20100000E+01  1.00800000E+00  1.20100000E+01
  1.00800000E+00  1.20100000E+01  1.00800000E+00  1.00800000E+00  1.40100000E+01
  1.20100000E+01  1.20100000E+01  1.20100000E+01  1.20100000E+01  1.20100000E+01
  1.20100000E+01  1.20100000E+01  1.00800000E+00  1.20100000E+01  1.00800000E+00
  1.20100000E+01  1.00800000E+00  1.20100000E+01  1.00800000E+00  1.20100000E+01
  1.20100000E+01  1.00800000E+00  1.20100000E+01  1.00800000E+00  1.00800000E+00
  1.20100000E+01  1.20100000E+01  1.20100000E+01  1.20100000E+01  1.60000000E+01
  1.20100000E+01  1.20100000E+01  1.20100000E+01  1.20100000E+01  1.20100000E+01
  1.20100000E+01  1.20100000E+01  1.20100000E+01  1.00800000E+00  1.20100000E+01
  1.00800000E+00  1.20100000E+01  1.00800000E+00  1.20100000E+01  1.00800000E+00
  1.20100000E+01  1.20100000E+01  1.00800000E+00  1.00800000E+00  1.00800000E+00
  1.00800000E+00  1.40100000E+01  1.40100000E+01  1.20100000E+01  1.00800000E+00
  1.40100000E+01  1.20100000E+01  1.00800000E+00  1.20100000E+01  1.20100000E+01
  1.20100000E+01  1.20100000E+01  1.00800000E+00  1.20100000E+01  1.20100000E+01
  1.00800000E+00  1.20100000E+01  1.20100000E+01  1.20100000E+01  1.20100000E+01
  1.20100000E+01  1.20100000E+01  1.20100000E+01  1.20100000E+01  1.20100000E+01
  1.20100000E+01  1.20100000E+01  1.20100000E+01  1.20100000E+01  1.00800000E+00
  1.20100000E+01  1.00800000E+00  1.00800000E+00  1.20100000E+01  1.00800000E+00
  1.20100000E+01  1.20100000E+01  1.00800000E+00  1.20100000E+01  1.00800000E+00
  1.20100000E+01  1.00800000E+00  1.20100000E+01  1.00800000E+00  1.20100000E+01
  1.00800000E+00  1.20100000E+01  1.00800000E+00  1.20100000E+01  1.00800000E+00
  1.20100000E+01  1.00800000E+00  1.20100000E+01  1.00800000E+00  1.00800000E+00
  1.20100000E+01  1.00800000E+00  1.00800000E+00  1.00800000E+00  1.20100000E+01
  1.00800000E+00  1.20100000E+01  1.00800000E+00  1.00800000E+00  1.20100000E+01
  1.00800000E+00  1.00800000E+00  1.20100000E+01  1.00800000E+00  1.00800000E+00
  1.60000000E+01  1.60000000E+01  1.60000000E+01  1.60000000E+01  1.60000000E+01
  1.60000000E+01  1.20100000E+01  1.20100000E+01  1.20100000E+01  1.20100000E+01
  1.20100000E+01  1.20100000E+01  1.00800000E+00  1.00800000E+00  1.00800000E+00
  1.00800000E+00  1.00800000E+00  1.00800000E+00  1.00800000E+00  1.00800000E+00
  1.00800000E+00  1.00800000E+00  1.00800000E+00  1.00800000E+00  1.00800000E+00
  1.00800000E+00  1.00800000E+00  1.00800000E+00  1.00800000E+00  1.00800000E+00
  1.60000000E+01  1.20100000E+01  1.20100000E+01  1.20100000E+01  1.20100000E+01
  1.00800000E+00  1.00800000E+00  1.00800000E+00  1.20100000E+01  1.00800000E+00
  1.20100000E+01  1.00800000E+00  1.20100000E+01  1.00800000E+00  1.00800000E+00
  1.40100000E+01  1.20100000E+01  1.20100000E+01  1.20100000E+01  1.20100000E+01
  1.20100000E+01  1.20100000E+01  1.20100000E+01  1.00800000E+00  1.20100000E+01
  1.00800000E+00  1.20100000E+01  1.00800000E+00  1.20100000E+01  1.00800000E+00
  1.20100000E+01  1.20100000E+01  1.00800000E+00  1.20100000E+01  1.00800000E+00
  1.00800000E+00  1.20100000E+01  1.20100000E+01  1.20100000E+01  1.20100000E+01
  1.60000000E+01  1.20100000E+01  1.20100000E+01  1.20100000E+01  1.20100000E+01
  1.20100000E+01  1.20100000E+01  1.20100000E+01  1.20100000E+01  1.00800000E+00
  1.20100000E+01  1.00800000E+00  1.20100000E+01  1.00800000E+00  1.20100000E+01
  1.00800000E+00  1.20100000E+01  1.20100000E+01  1.00800000E+00  1.00800000E+00
  1.00800000E+00  1.00800000E+00  1.40100000E+01  1.40100000E+01  1.20100000E+01
  1.00800000E+00  1.40100000E+01  1.20100000E+01  1.00800000E+00  1.20100000E+01
  1.20100000E+01  1.20100000E+01  1.20100000E+01  1.00800000E+00  1.20100000E+01
  1.20100000E+01  1.00800000E+00  1.20100000E+01  1.20100000E+01  1.20100000E+01
  1.20100000E+01  1.20100000E+01  1.20100000E+01  1.20100000E+01  1.20100000E+01
  1.20100000E+01  1.20100000E+01  1.20100000E+01  1.20100000E+01  1.20100000E+01
  1.00800000E+00  1.20100000E+01  1.00800000E+00  1.00800000E+00  1.20100000E+01
  1.00800000E+00  1.20100000E+01  1.20100000E+01  1.00800000E+00  1.20100000E+01
  1.00800000E+00  1.20100000E+01  1.00800000E+00  1.20100000E+01  1.00800000E+00
  1.20100000E+01  1.00800000E+00  1.20100000E+01  1.00800000E+00  1.20100000E+01
  1.00800000E+00  1.20100000E+01  1.00800000E+00  1.20100000E+01  1.00800000E+00
  1.00800000E+00  1.20100000E+01  1.00800000E+00  1.00800000E+00  1.00800000E+00
  1.20100000E+01  1.00800000E+00  1.20100000E+01  1.00800000E+00  1.00800000E+00
  1.20100000E+01  1.00800000E+00  1.00800000E+00  1.20100000E+01  1.00800000E+00
  1.00800000E+00  1.60000000E+01  1.60000000E+01  1.60000000E+01  1.60000000E+01
  1.60000000E+01  1.60000000E+01  1.20100000E+01  1.20100000E+01  1.20100000E+01
  1.20100000E+01  1.20100000E+01  1.20100000E+01  1.00800000E+00  1.00800000E+00
  1.00800000E+00  1.00800000E+00  1.00800000E+00  1.00800000E+00  1.00800000E+00
  1.00800000E+00  1.00800000E+00  1.00800000E+00  1.00800000E+00  1.00800000E+00
  1.00800000E+00  1.00800000E+00  1.00800000E+00  1.00800000E+00  1.00800000E+00
  1.00800000E+00  1.60000000E+01  1.20100000E+01  1.20100000E+01  1.20100000E+01
  1.20100000E+01  1.00800000E+00  1.00800000E+00  1.00800000E+00  1.20100000E+01
  1.00800000E+00  1.20100000E+01  1.00800000E+00  1.20100000E+01  1.00800000E+00
  1.00800000E+00  1.40100000E+01  1.20100000E+01  1.20100000E+01  1.20100000E+01
  1.20100000E+01  1.20100000E+01  1.20100000E+01  1.20100000E+01  1.00800000E+00
  1.20100000E+01  1.00800000E+00  1.20100000E+01  1.00800000E+00  1.20100000E+01
  1.00800000E+00  1.20100000E+01  1.20100000E+01  1.00800000E+00  1.20100000E+01
  1.00800000E+00  1.00800000E+00  1.20100000E+01  1.20100000E+01  1.20100000E+01
  1.20100000E+01  1.60000000E+01  1.20100000E+01  1.20100000E+01  1.20100000E+01
  1.20100000E+01  1.20100000E+01  1.20100000E+01  1.20100000E+01  1.20100000E+01
  1.00800000E+00  1.20100000E+01  1.00800000E+00  1.20100000E+01  1.00800000E+00
  1.20100000E+01  1.00800000E+00  1.20100000E+01  1.20100000E+01  1.00800000E+00
  1.00800000E+00  1.00800000E+00  1.00800000E+00  1.40100000E+01  1.40100000E+01
  1.20100000E+01  1.00800000E+00  1.40100000E+01  1.20100000E+01  1.00800000E+00
  1.20100000E+01  1.20100000E+01  1.20100000E+01  1.20100000E+01  1.00800000E+00
  1.20100000E+01  1.20100000E+01  1.00800000E+00  1.20100000E+01  1.20100000E+01
  1.20100000E+01  1.20100000E+01  1.20100000E+01  1.20100000E+01  1.20100000E+01
  1.20100000E+01  1.20100000E+01  1.20100000E+01  1.20100000E+01  1.20100000E+01
  1.20100000E+01  1.00800000E+00  1.20100000E+01  1.00800000E+00  1.00800000E+00
  1.20100000E+01  1.00800000E+00  1.20100000E+01  1.20100000E+01  1.00800000E+00
  1.20100000E+01  1.00800000E+00  1.20100000E+01  1.00800000E+00  1.20100000E+01
  1.00800000E+00  1.20100000E+01  1.00800000E+00  1.20100000E+01  1.00800000E+00
  1.20100000E+01  1.00800000E+00  1.20100000E+01  1.00800000E+00  1.20100000E+01
  1.00800000E+00  1.00800000E+00  1.20100000E+01  1.00800000E+00  1.00800000E+00
  1.00800000E+00  1.20100000E+01  1.00800000E+00  1.20100000E+01  1.00800000E+00
  1.00800000E+00  1.20100000E+01  1.00800000E+00  1.00800000E+00  1.20100000E+01
  1.00800000E+00  1.00800000E+00  1.60000000E+01  1.60000000E+01  1.60000000E+01
  1.60000000E+01  1.60000000E+01  1.60000000E+01  1.20100000E+01  1.20100000E+01
  1.20100000E+01  1.20100000E+01  1.20100000E+01  1.20100000E+01  1.00800000E+00
  1.00800000E+00  1.00800000E+00  1.00800000E+00  1.00800000E+00  1.00800000E+00
  1.00800000E+00  1.00800000E+00  1.00800000E+00  1.00800000E+00  1.00800000E+00
  1.00800000E+00  1.00800000E+00  1.00800000E+00  1.00800000E+00  1.00800000E+00
  1.00800000E+00  1.00800000E+00  1.60000000E+01  1.20100000E+01  1.20100000E+01
  1.20100000E+01  1.20100000E+01  1.00800000E+00  1.00800000E+00  1.00800000E+00
  1.20100000E+01  1.00800000E+00  1.20100000E+01  1.00800000E+00  1.20100000E+01
  1.00800000E+00  1.00800000E+00  1.40100000E+01  1.20100000E+01  1.20100000E+01
  1.20100000E+01  1.20100000E+01  1.20100000E+01  1.20100000E+01  1.20100000E+01
  1.00800000E+00  1.20100000E+01  1.00800000E+00  1.20100000E+01  1.00800000E+00
  1.20100000E+01  1.00800000E+00  1.20100000E+01  1.20100000E+01  1.00800000E+00
  1.20100000E+01  1.00800000E+00  1.00800000E+00  1.20100000E+01  1.20100000E+01
  1.20100000E+01  1.20100000E+01  1.60000000E+01  1.20100000E+01  1.20100000E+01
  1.20100000E+01  1.20100000E+01  1.20100000E+01  1.20100000E+01  1.20100000E+01
  1.20100000E+01  1.00800000E+00  1.20100000E+01  1.00800000E+00  1.20100000E+01
  1.00800000E+00  1.20100000E+01  1.00800000E+00  1.20100000E+01  1.20100000E+01
  1.00800000E+00  1.00800000E+00  1.00800000E+00  1.00800000E+00  1.40100000E+01
  1.40100000E+01  1.20100000E+01  1.00800000E+00  1.40100000E+01  1.20100000E+01
  1.00800000E+00  1.20100000E+01  1.20100000E+01  1.20100000E+01  1.20100000E+01
  1.00800000E+00  1.20100000E+01  1.20100000E+01  1.00800000E+00  1.20100000E+01
  1.20100000E+01  1.20100000E+01  1.20100000E+01  1.20100000E+01  1.20100000E+01
  1.20100000E+01  1.20100000E+01  1.20100000E+01  1.20100000E+01  1.20100000E+01
  1.20100000E+01  1.20100000E+01  1.00800000E+00  1.20100000E+01  1.00800000E+00
  1.00800000E+00  1.20100000E+01  1.00800000E+00  1.20100000E+01  1.20100000E+01
  1.00800000E+00  1.20100000E+01  1.00800000E+00  1.20100000E+01  1.00800000E+00
  1.20100000E+01  1.00800000E+00  1.20100000E+01  1.00800000E+00  1.20100000E+01
  1.00800000E+00  1.20100000E+01  1.00800000E+00  1.20100000E+01  1.00800000E+00
  1.20100000E+01  1.00800000E+00  1.00800000E+00  1.20100000E+01  1.00800000E+00
  1.00800000E+00  1.00800000E+00  1.20100000E+01  1.00800000E+00  1.20100000E+01
  1.00800000E+00  1.00800000E+00  1.20100000E+01  1.00800000E+00  1.00800000E+00
  1.20100000E+01  1.00800000E+00  1.00800000E+00  1.60000000E+01  1.60000000E+01
  1.60000000E+01  1.60000000E+01  1.60000000E+01  1.60000000E+01  1.20100000E+01
  1.20100000E+01  1.20100000E+01  1.20100000E+01  1.20100000E+01  1.20100000E+01
  1.00800000E+00  1.00800000E+00  1.00800000E+00  1.00800000E+00  1.00800000E+00
  1.00800000E+00  1.00800000E+00  1.00800000E+00  1.00800000E+00  1.00800000E+00
  1.00800000E+00  1.00800000E+00  1.00800000E+00  1.00800000E+00  1.00800000E+00
  1.00800000E+00  1.00800000E+00  1.00800000E+00  1.60000000E+01  1.20100000E+01
  1.20100000E+01  1.20100000E+01  1.20100000E+01  1.00800000E+00  1.00800000E+00
  1.00800000E+00  1.20100000E+01  1.00800000E+00  1.20100000E+01  1.00800000E+00
  1.20100000E+01  1.00800000E+00  1.00800000E+00  1.40100000E+01  1.20100000E+01
  1.20100000E+01  1.20100000E+01  1.20100000E+01  1.20100000E+01  1.20100000E+01
  1.20100000E+01  1.00800000E+00  1.20100000E+01  1.00800000E+00  1.20100000E+01
  1.00800000E+00  1.20100000E+01  1.00800000E+00  1.20100000E+01  1.20100000E+01
  1.00800000E+00  1.20100000E+01  1.00800000E+00  1.00800000E+00  1.20100000E+01
  1.20100000E+01  1.20100000E+01  1.20100000E+01  1.60000000E+01  1.20100000E+01
  1.20100000E+01  1.20100000E+01  1.20100000E+01  1.20100000E+01  1.20100000E+01
  1.20100000E+01  1.20100000E+01  1.00800000E+00  1.20100000E+01  1.00800000E+00
  1.20100000E+01  1.00800000E+00  1.20100000E+01  1.00800000E+00  1.20100000E+01
  1.20100000E+01  1.00800000E+00  1.00800000E+00  1.00800000E+00  1.00800000E+00
  1.40100000E+01  1.40100000E+01  1.20100000E+01  1.00800000E+00  1.40100000E+01
  1.20100000E+01  1.00800000E+00  1.20100000E+01  1.20100000E+01  1.20100000E+01
  1.20100000E+01  1.00800000E+00  1.20100000E+01  1.20100000E+01  1.00800000E+00
  1.20100000E+01  1.20100000E+01  1.20100000E+01  1.20100000E+01  1.20100000E+01
  1.20100000E+01  1.20100000E+01  1.20100000E+01  1.20100000E+01  1.20100000E+01
  1.20100000E+01  1.20100000E+01  1.20100000E+01  1.00800000E+00  1.20100000E+01
  1.00800000E+00  1.00800000E+00  1.20100000E+01  1.00800000E+00  1.20100000E+01
  1.20100000E+01  1.00800000E+00  1.20100000E+01  1.00800000E+00  1.20100000E+01
  1.00800000E+00  1.20100000E+01  1.00800000E+00  1.20100000E+01  1.00800000E+00
  1.20100000E+01  1.00800000E+00  1.20100000E+01  1.00800000E+00  1.20100000E+01
  1.00800000E+00  1.20100000E+01  1.00800000E+00  1.00800000E+00  1.20100000E+01
  1.00800000E+00  1.00800000E+00  1.00800000E+00  1.20100000E+01  1.00800000E+00
  1.20100000E+01  1.00800000E+00  1.00800000E+00  1.20100000E+01  1.00800000E+00
  1.00800000E+00  1.20100000E+01  1.00800000E+00  1.00800000E+00  1.60000000E+01
  1.60000000E+01  1.60000000E+01  1.60000000E+01  1.60000000E+01  1.60000000E+01
  1.20100000E+01  1.20100000E+01  1.20100000E+01  1.20100000E+01  1.20100000E+01
  1.20100000E+01  1.00800000E+00  1.00800000E+00  1.00800000E+00  1.00800000E+00
  1.00800000E+00  1.00800000E+00  1.00800000E+00  1.00800000E+00  1.00800000E+00
  1.00800000E+00  1.00800000E+00  1.00800000E+00  1.00800000E+00  1.00800000E+00
  1.00800000E+00  1.00800000E+00  1.00800000E+00  1.00800000E+00  1.60000000E+01
  1.20100000E+01  1.20100000E+01  1.20100000E+01  1.20100000E+01  1.00800000E+00
  1.00800000E+00  1.00800000E+00  1.20100000E+01  1.00800000E+00  1.20100000E+01
  1.00800000E+00  1.20100000E+01  1.00800000E+00  1.00800000E+00  1.40100000E+01
  1.20100000E+01  1.20100000E+01  1.20100000E+01  1.20100000E+01  1.20100000E+01
  1.20100000E+01  1.20100000E+01  1.00800000E+00  1.20100000E+01  1.00800000E+00
  1.20100000E+01  1.00800000E+00  1.20100000E+01  1.00800000E+00  1.20100000E+01
  1.20100000E+01  1.00800000E+00  1.20100000E+01  1.00800000E+00  1.00800000E+00
  1.20100000E+01  1.20100000E+01  1.20100000E+01  1.20100000E+01  1.60000000E+01
  1.20100000E+01  1.20100000E+01  1.20100000E+01  1.20100000E+01  1.20100000E+01
  1.20100000E+01  1.20100000E+01  1.20100000E+01  1.00800000E+00  1.20100000E+01
  1.00800000E+00  1.20100000E+01  1.00800000E+00  1.20100000E+01  1.00800000E+00
  1.20100000E+01  1.20100000E+01  1.00800000E+00  1.00800000E+00  1.00800000E+00
  1.00800000E+00  1.40100000E+01  1.40100000E+01  1.20100000E+01  1.00800000E+00
  1.40100000E+01  1.20100000E+01  1.00800000E+00  1.20100000E+01  1.20100000E+01
  1.20100000E+01  1.20100000E+01  1.00800000E+00  1.20100000E+01  1.20100000E+01
  1.00800000E+00  1.20100000E+01  1.20100000E+01  1.20100000E+01  1.20100000E+01
  1.20100000E+01  1.20100000E+01  1.20100000E+01  1.20100000E+01  1.20100000E+01
  1.20100000E+01  1.20100000E+01  1.20100000E+01  1.20100000E+01  1.00800000E+00
  1.20100000E+01  1.00800000E+00  1.00800000E+00  1.20100000E+01  1.00800000E+00
  1.20100000E+01  1.20100000E+01  1.00800000E+00  1.20100000E+01  1.00800000E+00
  1.20100000E+01  1.00800000E+00  1.20100000E+01  1.00800000E+00  1.20100000E+01
  1.00800000E+00  1.20100000E+01  1.00800000E+00  1.20100000E+01  1.00800000E+00
  1.20100000E+01  1.00800000E+00  1.20100000E+01  1.00800000E+00  1.00800000E+00
  1.20100000E+01  1.00800000E+00  1.00800000E+00  1.00800000E+00  1.20100000E+01
  1.00800000E+00  1.20100000E+01  1.00800000E+00  1.00800000E+00  1.20100000E+01
  1.00800000E+00  1.00800000E+00  1.20100000E+01  1.00800000E+00  1.00800000E+00
  1.60000000E+01  1.60000000E+01  1.60000000E+01  1.60000000E+01  1.60000000E+01
  1.60000000E+01  1.20100000E+01  1.20100000E+01  1.20100000E+01  1.20100000E+01
  1.20100000E+01  1.20100000E+01  1.00800000E+00  1.00800000E+00  1.00800000E+00
  1.00800000E+00  1.00800000E+00  1.00800000E+00  1.00800000E+00  1.00800000E+00
  1.00800000E+00  1.00800000E+00  1.00800000E+00  1.00800000E+00  1.00800000E+00
  1.00800000E+00  1.00800000E+00  1.00800000E+00  1.00800000E+00  1.00800000E+00
  1.60000000E+01  1.20100000E+01  1.20100000E+01  1.20100000E+01  1.20100000E+01
  1.00800000E+00  1.00800000E+00  1.00800000E+00  1.20100000E+01  1.00800000E+00
  1.20100000E+01  1.00800000E+00  1.20100000E+01  1.00800000E+00  1.00800000E+00
  1.40100000E+01  1.20100000E+01  1.20100000E+01  1.20100000E+01  1.20100000E+01
  1.20100000E+01  1.20100000E+01  1.20100000E+01  1.00800000E+00  1.20100000E+01
  1.00800000E+00  1.20100000E+01  1.00800000E+00  1.20100000E+01  1.00800000E+00
  1.20100000E+01  1.20100000E+01  1.00800000E+00  1.20100000E+01  1.00800000E+00
  1.00800000E+00  1.20100000E+01  1.20100000E+01  1.20100000E+01  1.20100000E+01
  1.60000000E+01  1.20100000E+01  1.20100000E+01  1.20100000E+01  1.20100000E+01
  1.20100000E+01  1.20100000E+01  1.20100000E+01  1.20100000E+01  1.00800000E+00
  1.20100000E+01  1.00800000E+00  1.20100000E+01  1.00800000E+00  1.20100000E+01
  1.00800000E+00  1.20100000E+01  1.20100000E+01  1.00800000E+00  1.00800000E+00
  1.00800000E+00  1.00800000E+00  1.40100000E+01  1.40100000E+01  1.20100000E+01
  1.00800000E+00  1.40100000E+01  1.20100000E+01  1.00800000E+00  1.20100000E+01
  1.20100000E+01  1.20100000E+01  1.20100000E+01  1.00800000E+00  1.20100000E+01
  1.20100000E+01  1.00800000E+00  1.20100000E+01  1.20100000E+01  1.20100000E+01
  1.20100000E+01  1.20100000E+01  1.20100000E+01  1.20100000E+01  1.20100000E+01
  1.20100000E+01  1.20100000E+01  1.20100000E+01  1.20100000E+01  1.20100000E+01
  1.00800000E+00  1.20100000E+01  1.00800000E+00  1.00800000E+00  1.20100000E+01
  1.00800000E+00  1.20100000E+01  1.20100000E+01  1.00800000E+00  1.20100000E+01
  1.00800000E+00  1.20100000E+01  1.00800000E+00  1.20100000E+01  1.00800000E+00
  1.20100000E+01  1.00800000E+00  1.20100000E+01  1.00800000E+00  1.20100000E+01
  1.00800000E+00  1.20100000E+01  1.00800000E+00  1.20100000E+01  1.00800000E+00
  1.00800000E+00  1.20100000E+01  1.00800000E+00  1.00800000E+00  1.00800000E+00
  1.20100000E+01  1.00800000E+00  1.20100000E+01  1.00800000E+00  1.00800000E+00
  1.20100000E+01  1.00800000E+00  1.00800000E+00  1.20100000E+01  1.00800000E+00
  1.00800000E+00  1.60000000E+01  1.60000000E+01  1.60000000E+01  1.60000000E+01
  1.60000000E+01  1.60000000E+01  1.20100000E+01  1.20100000E+01  1.20100000E+01
  1.20100000E+01  1.20100000E+01  1.20100000E+01  1.00800000E+00  1.00800000E+00
  1.00800000E+00  1.00800000E+00  1.00800000E+00  1.00800000E+00  1.00800000E+00
  1.00800000E+00  1.00800000E+00  1.00800000E+00  1.00800000E+00  1.00800000E+00
  1.00800000E+00  1.00800000E+00  1.00800000E+00  1.00800000E+00  1.00800000E+00
  1.00800000E+00  1.60000000E+01  1.20100000E+01  1.20100000E+01  1.20100000E+01
  1.20100000E+01  1.00800000E+00  1.00800000E+00  1.00800000E+00  1.20100000E+01
  1.00800000E+00  1.20100000E+01  1.00800000E+00  1.20100000E+01  1.00800000E+00
  1.00800000E+00  1.40100000E+01  1.20100000E+01  1.20100000E+01  1.20100000E+01
  1.20100000E+01  1.20100000E+01  1.20100000E+01  1.20100000E+01  1.00800000E+00
  1.20100000E+01  1.00800000E+00  1.20100000E+01  1.00800000E+00  1.20100000E+01
  1.00800000E+00  1.20100000E+01  1.20100000E+01  1.00800000E+00  1.20100000E+01
  1.00800000E+00  1.00800000E+00  1.20100000E+01  1.20100000E+01  1.20100000E+01
  1.20100000E+01  1.60000000E+01  1.20100000E+01  1.20100000E+01  1.20100000E+01
  1.20100000E+01  1.20100000E+01  1.20100000E+01  1.20100000E+01  1.20100000E+01
  1.00800000E+00  1.20100000E+01  1.00800000E+00  1.20100000E+01  1.00800000E+00
  1.20100000E+01  1.00800000E+00  1.20100000E+01  1.20100000E+01  1.00800000E+00
  1.00800000E+00  1.00800000E+00  1.00800000E+00  1.40100000E+01  1.40100000E+01
  1.20100000E+01  1.00800000E+00  1.40100000E+01  1.20100000E+01  1.00800000E+00
  1.20100000E+01  1.20100000E+01  1.20100000E+01  1.20100000E+01  1.00800000E+00
  1.20100000E+01  1.20100000E+01  1.00800000E+00  1.20100000E+01  1.20100000E+01
  1.20100000E+01  1.20100000E+01  1.20100000E+01  1.20100000E+01  1.20100000E+01
  1.20100000E+01  1.20100000E+01  1.20100000E+01  1.20100000E+01  1.20100000E+01
  1.20100000E+01  1.00800000E+00  1.20100000E+01  1.00800000E+00  1.00800000E+00
  1.20100000E+01  1.00800000E+00  1.20100000E+01  1.20100000E+01  1.00800000E+00
  1.20100000E+01  1.00800000E+00  1.20100000E+01  1.00800000E+00  1.20100000E+01
  1.00800000E+00  1.20100000E+01  1.00800000E+00  1.20100000E+01  1.00800000E+00
  1.20100000E+01  1.00800000E+00  1.20100000E+01  1.00800000E+00  1.20100000E+01
  1.00800000E+00  1.00800000E+00  1.20100000E+01  1.00800000E+00  1.00800000E+00
  1.00800000E+00  1.20100000E+01  1.00800000E+00  1.20100000E+01  1.00800000E+00
  1.00800000E+00  1.20100000E+01  1.00800000E+00  1.00800000E+00  1.20100000E+01
  1.00800000E+00  1.00800000E+00  1.60000000E+01  1.60000000E+01  1.60000000E+01
  1.60000000E+01  1.60000000E+01  1.60000000E+01  1.20100000E+01  1.20100000E+01
  1.20100000E+01  1.20100000E+01  1.20100000E+01  1.20100000E+01  1.00800000E+00
  1.00800000E+00  1.00800000E+00  1.00800000E+00  1.00800000E+00  1.00800000E+00
  1.00800000E+00  1.00800000E+00  1.00800000E+00  1.00800000E+00  1.00800000E+00
  1.00800000E+00  1.00800000E+00  1.00800000E+00  1.00800000E+00  1.00800000E+00
  1.00800000E+00  1.00800000E+00  1.60000000E+01  1.20100000E+01  1.20100000E+01
  1.20100000E+01  1.20100000E+01  1.00800000E+00  1.00800000E+00  1.00800000E+00
  1.20100000E+01  1.00800000E+00  1.20100000E+01  1.00800000E+00  1.20100000E+01
  1.00800000E+00  1.00800000E+00  1.40100000E+01  1.20100000E+01  1.20100000E+01
  1.20100000E+01  1.20100000E+01  1.20100000E+01  1.20100000E+01  1.20100000E+01
  1.00800000E+00  1.20100000E+01  1.00800000E+00  1.20100000E+01  1.00800000E+00
  1.20100000E+01  1.00800000E+00  1.20100000E+01  1.20100000E+01  1.00800000E+00
  1.20100000E+01  1.00800000E+00  1.00800000E+00  1.20100000E+01  1.20100000E+01
  1.20100000E+01  1.20100000E+01  1.60000000E+01  1.20100000E+01  1.20100000E+01
  1.20100000E+01  1.20100000E+01  1.20100000E+01  1.20100000E+01  1.20100000E+01
  1.20100000E+01  1.00800000E+00  1.20100000E+01  1.00800000E+00  1.20100000E+01
  1.00800000E+00  1.20100000E+01  1.00800000E+00  1.20100000E+01  1.20100000E+01
  1.00800000E+00  1.00800000E+00  1.00800000E+00  1.00800000E+00  1.40100000E+01
  1.40100000E+01  1.20100000E+01  1.00800000E+00  1.40100000E+01  1.20100000E+01
  1.00800000E+00  1.20100000E+01  1.20100000E+01  1.20100000E+01  1.20100000E+01
  1.00800000E+00  1.20100000E+01  1.20100000E+01  1.00800000E+00  1.20100000E+01
  1.20100000E+01  1.20100000E+01  1.20100000E+01  1.20100000E+01  1.20100000E+01
  1.20100000E+01  1.20100000E+01  1.20100000E+01  1.20100000E+01  1.20100000E+01
  1.20100000E+01  1.20100000E+01  1.00800000E+00  1.20100000E+01  1.00800000E+00
  1.00800000E+00  1.20100000E+01  1.00800000E+00  1.20100000E+01  1.20100000E+01
  1.00800000E+00  1.20100000E+01  1.00800000E+00  1.20100000E+01  1.00800000E+00
  1.20100000E+01  1.00800000E+00  1.20100000E+01  1.00800000E+00  1.20100000E+01
  1.00800000E+00  1.20100000E+01  1.00800000E+00  1.20100000E+01  1.00800000E+00
  1.20100000E+01  1.00800000E+00  1.00800000E+00  1.20100000E+01  1.00800000E+00
  1.00800000E+00  1.00800000E+00  1.20100000E+01  1.00800000E+00  1.20100000E+01
  1.00800000E+00  1.00800000E+00  1.20100000E+01  1.00800000E+00  1.00800000E+00
  1.20100000E+01  1.00800000E+00  1.00800000E+00  1.60000000E+01  1.60000000E+01
  1.60000000E+01  1.60000000E+01  1.60000000E+01  1.60000000E+01  1.20100000E+01
  1.20100000E+01  1.20100000E+01  1.20100000E+01  1.20100000E+01  1.20100000E+01
  1.00800000E+00  1.00800000E+00  1.00800000E+00  1.00800000E+00  1.00800000E+00
  1.00800000E+00  1.00800000E+00  1.00800000E+00  1.00800000E+00  1.00800000E+00
  1.00800000E+00  1.00800000E+00  1.00800000E+00  1.00800000E+00  1.00800000E+00
  1.00800000E+00  1.00800000E+00  1.00800000E+00  1.60000000E+01  1.20100000E+01
  1.20100000E+01  1.20100000E+01  1.20100000E+01  1.00800000E+00  1.00800000E+00
  1.00800000E+00  1.20100000E+01  1.00800000E+00  1.20100000E+01  1.00800000E+00
  1.20100000E+01  1.00800000E+00  1.00800000E+00  1.40100000E+01  1.20100000E+01
  1.20100000E+01  1.20100000E+01  1.20100000E+01  1.20100000E+01  1.20100000E+01
  1.20100000E+01  1.00800000E+00  1.20100000E+01  1.00800000E+00  1.20100000E+01
  1.00800000E+00  1.20100000E+01  1.00800000E+00  1.20100000E+01  1.20100000E+01
  1.00800000E+00  1.20100000E+01  1.00800000E+00  1.00800000E+00  1.20100000E+01
  1.20100000E+01  1.20100000E+01  1.20100000E+01  1.60000000E+01  1.20100000E+01
  1.20100000E+01  1.20100000E+01  1.20100000E+01  1.20100000E+01  1.20100000E+01
  1.20100000E+01  1.20100000E+01  1.00800000E+00  1.20100000E+01  1.00800000E+00
  1.20100000E+01  1.00800000E+00  1.20100000E+01  1.00800000E+00  1.20100000E+01
  1.20100000E+01  1.00800000E+00  1.00800000E+00  1.00800000E+00  1.00800000E+00
  1.40100000E+01  1.40100000E+01  1.20100000E+01  1.00800000E+00  1.40100000E+01
  1.20100000E+01  1.00800000E+00  1.20100000E+01  1.20100000E+01  1.20100000E+01
  1.20100000E+01  1.00800000E+00  1.20100000E+01  1.20100000E+01  1.00800000E+00
  1.20100000E+01  1.20100000E+01  1.20100000E+01  1.20100000E+01  1.20100000E+01
  1.20100000E+01  1.20100000E+01  1.20100000E+01  1.20100000E+01  1.20100000E+01
  1.20100000E+01  1.20100000E+01  1.20100000E+01  1.00800000E+00  1.20100000E+01
  1.00800000E+00  1.00800000E+00  1.20100000E+01  1.00800000E+00  1.20100000E+01
  1.20100000E+01  1.00800000E+00  1.20100000E+01  1.00800000E+00  1.20100000E+01
  1.00800000E+00  1.20100000E+01  1.00800000E+00  1.20100000E+01  1.00800000E+00
  1.20100000E+01  1.00800000E+00  1.20100000E+01  1.00800000E+00  1.20100000E+01
  1.00800000E+00  1.20100000E+01  1.00800000E+00  1.00800000E+00  1.20100000E+01
  1.00800000E+00  1.00800000E+00  1.00800000E+00  1.20100000E+01  1.00800000E+00
  1.20100000E+01  1.00800000E+00  1.00800000E+00  1.20100000E+01  1.00800000E+00
  1.00800000E+00  1.20100000E+01  1.00800000E+00  1.00800000E+00  1.60000000E+01
  1.60000000E+01  1.60000000E+01  1.60000000E+01  1.60000000E+01  1.60000000E+01
  1.20100000E+01  1.20100000E+01  1.20100000E+01  1.20100000E+01  1.20100000E+01
  1.20100000E+01  1.00800000E+00  1.00800000E+00  1.00800000E+00  1.00800000E+00
  1.00800000E+00  1.00800000E+00  1.00800000E+00  1.00800000E+00  1.00800000E+00
  1.00800000E+00  1.00800000E+00  1.00800000E+00  1.00800000E+00  1.00800000E+00
  1.00800000E+00  1.00800000E+00  1.00800000E+00  1.00800000E+00  1.60000000E+01
  1.20100000E+01  1.20100000E+01  1.20100000E+01  1.20100000E+01  1.00800000E+00
  1.00800000E+00  1.00800000E+00  1.20100000E+01  1.00800000E+00  1.20100000E+01
  1.00800000E+00  1.20100000E+01  1.00800000E+00  1.00800000E+00  1.40100000E+01
  1.20100000E+01  1.20100000E+01  1.20100000E+01  1.20100000E+01  1.20100000E+01
  1.20100000E+01  1.20100000E+01  1.00800000E+00  1.20100000E+01  1.00800000E+00
  1.20100000E+01  1.00800000E+00  1.20100000E+01  1.00800000E+00  1.20100000E+01
  1.20100000E+01  1.00800000E+00  1.20100000E+01  1.00800000E+00  1.00800000E+00
  1.20100000E+01  1.20100000E+01  1.20100000E+01  1.20100000E+01  1.60000000E+01
  1.20100000E+01  1.20100000E+01  1.20100000E+01  1.20100000E+01  1.20100000E+01
  1.20100000E+01  1.20100000E+01  1.20100000E+01  1.00800000E+00  1.20100000E+01
  1.00800000E+00  1.20100000E+01  1.00800000E+00  1.20100000E+01  1.00800000E+00
  1.20100000E+01  1.20100000E+01  1.00800000E+00  1.00800000E+00  1.00800000E+00
  1.00800000E+00  1.40100000E+01  1.40100000E+01  1.20100000E+01  1.00800000E+00
  1.40100000E+01  1.20100000E+01  1.00800000E+00  1.20100000E+01  1.20100000E+01
  1.20100000E+01  1.20100000E+01  1.00800000E+00  1.20100000E+01  1.20100000E+01
  1.00800000E+00  1.20100000E+01  1.20100000E+01  1.20100000E+01  1.20100000E+01
  1.20100000E+01  1.20100000E+01  1.20100000E+01  1.20100000E+01  1.20100000E+01
  1.20100000E+01  1.20100000E+01  1.20100000E+01  1.20100000E+01  1.00800000E+00
  1.20100000E+01  1.00800000E+00  1.00800000E+00  1.20100000E+01  1.00800000E+00
  1.20100000E+01  1.20100000E+01  1.00800000E+00  1.20100000E+01  1.00800000E+00
  1.20100000E+01  1.00800000E+00  1.20100000E+01  1.00800000E+00  1.20100000E+01
  1.00800000E+00  1.20100000E+01  1.00800000E+00  1.20100000E+01  1.00800000E+00
  1.20100000E+01  1.00800000E+00  1.20100000E+01  1.00800000E+00  1.00800000E+00
  1.20100000E+01  1.00800000E+00  1.00800000E+00  1.00800000E+00  1.20100000E+01
  1.00800000E+00  1.20100000E+01  1.00800000E+00  1.00800000E+00  1.20100000E+01
  1.00800000E+00  1.00800000E+00  1.20100000E+01  1.00800000E+00  1.00800000E+00
  1.60000000E+01  1.60000000E+01  1.60000000E+01  1.60000000E+01  1.60000000E+01
  1.60000000E+01  1.20100000E+01  1.20100000E+01  1.20100000E+01  1.20100000E+01
  1.20100000E+01  1.20100000E+01  1.00800000E+00  1.00800000E+00  1.00800000E+00
  1.00800000E+00  1.00800000E+00  1.00800000E+00  1.00800000E+00  1.00800000E+00
  1.00800000E+00  1.00800000E+00  1.00800000E+00  1.00800000E+00  1.00800000E+00
  1.00800000E+00  1.00800000E+00  1.00800000E+00  1.00800000E+00  1.00800000E+00
  1.60000000E+01  1.20100000E+01  1.20100000E+01  1.20100000E+01  1.20100000E+01
  1.00800000E+00  1.00800000E+00  1.00800000E+00  1.20100000E+01  1.00800000E+00
  1.20100000E+01  1.00800000E+00  1.20100000E+01  1.00800000E+00  1.00800000E+00
  1.40100000E+01  1.20100000E+01  1.20100000E+01  1.20100000E+01  1.20100000E+01
  1.20100000E+01  1.20100000E+01  1.20100000E+01  1.00800000E+00  1.20100000E+01
  1.00800000E+00  1.20100000E+01  1.00800000E+00  1.20100000E+01  1.00800000E+00
  1.20100000E+01  1.20100000E+01  1.00800000E+00  1.20100000E+01  1.00800000E+00
  1.00800000E+00  1.20100000E+01  1.20100000E+01  1.20100000E+01  1.20100000E+01
  1.60000000E+01  1.20100000E+01  1.20100000E+01  1.20100000E+01  1.20100000E+01
  1.20100000E+01  1.20100000E+01  1.20100000E+01  1.20100000E+01  1.00800000E+00
  1.20100000E+01  1.00800000E+00  1.20100000E+01  1.00800000E+00  1.20100000E+01
  1.00800000E+00  1.20100000E+01  1.20100000E+01  1.00800000E+00  1.00800000E+00
  1.00800000E+00  1.00800000E+00  1.40100000E+01  1.40100000E+01  1.20100000E+01
  1.00800000E+00  1.40100000E+01  1.20100000E+01  1.00800000E+00  1.20100000E+01
  1.20100000E+01  1.20100000E+01  1.20100000E+01  1.00800000E+00  1.20100000E+01
  1.20100000E+01  1.00800000E+00  1.20100000E+01  1.20100000E+01  1.20100000E+01
  1.20100000E+01  1.20100000E+01  1.20100000E+01  1.20100000E+01  1.20100000E+01
  1.20100000E+01  1.20100000E+01  1.20100000E+01  1.20100000E+01  1.20100000E+01
  1.00800000E+00  1.20100000E+01  1.00800000E+00  1.00800000E+00  1.20100000E+01
  1.00800000E+00  1.20100000E+01  1.20100000E+01  1.00800000E+00  1.20100000E+01
  1.00800000E+00  1.20100000E+01  1.00800000E+00  1.20100000E+01  1.00800000E+00
  1.20100000E+01  1.00800000E+00  1.20100000E+01  1.00800000E+00  1.20100000E+01
  1.00800000E+00  1.20100000E+01  1.00800000E+00  1.20100000E+01  1.00800000E+00
  1.00800000E+00  1.20100000E+01  1.00800000E+00  1.00800000E+00  1.00800000E+00
  1.20100000E+01  1.00800000E+00  1.20100000E+01  1.00800000E+00  1.00800000E+00
  1.20100000E+01  1.00800000E+00  1.00800000E+00  1.20100000E+01  1.00800000E+00
  1.00800000E+00  1.60000000E+01  1.60000000E+01  1.60000000E+01  1.60000000E+01
  1.60000000E+01  1.60000000E+01  1.20100000E+01  1.20100000E+01  1.20100000E+01
  1.20100000E+01  1.20100000E+01  1.20100000E+01  1.00800000E+00  1.00800000E+00
  1.00800000E+00  1.00800000E+00  1.00800000E+00  1.00800000E+00  1.00800000E+00
  1.00800000E+00  1.00800000E+00  1.00800000E+00  1.00800000E+00  1.00800000E+00
  1.00800000E+00  1.00800000E+00  1.00800000E+00  1.00800000E+00  1.00800000E+00
  1.00800000E+00  1.60000000E+01  1.20100000E+01  1.20100000E+01  1.20100000E+01
  1.20100000E+01  1.00800000E+00  1.00800000E+00  1.00800000E+00  1.20100000E+01
  1.00800000E+00  1.20100000E+01  1.00800000E+00  1.20100000E+01  1.00800000E+00
  1.00800000E+00  1.40100000E+01  1.20100000E+01  1.20100000E+01  1.20100000E+01
  1.20100000E+01  1.20100000E+01  1.20100000E+01  1.20100000E+01  1.00800000E+00
  1.20100000E+01  1.00800000E+00  1.20100000E+01  1.00800000E+00  1.20100000E+01
  1.00800000E+00  1.20100000E+01  1.20100000E+01  1.00800000E+00  1.20100000E+01
  1.00800000E+00  1.00800000E+00  1.20100000E+01  1.20100000E+01  1.20100000E+01
  1.20100000E+01  1.60000000E+01  1.20100000E+01  1.20100000E+01  1.20100000E+01
  1.20100000E+01  1.20100000E+01  1.20100000E+01  1.20100000E+01  1.20100000E+01
  1.00800000E+00  1.20100000E+01  1.00800000E+00  1.20100000E+01  1.00800000E+00
  1.20100000E+01  1.00800000E+00  1.20100000E+01  1.20100000E+01  1.00800000E+00
  1.00800000E+00  1.00800000E+00  1.00800000E+00  1.40100000E+01  1.40100000E+01
  1.20100000E+01  1.00800000E+00  1.40100000E+01  1.20100000E+01  1.00800000E+00
  1.20100000E+01  1.20100000E+01  1.20100000E+01  1.20100000E+01  1.00800000E+00
  1.20100000E+01  1.20100000E+01  1.00800000E+00  1.20100000E+01  1.20100000E+01
  1.20100000E+01  1.20100000E+01  1.20100000E+01  1.20100000E+01  1.20100000E+01
  1.20100000E+01  1.20100000E+01  1.20100000E+01  1.20100000E+01  1.20100000E+01
  1.20100000E+01  1.00800000E+00  1.20100000E+01  1.00800000E+00  1.00800000E+00
  1.20100000E+01  1.00800000E+00  1.20100000E+01  1.20100000E+01  1.00800000E+00
  1.20100000E+01  1.00800000E+00  1.20100000E+01  1.00800000E+00  1.20100000E+01
  1.00800000E+00  1.20100000E+01  1.00800000E+00  1.20100000E+01  1.00800000E+00
  1.20100000E+01  1.00800000E+00  1.20100000E+01  1.00800000E+00  1.20100000E+01
  1.00800000E+00  1.00800000E+00  1.20100000E+01  1.00800000E+00  1.00800000E+00
  1.00800000E+00  1.20100000E+01  1.00800000E+00  1.20100000E+01  1.00800000E+00
  1.00800000E+00  1.20100000E+01  1.00800000E+00  1.00800000E+00  1.20100000E+01
  1.00800000E+00  1.00800000E+00  1.60000000E+01  1.60000000E+01  1.60000000E+01
  1.60000000E+01  1.60000000E+01  1.60000000E+01  1.20100000E+01  1.20100000E+01
  1.20100000E+01  1.20100000E+01  1.20100000E+01  1.20100000E+01  1.00800000E+00
  1.00800000E+00  1.00800000E+00  1.00800000E+00  1.00800000E+00  1.00800000E+00
  1.00800000E+00  1.00800000E+00  1.00800000E+00  1.00800000E+00  1.00800000E+00
  1.00800000E+00  1.00800000E+00  1.00800000E+00  1.00800000E+00  1.00800000E+00
  1.00800000E+00  1.00800000E+00  1.60000000E+01  1.20100000E+01  1.20100000E+01
  1.20100000E+01  1.20100000E+01  1.00800000E+00  1.00800000E+00  1.00800000E+00
  1.20100000E+01  1.00800000E+00  1.20100000E+01  1.00800000E+00  1.20100000E+01
  1.00800000E+00  1.00800000E+00  1.40100000E+01  1.20100000E+01  1.20100000E+01
  1.20100000E+01  1.20100000E+01  1.20100000E+01  1.20100000E+01  1.20100000E+01
  1.00800000E+00  1.20100000E+01  1.00800000E+00  1.20100000E+01  1.00800000E+00
  1.20100000E+01  1.00800000E+00  1.20100000E+01  1.20100000E+01  1.00800000E+00
  1.20100000E+01  1.00800000E+00  1.00800000E+00  1.20100000E+01  1.20100000E+01
  1.20100000E+01  1.20100000E+01  1.60000000E+01  1.20100000E+01  1.20100000E+01
  1.20100000E+01  1.20100000E+01  1.20100000E+01  1.20100000E+01  1.20100000E+01
  1.20100000E+01  1.00800000E+00  1.20100000E+01  1.00800000E+00  1.20100000E+01
  1.00800000E+00  1.20100000E+01  1.00800000E+00  1.20100000E+01  1.20100000E+01
  1.00800000E+00  1.00800000E+00  1.00800000E+00  1.00800000E+00  1.40100000E+01
  1.40100000E+01  1.20100000E+01  1.00800000E+00  1.40100000E+01  1.20100000E+01
  1.00800000E+00  1.20100000E+01  1.20100000E+01  1.20100000E+01  1.20100000E+01
  1.00800000E+00  1.20100000E+01  1.20100000E+01  1.00800000E+00  1.20100000E+01
  1.20100000E+01  1.20100000E+01  1.20100000E+01  1.20100000E+01  1.20100000E+01
  1.20100000E+01  1.20100000E+01  1.20100000E+01  1.20100000E+01  1.20100000E+01
  1.20100000E+01  1.20100000E+01  1.00800000E+00  1.20100000E+01  1.00800000E+00
  1.00800000E+00  1.20100000E+01  1.00800000E+00  1.20100000E+01  1.20100000E+01
  1.00800000E+00  1.20100000E+01  1.00800000E+00  1.20100000E+01  1.00800000E+00
  1.20100000E+01  1.00800000E+00  1.20100000E+01  1.00800000E+00  1.20100000E+01
  1.00800000E+00  1.20100000E+01  1.00800000E+00  1.20100000E+01  1.00800000E+00
  1.20100000E+01  1.00800000E+00  1.00800000E+00  1.20100000E+01  1.00800000E+00
  1.00800000E+00  1.00800000E+00  1.20100000E+01  1.00800000E+00  1.20100000E+01
  1.00800000E+00  1.00800000E+00  1.20100000E+01  1.00800000E+00  1.00800000E+00
  1.20100000E+01  1.00800000E+00  1.00800000E+00  1.60000000E+01  1.60000000E+01
  1.60000000E+01  1.60000000E+01  1.60000000E+01  1.60000000E+01  1.20100000E+01
  1.20100000E+01  1.20100000E+01  1.20100000E+01  1.20100000E+01  1.20100000E+01
  1.00800000E+00  1.00800000E+00  1.00800000E+00  1.00800000E+00  1.00800000E+00
  1.00800000E+00  1.00800000E+00  1.00800000E+00  1.00800000E+00  1.00800000E+00
  1.00800000E+00  1.00800000E+00  1.00800000E+00  1.00800000E+00  1.00800000E+00
  1.00800000E+00  1.00800000E+00  1.00800000E+00  1.60000000E+01  1.20100000E+01
  1.20100000E+01  1.20100000E+01  1.20100000E+01  1.00800000E+00  1.00800000E+00
  1.00800000E+00  1.20100000E+01  1.00800000E+00  1.20100000E+01  1.00800000E+00
  1.20100000E+01  1.00800000E+00  1.00800000E+00  1.40100000E+01  1.20100000E+01
  1.20100000E+01  1.20100000E+01  1.20100000E+01  1.20100000E+01  1.20100000E+01
  1.20100000E+01  1.00800000E+00  1.20100000E+01  1.00800000E+00  1.20100000E+01
  1.00800000E+00  1.20100000E+01  1.00800000E+00  1.20100000E+01  1.20100000E+01
  1.00800000E+00  1.20100000E+01  1.00800000E+00  1.00800000E+00  1.20100000E+01
  1.20100000E+01  1.20100000E+01  1.20100000E+01  1.60000000E+01  1.20100000E+01
  1.20100000E+01  1.20100000E+01  1.20100000E+01  1.20100000E+01  1.20100000E+01
  1.20100000E+01  1.20100000E+01  1.00800000E+00  1.20100000E+01  1.00800000E+00
  1.20100000E+01  1.00800000E+00  1.20100000E+01  1.00800000E+00  1.20100000E+01
  1.20100000E+01  1.00800000E+00  1.00800000E+00  1.00800000E+00  1.00800000E+00
  1.40100000E+01  1.40100000E+01  1.20100000E+01  1.00800000E+00  1.40100000E+01
  1.20100000E+01  1.00800000E+00  1.20100000E+01  1.20100000E+01  1.20100000E+01
  1.20100000E+01  1.00800000E+00  1.20100000E+01  1.20100000E+01  1.00800000E+00
  1.20100000E+01  1.20100000E+01  1.20100000E+01  1.20100000E+01  1.20100000E+01
  1.20100000E+01  1.20100000E+01  1.20100000E+01  1.20100000E+01  1.20100000E+01
  1.20100000E+01  1.20100000E+01  1.20100000E+01  1.00800000E+00  1.20100000E+01
  1.00800000E+00  1.00800000E+00  1.20100000E+01  1.00800000E+00  1.20100000E+01
  1.20100000E+01  1.00800000E+00  1.20100000E+01  1.00800000E+00  1.20100000E+01
  1.00800000E+00  1.20100000E+01  1.00800000E+00  1.20100000E+01  1.00800000E+00
  1.20100000E+01  1.00800000E+00  1.20100000E+01  1.00800000E+00  1.20100000E+01
  1.00800000E+00  1.20100000E+01  1.00800000E+00  1.00800000E+00  1.20100000E+01
  1.00800000E+00  1.00800000E+00  1.00800000E+00  1.20100000E+01  1.00800000E+00
  1.20100000E+01  1.00800000E+00  1.00800000E+00  1.20100000E+01  1.00800000E+00
  1.00800000E+00  1.20100000E+01  1.00800000E+00  1.00800000E+00  1.60000000E+01
  1.60000000E+01  1.60000000E+01  1.60000000E+01  1.60000000E+01  1.60000000E+01
  1.20100000E+01  1.20100000E+01  1.20100000E+01  1.20100000E+01  1.20100000E+01
  1.20100000E+01  1.00800000E+00  1.00800000E+00  1.00800000E+00  1.00800000E+00
  1.00800000E+00  1.00800000E+00  1.00800000E+00  1.00800000E+00  1.00800000E+00
  1.00800000E+00  1.00800000E+00  1.00800000E+00  1.00800000E+00  1.00800000E+00
  1.00800000E+00  1.00800000E+00  1.00800000E+00  1.00800000E+00  1.60000000E+01
  1.20100000E+01  1.20100000E+01  1.20100000E+01  1.20100000E+01  1.00800000E+00
  1.00800000E+00  1.00800000E+00  1.20100000E+01  1.00800000E+00  1.20100000E+01
  1.00800000E+00  1.20100000E+01  1.00800000E+00  1.00800000E+00  1.40100000E+01
  1.20100000E+01  1.20100000E+01  1.20100000E+01  1.20100000E+01  1.20100000E+01
  1.20100000E+01  1.20100000E+01  1.00800000E+00  1.20100000E+01  1.00800000E+00
  1.20100000E+01  1.00800000E+00  1.20100000E+01  1.00800000E+00  1.20100000E+01
  1.20100000E+01  1.00800000E+00  1.20100000E+01  1.00800000E+00  1.00800000E+00
  1.20100000E+01  1.20100000E+01  1.20100000E+01  1.20100000E+01  1.60000000E+01
  1.20100000E+01  1.20100000E+01  1.20100000E+01  1.20100000E+01  1.20100000E+01
  1.20100000E+01  1.20100000E+01  1.20100000E+01  1.00800000E+00  1.20100000E+01
  1.00800000E+00  1.20100000E+01  1.00800000E+00  1.20100000E+01  1.00800000E+00
  1.20100000E+01  1.20100000E+01  1.00800000E+00  1.00800000E+00  1.00800000E+00
  1.00800000E+00  1.40100000E+01  1.40100000E+01  1.20100000E+01  1.00800000E+00
  1.40100000E+01  1.20100000E+01  1.00800000E+00  1.20100000E+01  1.20100000E+01
  1.20100000E+01  1.20100000E+01  1.00800000E+00  1.20100000E+01  1.20100000E+01
  1.00800000E+00  1.20100000E+01  1.20100000E+01  1.20100000E+01  1.20100000E+01
  1.20100000E+01  1.20100000E+01  1.20100000E+01  1.20100000E+01  1.20100000E+01
  1.20100000E+01  1.20100000E+01  1.20100000E+01  1.20100000E+01  1.00800000E+00
  1.20100000E+01  1.00800000E+00  1.00800000E+00  1.20100000E+01  1.00800000E+00
  1.20100000E+01  1.20100000E+01  1.00800000E+00  1.20100000E+01  1.00800000E+00
  1.20100000E+01  1.00800000E+00  1.20100000E+01  1.00800000E+00  1.20100000E+01
  1.00800000E+00  1.20100000E+01  1.00800000E+00  1.20100000E+01  1.00800000E+00
  1.20100000E+01  1.00800000E+00  1.20100000E+01  1.00800000E+00  1.00800000E+00
  1.20100000E+01  1.00800000E+00  1.00800000E+00  1.00800000E+00  1.20100000E+01
  1.00800000E+00  1.20100000E+01  1.00800000E+00  1.00800000E+00  1.20100000E+01
  1.00800000E+00  1.00800000E+00  1.20100000E+01  1.00800000E+00  1.00800000E+00
  1.60000000E+01  1.60000000E+01  1.60000000E+01  1.60000000E+01  1.60000000E+01
  1.60000000E+01  1.20100000E+01  1.20100000E+01  1.20100000E+01  1.20100000E+01
  1.20100000E+01  1.20100000E+01  1.00800000E+00  1.00800000E+00  1.00800000E+00
  1.00800000E+00  1.00800000E+00  1.00800000E+00  1.00800000E+00  1.00800000E+00
  1.00800000E+00  1.00800000E+00  1.00800000E+00  1.00800000E+00  1.00800000E+00
  1.00800000E+00  1.00800000E+00  1.00800000E+00  1.00800000E+00  1.00800000E+00
  1.60000000E+01  1.20100000E+01  1.20100000E+01  1.20100000E+01  1.20100000E+01
  1.00800000E+00  1.00800000E+00  1.00800000E+00  1.20100000E+01  1.00800000E+00
  1.20100000E+01  1.00800000E+00  1.20100000E+01  1.00800000E+00  1.00800000E+00
  1.40100000E+01  1.20100000E+01  1.20100000E+01  1.20100000E+01  1.20100000E+01
  1.20100000E+01  1.20100000E+01  1.20100000E+01  1.00800000E+00  1.20100000E+01
  1.00800000E+00  1.20100000E+01  1.00800000E+00  1.20100000E+01  1.00800000E+00
  1.20100000E+01  1.20100000E+01  1.00800000E+00  1.20100000E+01  1.00800000E+00
  1.00800000E+00  1.20100000E+01  1.20100000E+01  1.20100000E+01  1.20100000E+01
  1.60000000E+01  1.20100000E+01  1.20100000E+01  1.20100000E+01  1.20100000E+01
  1.20100000E+01  1.20100000E+01  1.20100000E+01  1.20100000E+01  1.00800000E+00
  1.20100000E+01  1.00800000E+00  1.20100000E+01  1.00800000E+00  1.20100000E+01
  1.00800000E+00  1.20100000E+01  1.20100000E+01  1.00800000E+00  1.00800000E+00
  1.00800000E+00  1.00800000E+00  1.40100000E+01  1.40100000E+01  1.20100000E+01
  1.00800000E+00  1.40100000E+01  1.20100000E+01  1.00800000E+00  1.20100000E+01
  1.20100000E+01  1.20100000E+01  1.20100000E+01  1.00800000E+00  1.20100000E+01
  1.20100000E+01  1.00800000E+00  1.20100000E+01  1.20100000E+01  1.20100000E+01
  1.20100000E+01  1.20100000E+01  1.20100000E+01  1.20100000E+01  1.20100000E+01
  1.20100000E+01  1.20100000E+01  1.20100000E+01  1.20100000E+01  1.20100000E+01
  1.00800000E+00  1.20100000E+01  1.00800000E+00  1.00800000E+00  1.20100000E+01
  1.00800000E+00  1.20100000E+01  1.20100000E+01  1.00800000E+00  1.20100000E+01
  1.00800000E+00  1.20100000E+01  1.00800000E+00  1.20100000E+01  1.00800000E+00
  1.20100000E+01  1.00800000E+00  1.20100000E+01  1.00800000E+00  1.20100000E+01
  1.00800000E+00  1.20100000E+01  1.00800000E+00  1.20100000E+01  1.00800000E+00
  1.00800000E+00  1.20100000E+01  1.00800000E+00  1.00800000E+00  1.00800000E+00
  1.20100000E+01  1.00800000E+00  1.20100000E+01  1.00800000E+00  1.00800000E+00
  1.20100000E+01  1.00800000E+00  1.00800000E+00  1.20100000E+01  1.00800000E+00
  1.00800000E+00  1.60000000E+01  1.60000000E+01  1.60000000E+01  1.60000000E+01
  1.60000000E+01  1.60000000E+01  1.20100000E+01  1.20100000E+01  1.20100000E+01
  1.20100000E+01  1.20100000E+01  1.20100000E+01  1.00800000E+00  1.00800000E+00
  1.00800000E+00  1.00800000E+00  1.00800000E+00  1.00800000E+00  1.00800000E+00
  1.00800000E+00  1.00800000E+00  1.00800000E+00  1.00800000E+00  1.00800000E+00
  1.00800000E+00  1.00800000E+00  1.00800000E+00  1.00800000E+00  1.00800000E+00
  1.00800000E+00  1.60000000E+01  1.20100000E+01  1.20100000E+01  1.20100000E+01
  1.20100000E+01  1.00800000E+00  1.00800000E+00  1.00800000E+00  1.20100000E+01
  1.00800000E+00  1.20100000E+01  1.00800000E+00  1.20100000E+01  1.00800000E+00
  1.00800000E+00  1.40100000E+01  1.20100000E+01  1.20100000E+01  1.20100000E+01
  1.20100000E+01  1.20100000E+01  1.20100000E+01  1.20100000E+01  1.00800000E+00
  1.20100000E+01  1.00800000E+00  1.20100000E+01  1.00800000E+00  1.20100000E+01
  1.00800000E+00  1.20100000E+01  1.20100000E+01  1.00800000E+00  1.20100000E+01
  1.00800000E+00  1.00800000E+00  1.20100000E+01  1.20100000E+01  1.20100000E+01
  1.20100000E+01  1.60000000E+01  1.20100000E+01  1.20100000E+01  1.20100000E+01
  1.20100000E+01  1.20100000E+01  1.20100000E+01  1.20100000E+01  1.20100000E+01
  1.00800000E+00  1.20100000E+01  1.00800000E+00  1.20100000E+01  1.00800000E+00
  1.20100000E+01  1.00800000E+00  1.20100000E+01  1.20100000E+01  1.00800000E+00
  1.00800000E+00  1.00800000E+00  1.00800000E+00  1.40100000E+01  1.40100000E+01
  1.20100000E+01  1.00800000E+00  1.40100000E+01  1.20100000E+01  1.00800000E+00
  1.20100000E+01  1.20100000E+01  1.20100000E+01  1.20100000E+01  1.00800000E+00
  1.20100000E+01  1.20100000E+01  1.00800000E+00  1.20100000E+01  1.20100000E+01
  1.20100000E+01  1.20100000E+01  1.20100000E+01  1.20100000E+01  1.20100000E+01
  1.20100000E+01  1.20100000E+01  1.20100000E+01  1.20100000E+01  1.20100000E+01
  1.20100000E+01  1.00800000E+00  1.20100000E+01  1.00800000E+00  1.00800000E+00
  1.20100000E+01  1.00800000E+00  1.20100000E+01  1.20100000E+01  1.00800000E+00
  1.20100000E+01  1.00800000E+00  1.20100000E+01  1.00800000E+00  1.20100000E+01
  1.00800000E+00  1.20100000E+01  1.00800000E+00  1.20100000E+01  1.00800000E+00
  1.20100000E+01  1.00800000E+00  1.20100000E+01  1.00800000E+00  1.20100000E+01
  1.00800000E+00  1.00800000E+00  1.20100000E+01  1.00800000E+00  1.00800000E+00
  1.00800000E+00  1.20100000E+01  1.00800000E+00  1.20100000E+01  1.00800000E+00
  1.00800000E+00  1.20100000E+01  1.00800000E+00  1.00800000E+00  1.20100000E+01
  1.00800000E+00  1.00800000E+00  1.60000000E+01  1.60000000E+01  1.60000000E+01
  1.60000000E+01  1.60000000E+01  1.60000000E+01  1.20100000E+01  1.20100000E+01
  1.20100000E+01  1.20100000E+01  1.20100000E+01  1.20100000E+01  1.00800000E+00
  1.00800000E+00  1.00800000E+00  1.00800000E+00  1.00800000E+00  1.00800000E+00
  1.00800000E+00  1.00800000E+00  1.00800000E+00  1.00800000E+00  1.00800000E+00
  1.00800000E+00  1.00800000E+00  1.00800000E+00  1.00800000E+00  1.00800000E+00
  1.00800000E+00  1.00800000E+00  1.60000000E+01  1.20100000E+01  1.20100000E+01
  1.20100000E+01  1.20100000E+01  1.00800000E+00  1.00800000E+00  1.00800000E+00
  1.20100000E+01  1.00800000E+00  1.20100000E+01  1.00800000E+00  1.20100000E+01
  1.00800000E+00  1.00800000E+00  1.40100000E+01  1.20100000E+01  1.20100000E+01
  1.20100000E+01  1.20100000E+01  1.20100000E+01  1.20100000E+01  1.20100000E+01
  1.00800000E+00  1.20100000E+01  1.00800000E+00  1.20100000E+01  1.00800000E+00
  1.20100000E+01  1.00800000E+00  1.20100000E+01  1.20100000E+01  1.00800000E+00
  1.20100000E+01  1.00800000E+00  1.00800000E+00  1.20100000E+01  1.20100000E+01
  1.20100000E+01  1.20100000E+01  1.60000000E+01  1.20100000E+01  1.20100000E+01
  1.20100000E+01  1.20100000E+01  1.20100000E+01  1.20100000E+01  1.20100000E+01
  1.20100000E+01  1.00800000E+00  1.20100000E+01  1.00800000E+00  1.20100000E+01
  1.00800000E+00  1.20100000E+01  1.00800000E+00  1.20100000E+01  1.20100000E+01
  1.00800000E+00  1.00800000E+00  1.00800000E+00  1.00800000E+00  1.40100000E+01
  1.40100000E+01  1.20100000E+01  1.00800000E+00  1.40100000E+01  1.20100000E+01
  1.00800000E+00  1.20100000E+01  1.20100000E+01  1.20100000E+01  1.20100000E+01
  1.00800000E+00  1.20100000E+01  1.20100000E+01  1.00800000E+00  1.20100000E+01
  1.20100000E+01  1.20100000E+01  1.20100000E+01  1.20100000E+01  1.20100000E+01
  1.20100000E+01  1.20100000E+01  1.20100000E+01  1.20100000E+01  1.20100000E+01
  1.20100000E+01  1.20100000E+01  1.00800000E+00  1.20100000E+01  1.00800000E+00
  1.00800000E+00  1.20100000E+01  1.00800000E+00  1.20100000E+01  1.20100000E+01
  1.00800000E+00  1.20100000E+01  1.00800000E+00  1.20100000E+01  1.00800000E+00
  1.20100000E+01  1.00800000E+00  1.20100000E+01  1.00800000E+00  1.20100000E+01
  1.00800000E+00  1.20100000E+01  1.00800000E+00  1.20100000E+01  1.00800000E+00
  1.20100000E+01  1.00800000E+00  1.00800000E+00  1.20100000E+01  1.00800000E+00
  1.00800000E+00  1.00800000E+00  1.20100000E+01  1.00800000E+00  1.20100000E+01
  1.00800000E+00  1.00800000E+00  1.20100000E+01  1.00800000E+00  1.00800000E+00
  1.20100000E+01  1.00800000E+00  1.00800000E+00  1.60000000E+01  1.60000000E+01
  1.60000000E+01  1.60000000E+01  1.60000000E+01  1.60000000E+01  1.20100000E+01
  1.20100000E+01  1.20100000E+01  1.20100000E+01  1.20100000E+01  1.20100000E+01
  1.00800000E+00  1.00800000E+00  1.00800000E+00  1.00800000E+00  1.00800000E+00
  1.00800000E+00  1.00800000E+00  1.00800000E+00  1.00800000E+00  1.00800000E+00
  1.00800000E+00  1.00800000E+00  1.00800000E+00  1.00800000E+00  1.00800000E+00
  1.00800000E+00  1.00800000E+00  1.00800000E+00  1.60000000E+01  1.20100000E+01
  1.20100000E+01  1.20100000E+01  1.20100000E+01  1.00800000E+00  1.00800000E+00
  1.00800000E+00  1.20100000E+01  1.00800000E+00  1.20100000E+01  1.00800000E+00
  1.20100000E+01  1.00800000E+00  1.00800000E+00  1.40100000E+01  1.20100000E+01
  1.20100000E+01  1.20100000E+01  1.20100000E+01  1.20100000E+01  1.20100000E+01
  1.20100000E+01  1.00800000E+00  1.20100000E+01  1.00800000E+00  1.20100000E+01
  1.00800000E+00  1.20100000E+01  1.00800000E+00  1.20100000E+01  1.20100000E+01
  1.00800000E+00  1.20100000E+01  1.00800000E+00  1.00800000E+00  1.20100000E+01
  1.20100000E+01  1.20100000E+01  1.20100000E+01  1.60000000E+01  1.20100000E+01
  1.20100000E+01  1.20100000E+01  1.20100000E+01  1.20100000E+01  1.20100000E+01
  1.20100000E+01  1.20100000E+01  1.00800000E+00  1.20100000E+01  1.00800000E+00
  1.20100000E+01  1.00800000E+00  1.20100000E+01  1.00800000E+00  1.20100000E+01
  1.20100000E+01  1.00800000E+00  1.00800000E+00  1.00800000E+00  1.00800000E+00
  1.40100000E+01  1.40100000E+01  1.20100000E+01  1.00800000E+00  1.40100000E+01
  1.20100000E+01  1.00800000E+00  1.20100000E+01  1.20100000E+01  1.20100000E+01
  1.20100000E+01  1.00800000E+00  1.20100000E+01  1.20100000E+01  1.00800000E+00
  1.20100000E+01  1.20100000E+01  1.20100000E+01  1.20100000E+01  1.20100000E+01
  1.20100000E+01  1.20100000E+01  1.20100000E+01  1.20100000E+01  1.20100000E+01
  1.20100000E+01  1.20100000E+01  1.20100000E+01  1.00800000E+00  1.20100000E+01
  1.00800000E+00  1.00800000E+00  1.20100000E+01  1.00800000E+00  1.20100000E+01
  1.20100000E+01  1.00800000E+00  1.20100000E+01  1.00800000E+00  1.20100000E+01
  1.00800000E+00  1.20100000E+01  1.00800000E+00  1.20100000E+01  1.00800000E+00
  1.20100000E+01  1.00800000E+00  1.20100000E+01  1.00800000E+00  1.20100000E+01
  1.00800000E+00  1.20100000E+01  1.00800000E+00  1.00800000E+00  1.20100000E+01
  1.00800000E+00  1.00800000E+00  1.00800000E+00  1.20100000E+01  1.00800000E+00
  1.20100000E+01  1.00800000E+00  1.00800000E+00  1.20100000E+01  1.00800000E+00
  1.00800000E+00  1.20100000E+01  1.00800000E+00  1.00800000E+00  1.60000000E+01
  1.60000000E+01  1.60000000E+01  1.60000000E+01  1.60000000E+01  1.60000000E+01
  1.20100000E+01  1.20100000E+01  1.20100000E+01  1.20100000E+01  1.20100000E+01
  1.20100000E+01  1.00800000E+00  1.00800000E+00  1.00800000E+00  1.00800000E+00
  1.00800000E+00  1.00800000E+00  1.00800000E+00  1.00800000E+00  1.00800000E+00
  1.00800000E+00  1.00800000E+00  1.00800000E+00  1.00800000E+00  1.00800000E+00
  1.00800000E+00  1.00800000E+00  1.00800000E+00  1.00800000E+00  1.60000000E+01
  1.20100000E+01  1.20100000E+01  1.20100000E+01  1.20100000E+01  1.00800000E+00
  1.00800000E+00  1.00800000E+00  1.20100000E+01  1.00800000E+00  1.20100000E+01
  1.00800000E+00  1.20100000E+01  1.00800000E+00  1.00800000E+00  1.40100000E+01
  1.20100000E+01  1.20100000E+01  1.20100000E+01  1.20100000E+01  1.20100000E+01
  1.20100000E+01  1.20100000E+01  1.00800000E+00  1.20100000E+01  1.00800000E+00
  1.20100000E+01  1.00800000E+00  1.20100000E+01  1.00800000E+00  1.20100000E+01
  1.20100000E+01  1.00800000E+00  1.20100000E+01  1.00800000E+00  1.00800000E+00
  1.20100000E+01  1.20100000E+01  1.20100000E+01  1.20100000E+01  1.60000000E+01
  1.20100000E+01  1.20100000E+01  1.20100000E+01  1.20100000E+01  1.20100000E+01
  1.20100000E+01  1.20100000E+01  1.20100000E+01  1.00800000E+00  1.20100000E+01
  1.00800000E+00  1.20100000E+01  1.00800000E+00  1.20100000E+01  1.00800000E+00
  1.20100000E+01  1.20100000E+01  1.00800000E+00  1.00800000E+00  1.00800000E+00
  1.00800000E+00  1.40100000E+01  1.40100000E+01  1.20100000E+01  1.00800000E+00
  1.40100000E+01  1.20100000E+01  1.00800000E+00  1.20100000E+01  1.20100000E+01
  1.20100000E+01  1.20100000E+01  1.00800000E+00  1.20100000E+01  1.20100000E+01
  1.00800000E+00  1.20100000E+01  1.20100000E+01  1.20100000E+01  1.20100000E+01
  1.20100000E+01  1.20100000E+01  1.20100000E+01  1.20100000E+01  1.20100000E+01
  1.20100000E+01  1.20100000E+01  1.20100000E+01  1.20100000E+01  1.00800000E+00
  1.20100000E+01  1.00800000E+00  1.00800000E+00  1.20100000E+01  1.00800000E+00
  1.20100000E+01  1.20100000E+01  1.00800000E+00  1.20100000E+01  1.00800000E+00
  1.20100000E+01  1.00800000E+00  1.20100000E+01  1.00800000E+00  1.20100000E+01
  1.00800000E+00  1.20100000E+01  1.00800000E+00  1.20100000E+01  1.00800000E+00
  1.20100000E+01  1.00800000E+00  1.20100000E+01  1.00800000E+00  1.00800000E+00
  1.20100000E+01  1.00800000E+00  1.00800000E+00  1.00800000E+00  1.20100000E+01
  1.00800000E+00  1.20100000E+01  1.00800000E+00  1.00800000E+00  1.20100000E+01
  1.00800000E+00  1.00800000E+00  1.20100000E+01  1.00800000E+00  1.00800000E+00
  1.60000000E+01  1.60000000E+01  1.60000000E+01  1.60000000E+01  1.60000000E+01
  1.60000000E+01  1.20100000E+01  1.20100000E+01  1.20100000E+01  1.20100000E+01
  1.20100000E+01  1.20100000E+01  1.00800000E+00  1.00800000E+00  1.00800000E+00
  1.00800000E+00  1.00800000E+00  1.00800000E+00  1.00800000E+00  1.00800000E+00
  1.00800000E+00  1.00800000E+00  1.00800000E+00  1.00800000E+00  1.00800000E+00
  1.00800000E+00  1.00800000E+00  1.00800000E+00  1.00800000E+00  1.00800000E+00
  1.60000000E+01  1.20100000E+01  1.20100000E+01  1.20100000E+01  1.20100000E+01
  1.00800000E+00  1.00800000E+00  1.00800000E+00  1.20100000E+01  1.00800000E+00
  1.20100000E+01  1.00800000E+00  1.20100000E+01  1.00800000E+00  1.00800000E+00
  1.40100000E+01  1.20100000E+01  1.20100000E+01  1.20100000E+01  1.20100000E+01
  1.20100000E+01  1.20100000E+01  1.20100000E+01  1.00800000E+00  1.20100000E+01
  1.00800000E+00  1.20100000E+01  1.00800000E+00  1.20100000E+01  1.00800000E+00
  1.20100000E+01  1.20100000E+01  1.00800000E+00  1.20100000E+01  1.00800000E+00
  1.00800000E+00  1.20100000E+01  1.20100000E+01  1.20100000E+01  1.20100000E+01
  1.60000000E+01  1.20100000E+01  1.20100000E+01  1.20100000E+01  1.20100000E+01
  1.20100000E+01  1.20100000E+01  1.20100000E+01  1.20100000E+01  1.00800000E+00
  1.20100000E+01  1.00800000E+00  1.20100000E+01  1.00800000E+00  1.20100000E+01
  1.00800000E+00  1.20100000E+01  1.20100000E+01  1.00800000E+00  1.00800000E+00
  1.00800000E+00  1.00800000E+00  1.40100000E+01  1.40100000E+01  1.20100000E+01
  1.00800000E+00  1.40100000E+01  1.20100000E+01  1.00800000E+00  1.20100000E+01
  1.20100000E+01  1.20100000E+01  1.20100000E+01  1.00800000E+00  1.20100000E+01
  1.20100000E+01  1.00800000E+00  1.20100000E+01  1.20100000E+01  1.20100000E+01
  1.20100000E+01  1.20100000E+01  1.20100000E+01  1.20100000E+01  1.20100000E+01
  1.20100000E+01  1.20100000E+01  1.20100000E+01  1.20100000E+01  1.20100000E+01
  1.00800000E+00  1.20100000E+01  1.00800000E+00  1.00800000E+00  1.20100000E+01
  1.00800000E+00  1.20100000E+01  1.20100000E+01  1.00800000E+00  1.20100000E+01
  1.00800000E+00  1.20100000E+01  1.00800000E+00  1.20100000E+01  1.00800000E+00
  1.20100000E+01  1.00800000E+00  1.20100000E+01  1.00800000E+00  1.20100000E+01
  1.00800000E+00  1.20100000E+01  1.00800000E+00  1.20100000E+01  1.00800000E+00
  1.00800000E+00  1.20100000E+01  1.00800000E+00  1.00800000E+00  1.00800000E+00
  1.20100000E+01  1.00800000E+00  1.20100000E+01  1.00800000E+00  1.00800000E+00
  1.20100000E+01  1.00800000E+00  1.00800000E+00  1.20100000E+01  1.00800000E+00
  1.00800000E+00  1.60000000E+01  1.60000000E+01  1.60000000E+01  1.60000000E+01
  1.60000000E+01  1.60000000E+01  1.20100000E+01  1.20100000E+01  1.20100000E+01
  1.20100000E+01  1.20100000E+01  1.20100000E+01  1.00800000E+00  1.00800000E+00
  1.00800000E+00  1.00800000E+00  1.00800000E+00  1.00800000E+00  1.00800000E+00
  1.00800000E+00  1.00800000E+00  1.00800000E+00  1.00800000E+00  1.00800000E+00
  1.00800000E+00  1.00800000E+00  1.00800000E+00  1.00800000E+00  1.00800000E+00
  1.00800000E+00  1.60000000E+01  1.20100000E+01  1.20100000E+01  1.20100000E+01
  1.20100000E+01  1.00800000E+00  1.00800000E+00  1.00800000E+00  1.20100000E+01
  1.00800000E+00  1.20100000E+01  1.00800000E+00  1.20100000E+01  1.00800000E+00
  1.00800000E+00  1.40100000E+01  1.20100000E+01  1.20100000E+01  1.20100000E+01
  1.20100000E+01  1.20100000E+01  1.20100000E+01  1.20100000E+01  1.00800000E+00
  1.20100000E+01  1.00800000E+00  1.20100000E+01  1.00800000E+00  1.20100000E+01
  1.00800000E+00  1.20100000E+01  1.20100000E+01  1.00800000E+00  1.20100000E+01
  1.00800000E+00  1.00800000E+00  1.20100000E+01  1.20100000E+01  1.20100000E+01
  1.20100000E+01  1.60000000E+01  1.20100000E+01  1.20100000E+01  1.20100000E+01
  1.20100000E+01  1.20100000E+01  1.20100000E+01  1.20100000E+01  1.20100000E+01
  1.00800000E+00  1.20100000E+01  1.00800000E+00  1.20100000E+01  1.00800000E+00
  1.20100000E+01  1.00800000E+00  1.20100000E+01  1.20100000E+01  1.00800000E+00
  1.00800000E+00  1.00800000E+00  1.00800000E+00  1.40100000E+01  1.40100000E+01
  1.20100000E+01  1.00800000E+00  1.40100000E+01  1.20100000E+01  1.00800000E+00
  1.20100000E+01  1.20100000E+01  1.20100000E+01  1.20100000E+01  1.00800000E+00
  1.20100000E+01  1.20100000E+01  1.00800000E+00  1.20100000E+01  1.20100000E+01
  1.20100000E+01  1.20100000E+01  1.20100000E+01  1.20100000E+01  1.20100000E+01
  1.20100000E+01  1.20100000E+01  1.20100000E+01  1.20100000E+01  1.20100000E+01
  1.20100000E+01  1.00800000E+00  1.20100000E+01  1.00800000E+00  1.00800000E+00
  1.20100000E+01  1.00800000E+00  1.20100000E+01  1.20100000E+01  1.00800000E+00
  1.20100000E+01  1.00800000E+00  1.20100000E+01  1.00800000E+00  1.20100000E+01
  1.00800000E+00  1.20100000E+01  1.00800000E+00  1.20100000E+01  1.00800000E+00
  1.20100000E+01  1.00800000E+00  1.20100000E+01  1.00800000E+00  1.20100000E+01
  1.00800000E+00  1.00800000E+00  1.20100000E+01  1.00800000E+00  1.00800000E+00
  1.00800000E+00  1.20100000E+01  1.00800000E+00  1.20100000E+01  1.00800000E+00
  1.00800000E+00  1.20100000E+01  1.00800000E+00  1.00800000E+00  1.20100000E+01
  1.00800000E+00  1.00800000E+00  1.60000000E+01  1.60000000E+01  1.60000000E+01
  1.60000000E+01  1.60000000E+01  1.60000000E+01  1.20100000E+01  1.20100000E+01
  1.20100000E+01  1.20100000E+01  1.20100000E+01  1.20100000E+01  1.00800000E+00
  1.00800000E+00  1.00800000E+00  1.00800000E+00  1.00800000E+00  1.00800000E+00
  1.00800000E+00  1.00800000E+00  1.00800000E+00  1.00800000E+00  1.00800000E+00
  1.00800000E+00  1.00800000E+00  1.00800000E+00  1.00800000E+00  1.00800000E+00
  1.00800000E+00  1.00800000E+00  1.60000000E+01  1.20100000E+01  1.20100000E+01
  1.20100000E+01  1.20100000E+01  1.00800000E+00  1.00800000E+00  1.00800000E+00
  1.20100000E+01  1.00800000E+00  1.20100000E+01  1.00800000E+00  1.20100000E+01
  1.00800000E+00  1.00800000E+00  1.40100000E+01  1.20100000E+01  1.20100000E+01
  1.20100000E+01  1.20100000E+01  1.20100000E+01  1.20100000E+01  1.20100000E+01
  1.00800000E+00  1.20100000E+01  1.00800000E+00  1.20100000E+01  1.00800000E+00
  1.20100000E+01  1.00800000E+00  1.20100000E+01  1.20100000E+01  1.00800000E+00
  1.20100000E+01  1.00800000E+00  1.00800000E+00  1.20100000E+01  1.20100000E+01
  1.20100000E+01  1.20100000E+01  1.60000000E+01  1.20100000E+01  1.20100000E+01
  1.20100000E+01  1.20100000E+01  1.20100000E+01  1.20100000E+01  1.20100000E+01
  1.20100000E+01  1.00800000E+00  1.20100000E+01  1.00800000E+00  1.20100000E+01
  1.00800000E+00  1.20100000E+01  1.00800000E+00  1.20100000E+01  1.20100000E+01
  1.00800000E+00  1.00800000E+00  1.00800000E+00  1.00800000E+00  1.40100000E+01
  1.40100000E+01  1.20100000E+01  1.00800000E+00  1.40100000E+01  1.20100000E+01
  1.00800000E+00  1.20100000E+01  1.20100000E+01  1.20100000E+01  1.20100000E+01
  1.00800000E+00  1.20100000E+01  1.20100000E+01  1.00800000E+00  1.20100000E+01
  1.20100000E+01  1.20100000E+01  1.20100000E+01  1.20100000E+01  1.20100000E+01
  1.20100000E+01  1.20100000E+01  1.20100000E+01  1.20100000E+01  1.20100000E+01
  1.20100000E+01  1.20100000E+01  1.00800000E+00  1.20100000E+01  1.00800000E+00
  1.00800000E+00  1.20100000E+01  1.00800000E+00  1.20100000E+01  1.20100000E+01
  1.00800000E+00  1.20100000E+01  1.00800000E+00  1.20100000E+01  1.00800000E+00
  1.20100000E+01  1.00800000E+00  1.20100000E+01  1.00800000E+00  1.20100000E+01
  1.00800000E+00  1.20100000E+01  1.00800000E+00  1.20100000E+01  1.00800000E+00
  1.20100000E+01  1.00800000E+00  1.00800000E+00  1.20100000E+01  1.00800000E+00
  1.00800000E+00  1.00800000E+00  1.20100000E+01  1.00800000E+00  1.20100000E+01
  1.00800000E+00  1.00800000E+00  1.20100000E+01  1.00800000E+00  1.00800000E+00
  1.20100000E+01  1.00800000E+00  1.00800000E+00  1.60000000E+01  1.60000000E+01
  1.60000000E+01  1.60000000E+01  1.60000000E+01  1.60000000E+01  1.20100000E+01
  1.20100000E+01  1.20100000E+01  1.20100000E+01  1.20100000E+01  1.20100000E+01
  1.00800000E+00  1.00800000E+00  1.00800000E+00  1.00800000E+00  1.00800000E+00
  1.00800000E+00  1.00800000E+00  1.00800000E+00  1.00800000E+00  1.00800000E+00
  1.00800000E+00  1.00800000E+00  1.00800000E+00  1.00800000E+00  1.00800000E+00
  1.00800000E+00  1.00800000E+00  1.00800000E+00  1.60000000E+01  1.20100000E+01
  1.20100000E+01  1.20100000E+01  1.20100000E+01  1.00800000E+00  1.00800000E+00
  1.00800000E+00  1.20100000E+01  1.00800000E+00  1.20100000E+01  1.00800000E+00
  1.20100000E+01  1.00800000E+00  1.00800000E+00  1.40100000E+01  1.20100000E+01
  1.20100000E+01  1.20100000E+01  1.20100000E+01  1.20100000E+01  1.20100000E+01
  1.20100000E+01  1.00800000E+00  1.20100000E+01  1.00800000E+00  1.20100000E+01
  1.00800000E+00  1.20100000E+01  1.00800000E+00  1.20100000E+01  1.20100000E+01
  1.00800000E+00  1.20100000E+01  1.00800000E+00  1.00800000E+00  1.20100000E+01
  1.20100000E+01  1.20100000E+01  1.20100000E+01  1.60000000E+01  1.20100000E+01
  1.20100000E+01  1.20100000E+01  1.20100000E+01  1.20100000E+01  1.20100000E+01
  1.20100000E+01  1.20100000E+01  1.00800000E+00  1.20100000E+01  1.00800000E+00
  1.20100000E+01  1.00800000E+00  1.20100000E+01  1.00800000E+00  1.20100000E+01
  1.20100000E+01  1.00800000E+00  1.00800000E+00  1.00800000E+00  1.00800000E+00
  1.40100000E+01  1.40100000E+01  1.20100000E+01  1.00800000E+00  1.40100000E+01
  1.20100000E+01  1.00800000E+00  1.20100000E+01  1.20100000E+01  1.20100000E+01
  1.20100000E+01  1.00800000E+00  1.20100000E+01  1.20100000E+01  1.00800000E+00
  1.20100000E+01  1.20100000E+01  1.20100000E+01  1.20100000E+01  1.20100000E+01
  1.20100000E+01  1.20100000E+01  1.20100000E+01  1.20100000E+01  1.20100000E+01
  1.20100000E+01  1.20100000E+01  1.20100000E+01  1.00800000E+00  1.20100000E+01
  1.00800000E+00  1.00800000E+00  1.20100000E+01  1.00800000E+00  1.20100000E+01
  1.20100000E+01  1.00800000E+00  1.20100000E+01  1.00800000E+00  1.20100000E+01
  1.00800000E+00  1.20100000E+01  1.00800000E+00  1.20100000E+01  1.00800000E+00
  1.20100000E+01  1.00800000E+00  1.20100000E+01  1.00800000E+00  1.20100000E+01
  1.00800000E+00  1.20100000E+01  1.00800000E+00  1.00800000E+00  1.20100000E+01
  1.00800000E+00  1.00800000E+00  1.00800000E+00  1.20100000E+01  1.00800000E+00
  1.20100000E+01  1.00800000E+00  1.00800000E+00  1.20100000E+01  1.00800000E+00
  1.00800000E+00  1.20100000E+01  1.00800000E+00  1.00800000E+00  1.60000000E+01
  1.60000000E+01  1.60000000E+01  1.60000000E+01  1.60000000E+01  1.60000000E+01
  1.20100000E+01  1.20100000E+01  1.20100000E+01  1.20100000E+01  1.20100000E+01
  1.20100000E+01  1.00800000E+00  1.00800000E+00  1.00800000E+00  1.00800000E+00
  1.00800000E+00  1.00800000E+00  1.00800000E+00  1.00800000E+00  1.00800000E+00
  1.00800000E+00  1.00800000E+00  1.00800000E+00  1.00800000E+00  1.00800000E+00
  1.00800000E+00  1.00800000E+00  1.00800000E+00  1.00800000E+00  1.60000000E+01
  1.20100000E+01  1.20100000E+01  1.20100000E+01  1.20100000E+01  1.00800000E+00
  1.00800000E+00  1.00800000E+00  1.20100000E+01  1.00800000E+00  1.20100000E+01
  1.00800000E+00  1.20100000E+01  1.00800000E+00  1.00800000E+00  1.40100000E+01
  1.20100000E+01  1.20100000E+01  1.20100000E+01  1.20100000E+01  1.20100000E+01
  1.20100000E+01  1.20100000E+01  1.00800000E+00  1.20100000E+01  1.00800000E+00
  1.20100000E+01  1.00800000E+00  1.20100000E+01  1.00800000E+00  1.20100000E+01
  1.20100000E+01  1.00800000E+00  1.20100000E+01  1.00800000E+00  1.00800000E+00
  1.20100000E+01  1.20100000E+01  1.20100000E+01  1.20100000E+01  1.60000000E+01
  1.20100000E+01  1.20100000E+01  1.20100000E+01  1.20100000E+01  1.20100000E+01
  1.20100000E+01  1.20100000E+01  1.20100000E+01  1.00800000E+00  1.20100000E+01
  1.00800000E+00  1.20100000E+01  1.00800000E+00  1.20100000E+01  1.00800000E+00
  1.20100000E+01  1.20100000E+01  1.00800000E+00  1.00800000E+00  1.00800000E+00
  1.00800000E+00  1.40100000E+01  1.40100000E+01  1.20100000E+01  1.00800000E+00
  1.40100000E+01  1.20100000E+01  1.00800000E+00  1.20100000E+01  1.20100000E+01
  1.20100000E+01  1.20100000E+01  1.00800000E+00  1.20100000E+01  1.20100000E+01
  1.00800000E+00  1.20100000E+01  1.20100000E+01  1.20100000E+01  1.20100000E+01
  1.20100000E+01  1.20100000E+01  1.20100000E+01  1.20100000E+01  1.20100000E+01
  1.20100000E+01  1.20100000E+01  1.20100000E+01  1.20100000E+01  1.00800000E+00
  1.20100000E+01  1.00800000E+00  1.00800000E+00  1.20100000E+01  1.00800000E+00
  1.20100000E+01  1.20100000E+01  1.00800000E+00  1.20100000E+01  1.00800000E+00
  1.20100000E+01  1.00800000E+00  1.20100000E+01  1.00800000E+00  1.20100000E+01
  1.00800000E+00  1.20100000E+01  1.00800000E+00  1.20100000E+01  1.00800000E+00
  1.20100000E+01  1.00800000E+00  1.20100000E+01  1.00800000E+00  1.00800000E+00
  1.20100000E+01  1.00800000E+00  1.00800000E+00  1.00800000E+00  1.20100000E+01
  1.00800000E+00  1.20100000E+01  1.00800000E+00  1.00800000E+00  1.20100000E+01
  1.00800000E+00  1.00800000E+00  1.20100000E+01  1.00800000E+00  1.00800000E+00
  1.60000000E+01  1.60000000E+01  1.60000000E+01  1.60000000E+01  1.60000000E+01
  1.60000000E+01  1.20100000E+01  1.20100000E+01  1.20100000E+01  1.20100000E+01
  1.20100000E+01  1.20100000E+01  1.00800000E+00  1.00800000E+00  1.00800000E+00
  1.00800000E+00  1.00800000E+00  1.00800000E+00  1.00800000E+00  1.00800000E+00
  1.00800000E+00  1.00800000E+00  1.00800000E+00  1.00800000E+00  1.00800000E+00
  1.00800000E+00  1.00800000E+00  1.00800000E+00  1.00800000E+00  1.00800000E+00
  1.60000000E+01  1.20100000E+01  1.20100000E+01  1.20100000E+01  1.20100000E+01
  1.00800000E+00  1.00800000E+00  1.00800000E+00  1.20100000E+01  1.00800000E+00
  1.20100000E+01  1.00800000E+00  1.20100000E+01  1.00800000E+00  1.00800000E+00
  1.40100000E+01  1.20100000E+01  1.20100000E+01  1.20100000E+01  1.20100000E+01
  1.20100000E+01  1.20100000E+01  1.20100000E+01  1.00800000E+00  1.20100000E+01
  1.00800000E+00  1.20100000E+01  1.00800000E+00  1.20100000E+01  1.00800000E+00
  1.20100000E+01  1.20100000E+01  1.00800000E+00  1.20100000E+01  1.00800000E+00
  1.00800000E+00  1.20100000E+01  1.20100000E+01  1.20100000E+01  1.20100000E+01
  1.60000000E+01  1.20100000E+01  1.20100000E+01  1.20100000E+01  1.20100000E+01
  1.20100000E+01  1.20100000E+01  1.20100000E+01  1.20100000E+01  1.00800000E+00
  1.20100000E+01  1.00800000E+00  1.20100000E+01  1.00800000E+00  1.20100000E+01
  1.00800000E+00  1.20100000E+01  1.20100000E+01  1.00800000E+00  1.00800000E+00
  1.00800000E+00  1.00800000E+00  1.40100000E+01  1.40100000E+01  1.20100000E+01
  1.00800000E+00  1.40100000E+01  1.20100000E+01  1.00800000E+00  1.20100000E+01
  1.20100000E+01  1.20100000E+01  1.20100000E+01  1.00800000E+00  1.20100000E+01
  1.20100000E+01  1.00800000E+00  1.20100000E+01  1.20100000E+01  1.20100000E+01
  1.20100000E+01  1.20100000E+01  1.20100000E+01  1.20100000E+01  1.20100000E+01
  1.20100000E+01  1.20100000E+01  1.20100000E+01  1.20100000E+01  1.20100000E+01
  1.00800000E+00  1.20100000E+01  1.00800000E+00  1.00800000E+00  1.20100000E+01
  1.00800000E+00  1.20100000E+01  1.20100000E+01  1.00800000E+00  1.20100000E+01
  1.00800000E+00  1.20100000E+01  1.00800000E+00  1.20100000E+01  1.00800000E+00
  1.20100000E+01  1.00800000E+00  1.20100000E+01  1.00800000E+00  1.20100000E+01
  1.00800000E+00  1.20100000E+01  1.00800000E+00  1.20100000E+01  1.00800000E+00
  1.00800000E+00  1.20100000E+01  1.00800000E+00  1.00800000E+00  1.00800000E+00
  1.20100000E+01  1.00800000E+00  1.20100000E+01  1.00800000E+00  1.00800000E+00
  1.20100000E+01  1.00800000E+00  1.00800000E+00  1.20100000E+01  1.00800000E+00
  1.00800000E+00  1.60000000E+01  1.60000000E+01  1.60000000E+01  1.60000000E+01
  1.60000000E+01  1.60000000E+01  1.20100000E+01  1.20100000E+01  1.20100000E+01
  1.20100000E+01  1.20100000E+01  1.20100000E+01  1.00800000E+00  1.00800000E+00
  1.00800000E+00  1.00800000E+00  1.00800000E+00  1.00800000E+00  1.00800000E+00
  1.00800000E+00  1.00800000E+00  1.00800000E+00  1.00800000E+00  1.00800000E+00
  1.00800000E+00  1.00800000E+00  1.00800000E+00  1.00800000E+00  1.00800000E+00
  1.00800000E+00  1.60000000E+01  1.20100000E+01  1.20100000E+01  1.20100000E+01
  1.20100000E+01  1.00800000E+00  1.00800000E+00  1.00800000E+00  1.20100000E+01
  1.00800000E+00  1.20100000E+01  1.00800000E+00  1.20100000E+01  1.00800000E+00
  1.00800000E+00  1.40100000E+01  1.20100000E+01  1.20100000E+01  1.20100000E+01
  1.20100000E+01  1.20100000E+01  1.20100000E+01  1.20100000E+01  1.00800000E+00
  1.20100000E+01  1.00800000E+00  1.20100000E+01  1.00800000E+00  1.20100000E+01
  1.00800000E+00  1.20100000E+01  1.20100000E+01  1.00800000E+00  1.20100000E+01
  1.00800000E+00  1.00800000E+00  1.20100000E+01  1.20100000E+01  1.20100000E+01
  1.20100000E+01  1.60000000E+01  1.20100000E+01  1.20100000E+01  1.20100000E+01
  1.20100000E+01  1.20100000E+01  1.20100000E+01  1.20100000E+01  1.20100000E+01
  1.00800000E+00  1.20100000E+01  1.00800000E+00  1.20100000E+01  1.00800000E+00
  1.20100000E+01  1.00800000E+00  1.20100000E+01  1.20100000E+01  1.00800000E+00
  1.00800000E+00  1.00800000E+00  1.00800000E+00  1.40100000E+01  1.40100000E+01
  1.20100000E+01  1.00800000E+00  1.40100000E+01  1.20100000E+01  1.00800000E+00
  1.20100000E+01  1.20100000E+01  1.20100000E+01  1.20100000E+01  1.00800000E+00
  1.20100000E+01  1.20100000E+01  1.00800000E+00  1.20100000E+01  1.20100000E+01
  1.20100000E+01  1.20100000E+01  1.20100000E+01  1.20100000E+01  1.20100000E+01
  1.20100000E+01  1.20100000E+01  1.20100000E+01  1.20100000E+01  1.20100000E+01
  1.20100000E+01  1.00800000E+00  1.20100000E+01  1.00800000E+00  1.00800000E+00
  1.20100000E+01  1.00800000E+00  1.20100000E+01  1.20100000E+01  1.00800000E+00
  1.20100000E+01  1.00800000E+00  1.20100000E+01  1.00800000E+00  1.20100000E+01
  1.00800000E+00  1.20100000E+01  1.00800000E+00  1.20100000E+01  1.00800000E+00
  1.20100000E+01  1.00800000E+00  1.20100000E+01  1.00800000E+00  1.20100000E+01
  1.00800000E+00  1.00800000E+00  1.20100000E+01  1.00800000E+00  1.00800000E+00
  1.00800000E+00  1.20100000E+01  1.00800000E+00  1.20100000E+01  1.00800000E+00
  1.00800000E+00  1.20100000E+01  1.00800000E+00  1.00800000E+00  1.20100000E+01
  1.00800000E+00  1.00800000E+00  1.60000000E+01  1.60000000E+01  1.60000000E+01
  1.60000000E+01  1.60000000E+01  1.60000000E+01  1.20100000E+01  1.20100000E+01
  1.20100000E+01  1.20100000E+01  1.20100000E+01  1.20100000E+01  1.00800000E+00
  1.00800000E+00  1.00800000E+00  1.00800000E+00  1.00800000E+00  1.00800000E+00
  1.00800000E+00  1.00800000E+00  1.00800000E+00  1.00800000E+00  1.00800000E+00
  1.00800000E+00  1.00800000E+00  1.00800000E+00  1.00800000E+00  1.00800000E+00
  1.00800000E+00  1.00800000E+00  1.60000000E+01  1.20100000E+01  1.20100000E+01
  1.20100000E+01  1.20100000E+01  1.00800000E+00  1.00800000E+00  1.00800000E+00
  1.20100000E+01  1.00800000E+00  1.20100000E+01  1.00800000E+00  1.20100000E+01
  1.00800000E+00  1.00800000E+00  1.40100000E+01  1.20100000E+01  1.20100000E+01
  1.20100000E+01  1.20100000E+01  1.20100000E+01  1.20100000E+01  1.20100000E+01
  1.00800000E+00  1.20100000E+01  1.00800000E+00  1.20100000E+01  1.00800000E+00
  1.20100000E+01  1.00800000E+00  1.20100000E+01  1.20100000E+01  1.00800000E+00
  1.20100000E+01  1.00800000E+00  1.00800000E+00  1.20100000E+01  1.20100000E+01
  1.20100000E+01  1.20100000E+01  1.60000000E+01  1.20100000E+01  1.20100000E+01
  1.20100000E+01  1.20100000E+01  1.20100000E+01  1.20100000E+01  1.20100000E+01
  1.20100000E+01  1.00800000E+00  1.20100000E+01  1.00800000E+00  1.20100000E+01
  1.00800000E+00  1.20100000E+01  1.00800000E+00  1.20100000E+01  1.20100000E+01
  1.00800000E+00  1.00800000E+00  1.00800000E+00  1.00800000E+00  1.40100000E+01
  1.40100000E+01  1.20100000E+01  1.00800000E+00  1.40100000E+01  1.20100000E+01
  1.00800000E+00  1.20100000E+01  1.20100000E+01  1.20100000E+01  1.20100000E+01
  1.00800000E+00  1.20100000E+01  1.20100000E+01  1.00800000E+00  1.20100000E+01
  1.20100000E+01  1.20100000E+01  1.20100000E+01  1.20100000E+01  1.20100000E+01
  1.20100000E+01  1.20100000E+01  1.20100000E+01  1.20100000E+01  1.20100000E+01
  1.20100000E+01  1.20100000E+01  1.00800000E+00  1.20100000E+01  1.00800000E+00
  1.00800000E+00  1.20100000E+01  1.00800000E+00  1.20100000E+01  1.20100000E+01
  1.00800000E+00  1.20100000E+01  1.00800000E+00  1.20100000E+01  1.00800000E+00
  1.20100000E+01  1.00800000E+00  1.20100000E+01  1.00800000E+00  1.20100000E+01
  1.00800000E+00  1.20100000E+01  1.00800000E+00  1.20100000E+01  1.00800000E+00
  1.20100000E+01  1.00800000E+00  1.00800000E+00  1.20100000E+01  1.00800000E+00
  1.00800000E+00  1.00800000E+00  1.20100000E+01  1.00800000E+00  1.20100000E+01
  1.00800000E+00  1.00800000E+00  1.20100000E+01  1.00800000E+00  1.00800000E+00
  1.20100000E+01  1.00800000E+00  1.00800000E+00  1.60000000E+01  1.60000000E+01
  1.60000000E+01  1.60000000E+01  1.60000000E+01  1.60000000E+01  1.20100000E+01
  1.20100000E+01  1.20100000E+01  1.20100000E+01  1.20100000E+01  1.20100000E+01
  1.00800000E+00  1.00800000E+00  1.00800000E+00  1.00800000E+00  1.00800000E+00
  1.00800000E+00  1.00800000E+00  1.00800000E+00  1.00800000E+00  1.00800000E+00
  1.00800000E+00  1.00800000E+00  1.00800000E+00  1.00800000E+00  1.00800000E+00
  1.00800000E+00  1.00800000E+00  1.00800000E+00  1.60000000E+01  1.20100000E+01
  1.20100000E+01  1.20100000E+01  1.20100000E+01  1.00800000E+00  1.00800000E+00
  1.00800000E+00  1.20100000E+01  1.00800000E+00  1.20100000E+01  1.00800000E+00
  1.20100000E+01  1.00800000E+00  1.00800000E+00  1.40100000E+01  1.20100000E+01
  1.20100000E+01  1.20100000E+01  1.20100000E+01  1.20100000E+01  1.20100000E+01
  1.20100000E+01  1.00800000E+00  1.20100000E+01  1.00800000E+00  1.20100000E+01
  1.00800000E+00  1.20100000E+01  1.00800000E+00  1.20100000E+01  1.20100000E+01
  1.00800000E+00  1.20100000E+01  1.00800000E+00  1.00800000E+00  1.20100000E+01
  1.20100000E+01  1.20100000E+01  1.20100000E+01  1.60000000E+01  1.20100000E+01
  1.20100000E+01  1.20100000E+01  1.20100000E+01  1.20100000E+01  1.20100000E+01
  1.20100000E+01  1.20100000E+01  1.00800000E+00  1.20100000E+01  1.00800000E+00
  1.20100000E+01  1.00800000E+00  1.20100000E+01  1.00800000E+00  1.20100000E+01
  1.20100000E+01  1.00800000E+00  1.00800000E+00  1.00800000E+00  1.00800000E+00
  1.40100000E+01  1.40100000E+01  1.20100000E+01  1.00800000E+00  1.40100000E+01
  1.20100000E+01  1.00800000E+00  1.20100000E+01  1.20100000E+01  1.20100000E+01
  1.20100000E+01  1.00800000E+00  1.20100000E+01  1.20100000E+01  1.00800000E+00
  1.20100000E+01  1.20100000E+01  1.20100000E+01  1.20100000E+01  1.20100000E+01
  1.20100000E+01  1.20100000E+01  1.20100000E+01  1.20100000E+01  1.20100000E+01
  1.20100000E+01  1.20100000E+01  1.20100000E+01  1.00800000E+00  1.20100000E+01
  1.00800000E+00  1.00800000E+00  1.20100000E+01  1.00800000E+00  1.20100000E+01
  1.20100000E+01  1.00800000E+00  1.20100000E+01  1.00800000E+00  1.20100000E+01
  1.00800000E+00  1.20100000E+01  1.00800000E+00  1.20100000E+01  1.00800000E+00
  1.20100000E+01  1.00800000E+00  1.20100000E+01  1.00800000E+00  1.20100000E+01
  1.00800000E+00  1.20100000E+01  1.00800000E+00  1.00800000E+00  1.20100000E+01
  1.00800000E+00  1.00800000E+00  1.00800000E+00  1.20100000E+01  1.00800000E+00
  1.20100000E+01  1.00800000E+00  1.00800000E+00  1.20100000E+01  1.00800000E+00
  1.00800000E+00  1.20100000E+01  1.00800000E+00  1.00800000E+00  1.60000000E+01
  1.60000000E+01  1.60000000E+01  1.60000000E+01  1.60000000E+01  1.60000000E+01
  1.20100000E+01  1.20100000E+01  1.20100000E+01  1.20100000E+01  1.20100000E+01
  1.20100000E+01  1.00800000E+00  1.00800000E+00  1.00800000E+00  1.00800000E+00
  1.00800000E+00  1.00800000E+00  1.00800000E+00  1.00800000E+00  1.00800000E+00
  1.00800000E+00  1.00800000E+00  1.00800000E+00  1.00800000E+00  1.00800000E+00
  1.00800000E+00  1.00800000E+00  1.00800000E+00  1.00800000E+00  1.60000000E+01
  1.20100000E+01  1.20100000E+01  1.20100000E+01  1.20100000E+01  1.00800000E+00
  1.00800000E+00  1.00800000E+00  1.20100000E+01  1.00800000E+00  1.20100000E+01
  1.00800000E+00  1.20100000E+01  1.00800000E+00  1.00800000E+00  1.40100000E+01
  1.20100000E+01  1.20100000E+01  1.20100000E+01  1.20100000E+01  1.20100000E+01
  1.20100000E+01  1.20100000E+01  1.00800000E+00  1.20100000E+01  1.00800000E+00
  1.20100000E+01  1.00800000E+00  1.20100000E+01  1.00800000E+00  1.20100000E+01
  1.20100000E+01  1.00800000E+00  1.20100000E+01  1.00800000E+00  1.00800000E+00
  1.20100000E+01  1.20100000E+01  1.20100000E+01  1.20100000E+01  1.60000000E+01
  1.20100000E+01  1.20100000E+01  1.20100000E+01  1.20100000E+01  1.20100000E+01
  1.20100000E+01  1.20100000E+01  1.20100000E+01  1.00800000E+00  1.20100000E+01
  1.00800000E+00  1.20100000E+01  1.00800000E+00  1.20100000E+01  1.00800000E+00
  1.20100000E+01  1.20100000E+01  1.00800000E+00  1.00800000E+00  1.00800000E+00
  1.00800000E+00  1.40100000E+01  1.40100000E+01  1.20100000E+01  1.00800000E+00
  1.40100000E+01  1.20100000E+01  1.00800000E+00  1.20100000E+01  1.20100000E+01
  1.20100000E+01  1.20100000E+01  1.00800000E+00  1.20100000E+01  1.20100000E+01
  1.00800000E+00  1.20100000E+01  1.20100000E+01  1.20100000E+01  1.20100000E+01
  1.20100000E+01  1.20100000E+01  1.20100000E+01  1.20100000E+01  1.20100000E+01
  1.20100000E+01  1.20100000E+01  1.20100000E+01  1.20100000E+01  1.00800000E+00
  1.20100000E+01  1.00800000E+00  1.00800000E+00  1.20100000E+01  1.00800000E+00
  1.20100000E+01  1.20100000E+01  1.00800000E+00  1.20100000E+01  1.00800000E+00
  1.20100000E+01  1.00800000E+00  1.20100000E+01  1.00800000E+00  1.20100000E+01
  1.00800000E+00  1.20100000E+01  1.00800000E+00  1.20100000E+01  1.00800000E+00
  1.20100000E+01  1.00800000E+00  1.20100000E+01  1.00800000E+00  1.00800000E+00
  1.20100000E+01  1.00800000E+00  1.00800000E+00  1.00800000E+00  1.20100000E+01
  1.00800000E+00  1.20100000E+01  1.00800000E+00  1.00800000E+00  1.20100000E+01
  1.00800000E+00  1.00800000E+00  1.20100000E+01  1.00800000E+00  1.00800000E+00
  1.60000000E+01  1.60000000E+01  1.60000000E+01  1.60000000E+01  1.60000000E+01
  1.60000000E+01  1.20100000E+01  1.20100000E+01  1.20100000E+01  1.20100000E+01
  1.20100000E+01  1.20100000E+01  1.00800000E+00  1.00800000E+00  1.00800000E+00
  1.00800000E+00  1.00800000E+00  1.00800000E+00  1.00800000E+00  1.00800000E+00
  1.00800000E+00  1.00800000E+00  1.00800000E+00  1.00800000E+00  1.00800000E+00
  1.00800000E+00  1.00800000E+00  1.00800000E+00  1.00800000E+00  1.00800000E+00
  1.60000000E+01  1.20100000E+01  1.20100000E+01  1.20100000E+01  1.20100000E+01
  1.00800000E+00  1.00800000E+00  1.00800000E+00  1.20100000E+01  1.00800000E+00
  1.20100000E+01  1.00800000E+00  1.20100000E+01  1.00800000E+00  1.00800000E+00
  1.40100000E+01  1.20100000E+01  1.20100000E+01  1.20100000E+01  1.20100000E+01
  1.20100000E+01  1.20100000E+01  1.20100000E+01  1.00800000E+00  1.20100000E+01
  1.00800000E+00  1.20100000E+01  1.00800000E+00  1.20100000E+01  1.00800000E+00
  1.20100000E+01  1.20100000E+01  1.00800000E+00  1.20100000E+01  1.00800000E+00
  1.00800000E+00  1.20100000E+01  1.20100000E+01  1.20100000E+01  1.20100000E+01
  1.60000000E+01  1.20100000E+01  1.20100000E+01  1.20100000E+01  1.20100000E+01
  1.20100000E+01  1.20100000E+01  1.20100000E+01  1.20100000E+01  1.00800000E+00
  1.20100000E+01  1.00800000E+00  1.20100000E+01  1.00800000E+00  1.20100000E+01
  1.00800000E+00  1.20100000E+01  1.20100000E+01  1.00800000E+00  1.00800000E+00
  1.00800000E+00  1.00800000E+00  1.40100000E+01  1.40100000E+01  1.20100000E+01
  1.00800000E+00  1.40100000E+01  1.20100000E+01  1.00800000E+00  1.20100000E+01
  1.20100000E+01  1.20100000E+01  1.20100000E+01  1.00800000E+00  1.20100000E+01
  1.20100000E+01  1.00800000E+00  1.20100000E+01  1.20100000E+01  1.20100000E+01
  1.20100000E+01  1.20100000E+01  1.20100000E+01  1.20100000E+01  1.20100000E+01
  1.20100000E+01  1.20100000E+01  1.20100000E+01  1.20100000E+01  1.20100000E+01
  1.00800000E+00  1.20100000E+01  1.00800000E+00  1.00800000E+00  1.20100000E+01
  1.00800000E+00  1.20100000E+01  1.20100000E+01  1.00800000E+00  1.20100000E+01
  1.00800000E+00  1.20100000E+01  1.00800000E+00  1.20100000E+01  1.00800000E+00
  1.20100000E+01  1.00800000E+00  1.20100000E+01  1.00800000E+00  1.20100000E+01
  1.00800000E+00  1.20100000E+01  1.00800000E+00  1.20100000E+01  1.00800000E+00
  1.00800000E+00  1.20100000E+01  1.00800000E+00  1.00800000E+00  1.00800000E+00
  1.20100000E+01  1.00800000E+00  1.20100000E+01  1.00800000E+00  1.00800000E+00
  1.20100000E+01  1.00800000E+00  1.00800000E+00  1.20100000E+01  1.00800000E+00
  1.00800000E+00  1.60000000E+01  1.60000000E+01  1.60000000E+01  1.60000000E+01
  1.60000000E+01  1.60000000E+01  1.20100000E+01  1.20100000E+01  1.20100000E+01
  1.20100000E+01  1.20100000E+01  1.20100000E+01  1.00800000E+00  1.00800000E+00
  1.00800000E+00  1.00800000E+00  1.00800000E+00  1.00800000E+00  1.00800000E+00
  1.00800000E+00  1.00800000E+00  1.00800000E+00  1.00800000E+00  1.00800000E+00
  1.00800000E+00  1.00800000E+00  1.00800000E+00  1.00800000E+00  1.00800000E+00
  1.00800000E+00  1.60000000E+01  1.20100000E+01  1.20100000E+01  1.20100000E+01
  1.20100000E+01  1.00800000E+00  1.00800000E+00  1.00800000E+00  1.20100000E+01
  1.00800000E+00  1.20100000E+01  1.00800000E+00  1.20100000E+01  1.00800000E+00
  1.00800000E+00  1.40100000E+01  1.20100000E+01  1.20100000E+01  1.20100000E+01
  1.20100000E+01  1.20100000E+01  1.20100000E+01  1.20100000E+01  1.00800000E+00
  1.20100000E+01  1.00800000E+00  1.20100000E+01  1.00800000E+00  1.20100000E+01
  1.00800000E+00  1.20100000E+01  1.20100000E+01  1.00800000E+00  1.20100000E+01
  1.00800000E+00  1.00800000E+00  1.20100000E+01  1.20100000E+01  1.20100000E+01
  1.20100000E+01  1.60000000E+01  1.20100000E+01  1.20100000E+01  1.20100000E+01
  1.20100000E+01  1.20100000E+01  1.20100000E+01  1.20100000E+01  1.20100000E+01
  1.00800000E+00  1.20100000E+01  1.00800000E+00  1.20100000E+01  1.00800000E+00
  1.20100000E+01  1.00800000E+00  1.20100000E+01  1.20100000E+01  1.00800000E+00
  1.00800000E+00  1.00800000E+00  1.00800000E+00  1.40100000E+01  1.40100000E+01
  1.20100000E+01  1.00800000E+00  1.40100000E+01  1.20100000E+01  1.00800000E+00
  1.20100000E+01  1.20100000E+01  1.20100000E+01  1.20100000E+01  1.00800000E+00
  1.20100000E+01  1.20100000E+01  1.00800000E+00  1.20100000E+01  1.20100000E+01
  1.20100000E+01  1.20100000E+01  1.20100000E+01  1.20100000E+01  1.20100000E+01
  1.20100000E+01  1.20100000E+01  1.20100000E+01  1.20100000E+01  1.20100000E+01
  1.20100000E+01  1.00800000E+00  1.20100000E+01  1.00800000E+00  1.00800000E+00
  1.20100000E+01  1.00800000E+00  1.20100000E+01  1.20100000E+01  1.00800000E+00
  1.20100000E+01  1.00800000E+00  1.20100000E+01  1.00800000E+00  1.20100000E+01
  1.00800000E+00  1.20100000E+01  1.00800000E+00  1.20100000E+01  1.00800000E+00
  1.20100000E+01  1.00800000E+00  1.20100000E+01  1.00800000E+00  1.20100000E+01
  1.00800000E+00  1.00800000E+00  1.20100000E+01  1.00800000E+00  1.00800000E+00
  1.00800000E+00  1.20100000E+01  1.00800000E+00  1.20100000E+01  1.00800000E+00
  1.00800000E+00  1.20100000E+01  1.00800000E+00  1.00800000E+00  1.20100000E+01
  1.00800000E+00  1.00800000E+00  1.60000000E+01  1.60000000E+01  1.60000000E+01
  1.60000000E+01  1.60000000E+01  1.60000000E+01  1.20100000E+01  1.20100000E+01
  1.20100000E+01  1.20100000E+01  1.20100000E+01  1.20100000E+01  1.00800000E+00
  1.00800000E+00  1.00800000E+00  1.00800000E+00  1.00800000E+00  1.00800000E+00
  1.00800000E+00  1.00800000E+00  1.00800000E+00  1.00800000E+00  1.00800000E+00
  1.00800000E+00  1.00800000E+00  1.00800000E+00  1.00800000E+00  1.00800000E+00
  1.00800000E+00  1.00800000E+00  1.60000000E+01  1.20100000E+01  1.20100000E+01
  1.20100000E+01  1.20100000E+01  1.00800000E+00  1.00800000E+00  1.00800000E+00
  1.20100000E+01  1.00800000E+00  1.20100000E+01  1.00800000E+00  1.20100000E+01
  1.00800000E+00  1.00800000E+00  1.40100000E+01  1.20100000E+01  1.20100000E+01
  1.20100000E+01  1.20100000E+01  1.20100000E+01  1.20100000E+01  1.20100000E+01
  1.00800000E+00  1.20100000E+01  1.00800000E+00  1.20100000E+01  1.00800000E+00
  1.20100000E+01  1.00800000E+00  1.20100000E+01  1.20100000E+01  1.00800000E+00
  1.20100000E+01  1.00800000E+00  1.00800000E+00  1.20100000E+01  1.20100000E+01
  1.20100000E+01  1.20100000E+01  1.60000000E+01  1.20100000E+01  1.20100000E+01
  1.20100000E+01  1.20100000E+01  1.20100000E+01  1.20100000E+01  1.20100000E+01
  1.20100000E+01  1.00800000E+00  1.20100000E+01  1.00800000E+00  1.20100000E+01
  1.00800000E+00  1.20100000E+01  1.00800000E+00  1.20100000E+01  1.20100000E+01
  1.00800000E+00  1.00800000E+00  1.00800000E+00  1.00800000E+00  1.40100000E+01
  1.40100000E+01  1.20100000E+01  1.00800000E+00  1.40100000E+01  1.20100000E+01
  1.00800000E+00  1.20100000E+01  1.20100000E+01  1.20100000E+01  1.20100000E+01
  1.00800000E+00  1.20100000E+01  1.20100000E+01  1.00800000E+00  1.20100000E+01
  1.20100000E+01  1.20100000E+01  1.20100000E+01  1.20100000E+01  1.20100000E+01
  1.20100000E+01  1.20100000E+01  1.20100000E+01  1.20100000E+01  1.20100000E+01
  1.20100000E+01  1.20100000E+01  1.00800000E+00  1.20100000E+01  1.00800000E+00
  1.00800000E+00  1.20100000E+01  1.00800000E+00  1.20100000E+01  1.20100000E+01
  1.00800000E+00  1.20100000E+01  1.00800000E+00  1.20100000E+01  1.00800000E+00
  1.20100000E+01  1.00800000E+00  1.20100000E+01  1.00800000E+00  1.20100000E+01
  1.00800000E+00  1.20100000E+01  1.00800000E+00  1.20100000E+01  1.00800000E+00
  1.20100000E+01  1.00800000E+00  1.00800000E+00  1.20100000E+01  1.00800000E+00
  1.00800000E+00  1.00800000E+00  1.20100000E+01  1.00800000E+00  1.20100000E+01
  1.00800000E+00  1.00800000E+00  1.20100000E+01  1.00800000E+00  1.00800000E+00
  1.20100000E+01  1.00800000E+00  1.00800000E+00  1.60000000E+01  1.60000000E+01
  1.60000000E+01  1.60000000E+01  1.60000000E+01  1.60000000E+01  1.20100000E+01
  1.20100000E+01  1.20100000E+01  1.20100000E+01  1.20100000E+01  1.20100000E+01
  1.00800000E+00  1.00800000E+00  1.00800000E+00  1.00800000E+00  1.00800000E+00
  1.00800000E+00  1.00800000E+00  1.00800000E+00  1.00800000E+00  1.00800000E+00
  1.00800000E+00  1.00800000E+00  1.00800000E+00  1.00800000E+00  1.00800000E+00
  1.00800000E+00  1.00800000E+00  1.00800000E+00  1.60000000E+01  1.20100000E+01
  1.20100000E+01  1.20100000E+01  1.20100000E+01  1.00800000E+00  1.00800000E+00
  1.00800000E+00  1.20100000E+01  1.00800000E+00  1.20100000E+01  1.00800000E+00
  1.20100000E+01  1.00800000E+00  1.00800000E+00  1.40100000E+01  1.20100000E+01
  1.20100000E+01  1.20100000E+01  1.20100000E+01  1.20100000E+01  1.20100000E+01
  1.20100000E+01  1.00800000E+00  1.20100000E+01  1.00800000E+00  1.20100000E+01
  1.00800000E+00  1.20100000E+01  1.00800000E+00  1.20100000E+01  1.20100000E+01
  1.00800000E+00  1.20100000E+01  1.00800000E+00  1.00800000E+00  1.20100000E+01
  1.20100000E+01  1.20100000E+01  1.20100000E+01  1.60000000E+01  1.20100000E+01
  1.20100000E+01  1.20100000E+01  1.20100000E+01  1.20100000E+01  1.20100000E+01
  1.20100000E+01  1.20100000E+01  1.00800000E+00  1.20100000E+01  1.00800000E+00
  1.20100000E+01  1.00800000E+00  1.20100000E+01  1.00800000E+00  1.20100000E+01
  1.20100000E+01  1.00800000E+00  1.00800000E+00  1.00800000E+00  1.00800000E+00
  1.40100000E+01  1.40100000E+01  1.20100000E+01  1.00800000E+00  1.40100000E+01
  1.20100000E+01  1.00800000E+00  1.20100000E+01  1.20100000E+01  1.20100000E+01
  1.20100000E+01  1.00800000E+00  1.20100000E+01  1.20100000E+01  1.00800000E+00
  1.20100000E+01  1.20100000E+01  1.20100000E+01  1.20100000E+01  1.20100000E+01
  1.20100000E+01  1.20100000E+01  1.20100000E+01  1.20100000E+01  1.20100000E+01
  1.20100000E+01  1.20100000E+01  1.20100000E+01  1.00800000E+00  1.20100000E+01
  1.00800000E+00  1.00800000E+00  1.20100000E+01  1.00800000E+00  1.20100000E+01
  1.20100000E+01  1.00800000E+00  1.20100000E+01  1.00800000E+00  1.20100000E+01
  1.00800000E+00  1.20100000E+01  1.00800000E+00  1.20100000E+01  1.00800000E+00
  1.20100000E+01  1.00800000E+00  1.20100000E+01  1.00800000E+00  1.20100000E+01
  1.00800000E+00  1.20100000E+01  1.00800000E+00  1.00800000E+00  1.20100000E+01
  1.00800000E+00  1.00800000E+00  1.00800000E+00  1.20100000E+01  1.00800000E+00
  1.20100000E+01  1.00800000E+00  1.00800000E+00  1.20100000E+01  1.00800000E+00
  1.00800000E+00  1.20100000E+01  1.00800000E+00  1.00800000E+00  1.60000000E+01
  1.60000000E+01  1.60000000E+01  1.60000000E+01  1.60000000E+01  1.60000000E+01
  1.20100000E+01  1.20100000E+01  1.20100000E+01  1.20100000E+01  1.20100000E+01
  1.20100000E+01  1.00800000E+00  1.00800000E+00  1.00800000E+00  1.00800000E+00
  1.00800000E+00  1.00800000E+00  1.00800000E+00  1.00800000E+00  1.00800000E+00
  1.00800000E+00  1.00800000E+00  1.00800000E+00  1.00800000E+00  1.00800000E+00
  1.00800000E+00  1.00800000E+00  1.00800000E+00  1.00800000E+00  1.60000000E+01
  1.20100000E+01  1.20100000E+01  1.20100000E+01  1.20100000E+01  1.00800000E+00
  1.00800000E+00  1.00800000E+00  1.20100000E+01  1.00800000E+00  1.20100000E+01
  1.00800000E+00  1.20100000E+01  1.00800000E+00  1.00800000E+00  1.40100000E+01
  1.20100000E+01  1.20100000E+01  1.20100000E+01  1.20100000E+01  1.20100000E+01
  1.20100000E+01  1.20100000E+01  1.00800000E+00  1.20100000E+01  1.00800000E+00
  1.20100000E+01  1.00800000E+00  1.20100000E+01  1.00800000E+00  1.20100000E+01
  1.20100000E+01  1.00800000E+00  1.20100000E+01  1.00800000E+00  1.00800000E+00
  1.20100000E+01  1.20100000E+01  1.20100000E+01  1.20100000E+01  1.60000000E+01
  1.20100000E+01  1.20100000E+01  1.20100000E+01  1.20100000E+01  1.20100000E+01
  1.20100000E+01  1.20100000E+01  1.20100000E+01  1.00800000E+00  1.20100000E+01
  1.00800000E+00  1.20100000E+01  1.00800000E+00  1.20100000E+01  1.00800000E+00
  1.20100000E+01  1.20100000E+01  1.00800000E+00  1.00800000E+00  1.00800000E+00
  1.00800000E+00  1.40100000E+01  1.40100000E+01  1.20100000E+01  1.00800000E+00
  1.40100000E+01  1.20100000E+01  1.00800000E+00  1.20100000E+01  1.20100000E+01
  1.20100000E+01  1.20100000E+01  1.00800000E+00  1.20100000E+01  1.20100000E+01
  1.00800000E+00  1.20100000E+01  1.20100000E+01  1.20100000E+01  1.20100000E+01
  1.20100000E+01  1.20100000E+01  1.20100000E+01  1.20100000E+01  1.20100000E+01
  1.20100000E+01  1.20100000E+01  1.20100000E+01  1.20100000E+01  1.00800000E+00
  1.20100000E+01  1.00800000E+00  1.00800000E+00  1.20100000E+01  1.00800000E+00
  1.20100000E+01  1.20100000E+01  1.00800000E+00  1.20100000E+01  1.00800000E+00
  1.20100000E+01  1.00800000E+00  1.20100000E+01  1.00800000E+00  1.20100000E+01
  1.00800000E+00  1.20100000E+01  1.00800000E+00  1.20100000E+01  1.00800000E+00
  1.20100000E+01  1.00800000E+00  1.20100000E+01  1.00800000E+00  1.00800000E+00
  1.20100000E+01  1.00800000E+00  1.00800000E+00  1.00800000E+00  1.20100000E+01
  1.00800000E+00  1.20100000E+01  1.00800000E+00  1.00800000E+00  1.20100000E+01
  1.00800000E+00  1.00800000E+00  1.20100000E+01  1.00800000E+00  1.00800000E+00
  1.60000000E+01  1.60000000E+01  1.60000000E+01  1.60000000E+01  1.60000000E+01
  1.60000000E+01  1.20100000E+01  1.20100000E+01  1.20100000E+01  1.20100000E+01
  1.20100000E+01  1.20100000E+01  1.00800000E+00  1.00800000E+00  1.00800000E+00
  1.00800000E+00  1.00800000E+00  1.00800000E+00  1.00800000E+00  1.00800000E+00
  1.00800000E+00  1.00800000E+00  1.00800000E+00  1.00800000E+00  1.00800000E+00
  1.00800000E+00  1.00800000E+00  1.00800000E+00  1.00800000E+00  1.00800000E+00
  1.60000000E+01  1.20100000E+01  1.20100000E+01  1.20100000E+01  1.20100000E+01
  1.00800000E+00  1.00800000E+00  1.00800000E+00  1.20100000E+01  1.00800000E+00
  1.20100000E+01  1.00800000E+00  1.20100000E+01  1.00800000E+00  1.00800000E+00
  1.40100000E+01  1.20100000E+01  1.20100000E+01  1.20100000E+01  1.20100000E+01
  1.20100000E+01  1.20100000E+01  1.20100000E+01  1.00800000E+00  1.20100000E+01
  1.00800000E+00  1.20100000E+01  1.00800000E+00  1.20100000E+01  1.00800000E+00
  1.20100000E+01  1.20100000E+01  1.00800000E+00  1.20100000E+01  1.00800000E+00
  1.00800000E+00  1.20100000E+01  1.20100000E+01  1.20100000E+01  1.20100000E+01
  1.60000000E+01  1.20100000E+01  1.20100000E+01  1.20100000E+01  1.20100000E+01
  1.20100000E+01  1.20100000E+01  1.20100000E+01  1.20100000E+01  1.00800000E+00
  1.20100000E+01  1.00800000E+00  1.20100000E+01  1.00800000E+00  1.20100000E+01
  1.00800000E+00  1.20100000E+01  1.20100000E+01  1.00800000E+00  1.00800000E+00
  1.00800000E+00  1.00800000E+00  1.40100000E+01  1.40100000E+01  1.20100000E+01
  1.00800000E+00  1.40100000E+01  1.20100000E+01  1.00800000E+00  1.20100000E+01
  1.20100000E+01  1.20100000E+01  1.20100000E+01  1.00800000E+00  1.20100000E+01
  1.20100000E+01  1.00800000E+00  1.20100000E+01  1.20100000E+01  1.20100000E+01
  1.20100000E+01  1.20100000E+01  1.20100000E+01  1.20100000E+01  1.20100000E+01
  1.20100000E+01  1.20100000E+01  1.20100000E+01  1.20100000E+01  1.20100000E+01
  1.00800000E+00  1.20100000E+01  1.00800000E+00  1.00800000E+00  1.20100000E+01
  1.00800000E+00  1.20100000E+01  1.20100000E+01  1.00800000E+00  1.20100000E+01
  1.00800000E+00  1.20100000E+01  1.00800000E+00  1.20100000E+01  1.00800000E+00
  1.20100000E+01  1.00800000E+00  1.20100000E+01  1.00800000E+00  1.20100000E+01
  1.00800000E+00  1.20100000E+01  1.00800000E+00  1.20100000E+01  1.00800000E+00
  1.00800000E+00  1.20100000E+01  1.00800000E+00  1.00800000E+00  1.00800000E+00
  1.20100000E+01  1.00800000E+00  1.20100000E+01  1.00800000E+00  1.00800000E+00
  1.20100000E+01  1.00800000E+00  1.00800000E+00  1.20100000E+01  1.00800000E+00
  1.00800000E+00  1.60000000E+01  1.60000000E+01  1.60000000E+01  1.60000000E+01
  1.60000000E+01  1.60000000E+01  1.20100000E+01  1.20100000E+01  1.20100000E+01
  1.20100000E+01  1.20100000E+01  1.20100000E+01  1.00800000E+00  1.00800000E+00
  1.00800000E+00  1.00800000E+00  1.00800000E+00  1.00800000E+00  1.00800000E+00
  1.00800000E+00  1.00800000E+00  1.00800000E+00  1.00800000E+00  1.00800000E+00
  1.00800000E+00  1.00800000E+00  1.00800000E+00  1.00800000E+00  1.00800000E+00
  1.00800000E+00  1.60000000E+01  1.20100000E+01  1.20100000E+01  1.20100000E+01
  1.20100000E+01  1.00800000E+00  1.00800000E+00  1.00800000E+00  1.20100000E+01
  1.00800000E+00  1.20100000E+01  1.00800000E+00  1.20100000E+01  1.00800000E+00
  1.00800000E+00  1.40100000E+01  1.20100000E+01  1.20100000E+01  1.20100000E+01
  1.20100000E+01  1.20100000E+01  1.20100000E+01  1.20100000E+01  1.00800000E+00
  1.20100000E+01  1.00800000E+00  1.20100000E+01  1.00800000E+00  1.20100000E+01
  1.00800000E+00  1.20100000E+01  1.20100000E+01  1.00800000E+00  1.20100000E+01
  1.00800000E+00  1.00800000E+00  1.20100000E+01  1.20100000E+01  1.20100000E+01
  1.20100000E+01  1.60000000E+01  1.20100000E+01  1.20100000E+01  1.20100000E+01
  1.20100000E+01  1.20100000E+01  1.20100000E+01  1.20100000E+01  1.20100000E+01
  1.00800000E+00  1.20100000E+01  1.00800000E+00  1.20100000E+01  1.00800000E+00
  1.20100000E+01  1.00800000E+00  1.20100000E+01  1.20100000E+01  1.00800000E+00
  1.00800000E+00  1.00800000E+00  1.00800000E+00  1.40100000E+01  1.40100000E+01
  1.20100000E+01  1.00800000E+00  1.40100000E+01  1.20100000E+01  1.00800000E+00
  1.20100000E+01  1.20100000E+01  1.20100000E+01  1.20100000E+01  1.00800000E+00
  1.20100000E+01  1.20100000E+01  1.00800000E+00  1.20100000E+01  1.20100000E+01
  1.20100000E+01  1.20100000E+01  1.20100000E+01  1.20100000E+01  1.20100000E+01
  1.20100000E+01  1.20100000E+01  1.20100000E+01  1.20100000E+01  1.20100000E+01
  1.20100000E+01  1.00800000E+00  1.20100000E+01  1.00800000E+00  1.00800000E+00
  1.20100000E+01  1.00800000E+00  1.20100000E+01  1.20100000E+01  1.00800000E+00
  1.20100000E+01  1.00800000E+00  1.20100000E+01  1.00800000E+00  1.20100000E+01
  1.00800000E+00  1.20100000E+01  1.00800000E+00  1.20100000E+01  1.00800000E+00
  1.20100000E+01  1.00800000E+00  1.20100000E+01  1.00800000E+00  1.20100000E+01
  1.00800000E+00  1.00800000E+00  1.20100000E+01  1.00800000E+00  1.00800000E+00
  1.00800000E+00  1.20100000E+01  1.00800000E+00  1.20100000E+01  1.00800000E+00
  1.00800000E+00  1.20100000E+01  1.00800000E+00  1.00800000E+00  1.20100000E+01
  1.00800000E+00  1.00800000E+00  1.60000000E+01  1.60000000E+01  1.60000000E+01
  1.60000000E+01  1.60000000E+01  1.60000000E+01  1.20100000E+01  1.20100000E+01
  1.20100000E+01  1.20100000E+01  1.20100000E+01  1.20100000E+01  1.00800000E+00
  1.00800000E+00  1.00800000E+00  1.00800000E+00  1.00800000E+00  1.00800000E+00
  1.00800000E+00  1.00800000E+00  1.00800000E+00  1.00800000E+00  1.00800000E+00
  1.00800000E+00  1.00800000E+00  1.00800000E+00  1.00800000E+00  1.00800000E+00
  1.00800000E+00  1.00800000E+00  1.60000000E+01  1.20100000E+01  1.20100000E+01
  1.20100000E+01  1.20100000E+01  1.00800000E+00  1.00800000E+00  1.00800000E+00
  1.20100000E+01  1.00800000E+00  1.20100000E+01  1.00800000E+00  1.20100000E+01
  1.00800000E+00  1.00800000E+00  1.40100000E+01  1.20100000E+01  1.20100000E+01
  1.20100000E+01  1.20100000E+01  1.20100000E+01  1.20100000E+01  1.20100000E+01
  1.00800000E+00  1.20100000E+01  1.00800000E+00  1.20100000E+01  1.00800000E+00
  1.20100000E+01  1.00800000E+00  1.20100000E+01  1.20100000E+01  1.00800000E+00
  1.20100000E+01  1.00800000E+00  1.00800000E+00  1.20100000E+01  1.20100000E+01
  1.20100000E+01  1.20100000E+01  1.60000000E+01  1.20100000E+01  1.20100000E+01
  1.20100000E+01  1.20100000E+01  1.20100000E+01  1.20100000E+01  1.20100000E+01
  1.20100000E+01  1.00800000E+00  1.20100000E+01  1.00800000E+00  1.20100000E+01
  1.00800000E+00  1.20100000E+01  1.00800000E+00  1.20100000E+01  1.20100000E+01
  1.00800000E+00  1.00800000E+00  1.00800000E+00  1.00800000E+00  1.40100000E+01
  1.40100000E+01  1.20100000E+01  1.00800000E+00  1.40100000E+01  1.20100000E+01
  1.00800000E+00  1.20100000E+01  1.20100000E+01  1.20100000E+01  1.20100000E+01
  1.00800000E+00  1.20100000E+01  1.20100000E+01  1.00800000E+00  1.20100000E+01
  1.20100000E+01  1.20100000E+01  1.20100000E+01  1.20100000E+01  1.20100000E+01
  1.20100000E+01  1.20100000E+01  1.20100000E+01  1.20100000E+01  1.20100000E+01
  1.20100000E+01  1.20100000E+01  1.00800000E+00  1.20100000E+01  1.00800000E+00
  1.00800000E+00  1.20100000E+01  1.00800000E+00  1.20100000E+01  1.20100000E+01
  1.00800000E+00  1.20100000E+01  1.00800000E+00  1.20100000E+01  1.00800000E+00
  1.20100000E+01  1.00800000E+00  1.20100000E+01  1.00800000E+00  1.20100000E+01
  1.00800000E+00  1.20100000E+01  1.00800000E+00  1.20100000E+01  1.00800000E+00
  1.20100000E+01  1.00800000E+00  1.00800000E+00  1.20100000E+01  1.00800000E+00
  1.00800000E+00  1.00800000E+00  1.20100000E+01  1.00800000E+00  1.20100000E+01
  1.00800000E+00  1.00800000E+00  1.20100000E+01  1.00800000E+00  1.00800000E+00
  1.20100000E+01  1.00800000E+00  1.00800000E+00  1.60000000E+01  1.60000000E+01
  1.60000000E+01  1.60000000E+01  1.60000000E+01  1.60000000E+01  1.20100000E+01
  1.20100000E+01  1.20100000E+01  1.20100000E+01  1.20100000E+01  1.20100000E+01
  1.00800000E+00  1.00800000E+00  1.00800000E+00  1.00800000E+00  1.00800000E+00
  1.00800000E+00  1.00800000E+00  1.00800000E+00  1.00800000E+00  1.00800000E+00
  1.00800000E+00  1.00800000E+00  1.00800000E+00  1.00800000E+00  1.00800000E+00
  1.00800000E+00  1.00800000E+00  1.00800000E+00  1.60000000E+01  1.20100000E+01
  1.20100000E+01  1.20100000E+01  1.20100000E+01  1.00800000E+00  1.00800000E+00
  1.00800000E+00  1.20100000E+01  1.00800000E+00  1.20100000E+01  1.00800000E+00
  1.20100000E+01  1.00800000E+00  1.00800000E+00  1.40100000E+01  1.20100000E+01
  1.20100000E+01  1.20100000E+01  1.20100000E+01  1.20100000E+01  1.20100000E+01
  1.20100000E+01  1.00800000E+00  1.20100000E+01  1.00800000E+00  1.20100000E+01
  1.00800000E+00  1.20100000E+01  1.00800000E+00  1.20100000E+01  1.20100000E+01
  1.00800000E+00  1.20100000E+01  1.00800000E+00  1.00800000E+00  1.20100000E+01
  1.20100000E+01  1.20100000E+01  1.20100000E+01  1.60000000E+01  1.20100000E+01
  1.20100000E+01  1.20100000E+01  1.20100000E+01  1.20100000E+01  1.20100000E+01
  1.20100000E+01  1.20100000E+01  1.00800000E+00  1.20100000E+01  1.00800000E+00
  1.20100000E+01  1.00800000E+00  1.20100000E+01  1.00800000E+00  1.20100000E+01
  1.20100000E+01  1.00800000E+00  1.00800000E+00  1.00800000E+00  1.00800000E+00
  1.40100000E+01  1.40100000E+01  1.20100000E+01  1.00800000E+00  1.40100000E+01
  1.20100000E+01  1.00800000E+00  1.20100000E+01  1.20100000E+01  1.20100000E+01
  1.20100000E+01  1.00800000E+00  1.20100000E+01  1.20100000E+01  1.00800000E+00
  1.20100000E+01  1.20100000E+01  1.20100000E+01  1.20100000E+01  1.20100000E+01
  1.20100000E+01  1.20100000E+01  1.20100000E+01  1.20100000E+01  1.20100000E+01
  1.20100000E+01  1.20100000E+01  1.20100000E+01  1.00800000E+00  1.20100000E+01
  1.00800000E+00  1.00800000E+00  1.20100000E+01  1.00800000E+00  1.20100000E+01
  1.20100000E+01  1.00800000E+00  1.20100000E+01  1.00800000E+00  1.20100000E+01
  1.00800000E+00  1.20100000E+01  1.00800000E+00  1.20100000E+01  1.00800000E+00
  1.20100000E+01  1.00800000E+00  1.20100000E+01  1.00800000E+00  1.20100000E+01
  1.00800000E+00  1.20100000E+01  1.00800000E+00  1.00800000E+00  1.20100000E+01
  1.00800000E+00  1.00800000E+00  1.00800000E+00  1.20100000E+01  1.00800000E+00
  1.20100000E+01  1.00800000E+00  1.00800000E+00  1.20100000E+01  1.00800000E+00
  1.00800000E+00  1.20100000E+01  1.00800000E+00  1.00800000E+00  1.60000000E+01
  1.60000000E+01  1.60000000E+01  1.60000000E+01  1.60000000E+01  1.60000000E+01
  1.20100000E+01  1.20100000E+01  1.20100000E+01  1.20100000E+01  1.20100000E+01
  1.20100000E+01  1.00800000E+00  1.00800000E+00  1.00800000E+00  1.00800000E+00
  1.00800000E+00  1.00800000E+00  1.00800000E+00  1.00800000E+00  1.00800000E+00
  1.00800000E+00  1.00800000E+00  1.00800000E+00  1.00800000E+00  1.00800000E+00
  1.00800000E+00  1.00800000E+00  1.00800000E+00  1.00800000E+00  1.60000000E+01
  1.20100000E+01  1.20100000E+01  1.20100000E+01  1.20100000E+01  1.00800000E+00
  1.00800000E+00  1.00800000E+00  1.20100000E+01  1.00800000E+00  1.20100000E+01
  1.00800000E+00  1.20100000E+01  1.00800000E+00  1.00800000E+00  1.40100000E+01
  1.20100000E+01  1.20100000E+01  1.20100000E+01  1.20100000E+01  1.20100000E+01
  1.20100000E+01  1.20100000E+01  1.00800000E+00  1.20100000E+01  1.00800000E+00
  1.20100000E+01  1.00800000E+00  1.20100000E+01  1.00800000E+00  1.20100000E+01
  1.20100000E+01  1.00800000E+00  1.20100000E+01  1.00800000E+00  1.00800000E+00
  1.20100000E+01  1.20100000E+01  1.20100000E+01  1.20100000E+01  1.60000000E+01
  1.20100000E+01  1.20100000E+01  1.20100000E+01  1.20100000E+01  1.20100000E+01
  1.20100000E+01  1.20100000E+01  1.20100000E+01  1.00800000E+00  1.20100000E+01
  1.00800000E+00  1.20100000E+01  1.00800000E+00  1.20100000E+01  1.00800000E+00
  1.20100000E+01  1.20100000E+01  1.00800000E+00  1.00800000E+00  1.00800000E+00
  1.00800000E+00  1.40100000E+01  1.40100000E+01  1.20100000E+01  1.00800000E+00
  1.40100000E+01  1.20100000E+01  1.00800000E+00  1.20100000E+01  1.20100000E+01
  1.20100000E+01  1.20100000E+01  1.00800000E+00  1.20100000E+01  1.20100000E+01
  1.00800000E+00  1.20100000E+01  1.20100000E+01  1.20100000E+01  1.20100000E+01
  1.20100000E+01  1.20100000E+01  1.20100000E+01  1.20100000E+01  1.20100000E+01
  1.20100000E+01  1.20100000E+01  1.20100000E+01  1.20100000E+01  1.00800000E+00
  1.20100000E+01  1.00800000E+00  1.00800000E+00  1.20100000E+01  1.00800000E+00
  1.20100000E+01  1.20100000E+01  1.00800000E+00  1.20100000E+01  1.00800000E+00
  1.20100000E+01  1.00800000E+00  1.20100000E+01  1.00800000E+00  1.20100000E+01
  1.00800000E+00  1.20100000E+01  1.00800000E+00  1.20100000E+01  1.00800000E+00
  1.20100000E+01  1.00800000E+00  1.20100000E+01  1.00800000E+00  1.00800000E+00
  1.20100000E+01  1.00800000E+00  1.00800000E+00  1.00800000E+00  1.20100000E+01
  1.00800000E+00  1.20100000E+01  1.00800000E+00  1.00800000E+00  1.20100000E+01
  1.00800000E+00  1.00800000E+00  1.20100000E+01  1.00800000E+00  1.00800000E+00
  1.60000000E+01  1.60000000E+01  1.60000000E+01  1.60000000E+01  1.60000000E+01
  1.60000000E+01  1.20100000E+01  1.20100000E+01  1.20100000E+01  1.20100000E+01
  1.20100000E+01  1.20100000E+01  1.00800000E+00  1.00800000E+00  1.00800000E+00
  1.00800000E+00  1.00800000E+00  1.00800000E+00  1.00800000E+00  1.00800000E+00
  1.00800000E+00  1.00800000E+00  1.00800000E+00  1.00800000E+00  1.00800000E+00
  1.00800000E+00  1.00800000E+00  1.00800000E+00  1.00800000E+00  1.00800000E+00
  1.60000000E+01  1.20100000E+01  1.20100000E+01  1.20100000E+01  1.20100000E+01
  1.00800000E+00  1.00800000E+00  1.00800000E+00  1.20100000E+01  1.00800000E+00
  1.20100000E+01  1.00800000E+00  1.20100000E+01  1.00800000E+00  1.00800000E+00
  1.40100000E+01  1.20100000E+01  1.20100000E+01  1.20100000E+01  1.20100000E+01
  1.20100000E+01  1.20100000E+01  1.20100000E+01  1.00800000E+00  1.20100000E+01
  1.00800000E+00  1.20100000E+01  1.00800000E+00  1.20100000E+01  1.00800000E+00
  1.20100000E+01  1.20100000E+01  1.00800000E+00  1.20100000E+01  1.00800000E+00
  1.00800000E+00  1.20100000E+01  1.20100000E+01  1.20100000E+01  1.20100000E+01
  1.60000000E+01  1.20100000E+01  1.20100000E+01  1.20100000E+01  1.20100000E+01
  1.20100000E+01  1.20100000E+01  1.20100000E+01  1.20100000E+01  1.00800000E+00
  1.20100000E+01  1.00800000E+00  1.20100000E+01  1.00800000E+00  1.20100000E+01
  1.00800000E+00  1.20100000E+01  1.20100000E+01  1.00800000E+00  1.00800000E+00
  1.00800000E+00  1.00800000E+00  1.40100000E+01  1.40100000E+01  1.20100000E+01
  1.00800000E+00  1.40100000E+01  1.20100000E+01  1.00800000E+00  1.20100000E+01
  1.20100000E+01  1.20100000E+01  1.20100000E+01  1.00800000E+00  1.20100000E+01
  1.20100000E+01  1.00800000E+00  1.20100000E+01  1.20100000E+01  1.20100000E+01
  1.20100000E+01  1.20100000E+01  1.20100000E+01  1.20100000E+01  1.20100000E+01
  1.20100000E+01  1.20100000E+01  1.20100000E+01  1.20100000E+01  1.20100000E+01
  1.00800000E+00  1.20100000E+01  1.00800000E+00  1.00800000E+00  1.20100000E+01
  1.00800000E+00  1.20100000E+01  1.20100000E+01  1.00800000E+00  1.20100000E+01
  1.00800000E+00  1.20100000E+01  1.00800000E+00  1.20100000E+01  1.00800000E+00
  1.20100000E+01  1.00800000E+00  1.20100000E+01  1.00800000E+00  1.20100000E+01
  1.00800000E+00  1.20100000E+01  1.00800000E+00  1.20100000E+01  1.00800000E+00
  1.00800000E+00  1.20100000E+01  1.00800000E+00  1.00800000E+00  1.00800000E+00
  1.20100000E+01  1.00800000E+00  1.20100000E+01  1.00800000E+00  1.00800000E+00
  1.20100000E+01  1.00800000E+00  1.00800000E+00  1.20100000E+01  1.00800000E+00
  1.00800000E+00  1.60000000E+01  1.60000000E+01  1.60000000E+01  1.60000000E+01
  1.60000000E+01  1.60000000E+01  1.20100000E+01  1.20100000E+01  1.20100000E+01
  1.20100000E+01  1.20100000E+01  1.20100000E+01  1.00800000E+00  1.00800000E+00
  1.00800000E+00  1.00800000E+00  1.00800000E+00  1.00800000E+00  1.00800000E+00
  1.00800000E+00  1.00800000E+00  1.00800000E+00  1.00800000E+00  1.00800000E+00
  1.00800000E+00  1.00800000E+00  1.00800000E+00  1.00800000E+00  1.00800000E+00
  1.00800000E+00  1.60000000E+01  1.20100000E+01  1.20100000E+01  1.20100000E+01
  1.20100000E+01  1.00800000E+00  1.00800000E+00  1.00800000E+00  1.20100000E+01
  1.00800000E+00  1.20100000E+01  1.00800000E+00  1.20100000E+01  1.00800000E+00
  1.00800000E+00  1.40100000E+01  1.20100000E+01  1.20100000E+01  1.20100000E+01
  1.20100000E+01  1.20100000E+01  1.20100000E+01  1.20100000E+01  1.00800000E+00
  1.20100000E+01  1.00800000E+00  1.20100000E+01  1.00800000E+00  1.20100000E+01
  1.00800000E+00  1.20100000E+01  1.20100000E+01  1.00800000E+00  1.20100000E+01
  1.00800000E+00  1.00800000E+00  1.20100000E+01  1.20100000E+01  1.20100000E+01
  1.20100000E+01  1.60000000E+01  1.20100000E+01  1.20100000E+01  1.20100000E+01
  1.20100000E+01  1.20100000E+01  1.20100000E+01  1.20100000E+01  1.20100000E+01
  1.00800000E+00  1.20100000E+01  1.00800000E+00  1.20100000E+01  1.00800000E+00
  1.20100000E+01  1.00800000E+00  1.20100000E+01  1.20100000E+01  1.00800000E+00
  1.00800000E+00  1.00800000E+00  1.00800000E+00  1.40100000E+01  1.40100000E+01
  1.20100000E+01  1.00800000E+00  1.40100000E+01  1.20100000E+01  1.00800000E+00
  1.20100000E+01  1.20100000E+01  1.20100000E+01  1.20100000E+01  1.00800000E+00
  1.20100000E+01  1.20100000E+01  1.00800000E+00  1.20100000E+01  1.20100000E+01
  1.20100000E+01  1.20100000E+01  1.20100000E+01  1.20100000E+01  1.20100000E+01
  1.20100000E+01  1.20100000E+01  1.20100000E+01  1.20100000E+01  1.20100000E+01
  1.20100000E+01  1.00800000E+00  1.20100000E+01  1.00800000E+00  1.00800000E+00
  1.20100000E+01  1.00800000E+00  1.20100000E+01  1.20100000E+01  1.00800000E+00
  1.20100000E+01  1.00800000E+00  1.20100000E+01  1.00800000E+00  1.20100000E+01
  1.00800000E+00  1.20100000E+01  1.00800000E+00  1.20100000E+01  1.00800000E+00
  1.20100000E+01  1.00800000E+00  1.20100000E+01  1.00800000E+00  1.20100000E+01
  1.00800000E+00  1.00800000E+00  1.20100000E+01  1.00800000E+00  1.00800000E+00
  1.00800000E+00  1.20100000E+01  1.00800000E+00  1.20100000E+01  1.00800000E+00
  1.00800000E+00  1.20100000E+01  1.00800000E+00  1.00800000E+00  1.20100000E+01
  1.00800000E+00  1.00800000E+00  1.60000000E+01  1.60000000E+01  1.60000000E+01
  1.60000000E+01  1.60000000E+01  1.60000000E+01  1.20100000E+01  1.20100000E+01
  1.20100000E+01  1.20100000E+01  1.20100000E+01  1.20100000E+01  1.00800000E+00
  1.00800000E+00  1.00800000E+00  1.00800000E+00  1.00800000E+00  1.00800000E+00
  1.00800000E+00  1.00800000E+00  1.00800000E+00  1.00800000E+00  1.00800000E+00
  1.00800000E+00  1.00800000E+00  1.00800000E+00  1.00800000E+00  1.00800000E+00
  1.00800000E+00  1.00800000E+00  1.60000000E+01  1.20100000E+01  1.20100000E+01
  1.20100000E+01  1.20100000E+01  1.00800000E+00  1.00800000E+00  1.00800000E+00
  1.20100000E+01  1.00800000E+00  1.20100000E+01  1.00800000E+00  1.20100000E+01
  1.00800000E+00  1.00800000E+00  1.40100000E+01  1.20100000E+01  1.20100000E+01
  1.20100000E+01  1.20100000E+01  1.20100000E+01  1.20100000E+01  1.20100000E+01
  1.00800000E+00  1.20100000E+01  1.00800000E+00  1.20100000E+01  1.00800000E+00
  1.20100000E+01  1.00800000E+00  1.20100000E+01  1.20100000E+01  1.00800000E+00
  1.20100000E+01  1.00800000E+00  1.00800000E+00  1.20100000E+01  1.20100000E+01
  1.20100000E+01  1.20100000E+01  1.60000000E+01  1.20100000E+01  1.20100000E+01
  1.20100000E+01  1.20100000E+01  1.20100000E+01  1.20100000E+01  1.20100000E+01
  1.20100000E+01  1.00800000E+00  1.20100000E+01  1.00800000E+00  1.20100000E+01
  1.00800000E+00  1.20100000E+01  1.00800000E+00  1.20100000E+01  1.20100000E+01
  1.00800000E+00  1.00800000E+00  1.00800000E+00  1.00800000E+00  1.40100000E+01
  1.40100000E+01  1.20100000E+01  1.00800000E+00  1.40100000E+01  1.20100000E+01
  1.00800000E+00  1.20100000E+01  1.20100000E+01  1.20100000E+01  1.20100000E+01
  1.00800000E+00  1.20100000E+01  1.20100000E+01  1.00800000E+00  1.20100000E+01
  1.20100000E+01  1.20100000E+01  1.20100000E+01  1.20100000E+01  1.20100000E+01
  1.20100000E+01  1.20100000E+01  1.20100000E+01  1.20100000E+01  1.20100000E+01
  1.20100000E+01  1.20100000E+01  1.00800000E+00  1.20100000E+01  1.00800000E+00
  1.00800000E+00  1.20100000E+01  1.00800000E+00  1.20100000E+01  1.20100000E+01
  1.00800000E+00  1.20100000E+01  1.00800000E+00  1.20100000E+01  1.00800000E+00
  1.20100000E+01  1.00800000E+00  1.20100000E+01  1.00800000E+00  1.20100000E+01
  1.00800000E+00  1.20100000E+01  1.00800000E+00  1.20100000E+01  1.00800000E+00
  1.20100000E+01  1.00800000E+00  1.00800000E+00  1.20100000E+01  1.00800000E+00
  1.00800000E+00  1.00800000E+00  1.20100000E+01  1.00800000E+00  1.20100000E+01
  1.00800000E+00  1.00800000E+00  1.20100000E+01  1.00800000E+00  1.00800000E+00
  1.20100000E+01  1.00800000E+00  1.00800000E+00  1.60000000E+01  1.60000000E+01
  1.60000000E+01  1.60000000E+01  1.60000000E+01  1.60000000E+01  1.20100000E+01
  1.20100000E+01  1.20100000E+01  1.20100000E+01  1.20100000E+01  1.20100000E+01
  1.00800000E+00  1.00800000E+00  1.00800000E+00  1.00800000E+00  1.00800000E+00
  1.00800000E+00  1.00800000E+00  1.00800000E+00  1.00800000E+00  1.00800000E+00
  1.00800000E+00  1.00800000E+00  1.00800000E+00  1.00800000E+00  1.00800000E+00
  1.00800000E+00  1.00800000E+00  1.00800000E+00  1.60000000E+01  1.20100000E+01
  1.20100000E+01  1.20100000E+01  1.20100000E+01  1.00800000E+00  1.00800000E+00
  1.00800000E+00  1.20100000E+01  1.00800000E+00  1.20100000E+01  1.00800000E+00
  1.20100000E+01  1.00800000E+00  1.00800000E+00  1.40100000E+01  1.20100000E+01
  1.20100000E+01  1.20100000E+01  1.20100000E+01  1.20100000E+01  1.20100000E+01
  1.20100000E+01  1.00800000E+00  1.20100000E+01  1.00800000E+00  1.20100000E+01
  1.00800000E+00  1.20100000E+01  1.00800000E+00  1.20100000E+01  1.20100000E+01
  1.00800000E+00  1.20100000E+01  1.00800000E+00  1.00800000E+00  1.20100000E+01
  1.20100000E+01  1.20100000E+01  1.20100000E+01  1.60000000E+01  1.20100000E+01
  1.20100000E+01  1.20100000E+01  1.20100000E+01  1.20100000E+01  1.20100000E+01
  1.20100000E+01  1.20100000E+01  1.00800000E+00  1.20100000E+01  1.00800000E+00
  1.20100000E+01  1.00800000E+00  1.20100000E+01  1.00800000E+00  1.20100000E+01
  1.20100000E+01  1.00800000E+00  1.00800000E+00  1.00800000E+00  1.00800000E+00
  1.40100000E+01  1.40100000E+01  1.20100000E+01  1.00800000E+00  1.40100000E+01
  1.20100000E+01  1.00800000E+00  1.20100000E+01  1.20100000E+01  1.20100000E+01
  1.20100000E+01  1.00800000E+00  1.20100000E+01  1.20100000E+01  1.00800000E+00
  1.20100000E+01  1.20100000E+01  1.20100000E+01  1.20100000E+01  1.20100000E+01
  1.20100000E+01  1.20100000E+01  1.20100000E+01  1.20100000E+01  1.20100000E+01
  1.20100000E+01  1.20100000E+01  1.20100000E+01  1.00800000E+00  1.20100000E+01
  1.00800000E+00  1.00800000E+00  1.20100000E+01  1.00800000E+00  1.20100000E+01
  1.20100000E+01  1.00800000E+00  1.20100000E+01  1.00800000E+00  1.20100000E+01
  1.00800000E+00  1.20100000E+01  1.00800000E+00  1.20100000E+01  1.00800000E+00
  1.20100000E+01  1.00800000E+00  1.20100000E+01  1.00800000E+00  1.20100000E+01
  1.00800000E+00  1.20100000E+01  1.00800000E+00  1.00800000E+00  1.20100000E+01
  1.00800000E+00  1.00800000E+00  1.00800000E+00  1.20100000E+01  1.00800000E+00
  1.20100000E+01  1.00800000E+00  1.00800000E+00  1.20100000E+01  1.00800000E+00
  1.00800000E+00  1.20100000E+01  1.00800000E+00  1.00800000E+00  1.60000000E+01
  1.60000000E+01  1.60000000E+01  1.60000000E+01  1.60000000E+01  1.60000000E+01
  1.20100000E+01  1.20100000E+01  1.20100000E+01  1.20100000E+01  1.20100000E+01
  1.20100000E+01  1.00800000E+00  1.00800000E+00  1.00800000E+00  1.00800000E+00
  1.00800000E+00  1.00800000E+00  1.00800000E+00  1.00800000E+00  1.00800000E+00
  1.00800000E+00  1.00800000E+00  1.00800000E+00  1.00800000E+00  1.00800000E+00
  1.00800000E+00  1.00800000E+00  1.00800000E+00  1.00800000E+00  1.60000000E+01
  1.20100000E+01  1.20100000E+01  1.20100000E+01  1.20100000E+01  1.00800000E+00
  1.00800000E+00  1.00800000E+00  1.20100000E+01  1.00800000E+00  1.20100000E+01
  1.00800000E+00  1.20100000E+01  1.00800000E+00  1.00800000E+00  1.40100000E+01
  1.20100000E+01  1.20100000E+01  1.20100000E+01  1.20100000E+01  1.20100000E+01
  1.20100000E+01  1.20100000E+01  1.00800000E+00  1.20100000E+01  1.00800000E+00
  1.20100000E+01  1.00800000E+00  1.20100000E+01  1.00800000E+00  1.20100000E+01
  1.20100000E+01  1.00800000E+00  1.20100000E+01  1.00800000E+00  1.00800000E+00
  1.20100000E+01  1.20100000E+01  1.20100000E+01  1.20100000E+01  1.60000000E+01
  1.20100000E+01  1.20100000E+01  1.20100000E+01  1.20100000E+01  1.20100000E+01
  1.20100000E+01  1.20100000E+01  1.20100000E+01  1.00800000E+00  1.20100000E+01
  1.00800000E+00  1.20100000E+01  1.00800000E+00  1.20100000E+01  1.00800000E+00
  1.20100000E+01  1.20100000E+01  1.00800000E+00  1.00800000E+00  1.00800000E+00
  1.00800000E+00  1.40100000E+01  1.40100000E+01  1.20100000E+01  1.00800000E+00
  1.40100000E+01  1.20100000E+01  1.00800000E+00  1.20100000E+01  1.20100000E+01
  1.20100000E+01  1.20100000E+01  1.00800000E+00  1.20100000E+01  1.20100000E+01
  1.00800000E+00  1.20100000E+01  1.20100000E+01  1.20100000E+01  1.20100000E+01
  1.20100000E+01  1.20100000E+01  1.20100000E+01  1.20100000E+01  1.20100000E+01
  1.20100000E+01  1.20100000E+01  1.20100000E+01  1.20100000E+01  1.00800000E+00
  1.20100000E+01  1.00800000E+00  1.00800000E+00  1.20100000E+01  1.00800000E+00
  1.20100000E+01  1.20100000E+01  1.00800000E+00  1.20100000E+01  1.00800000E+00
  1.20100000E+01  1.00800000E+00  1.20100000E+01  1.00800000E+00  1.20100000E+01
  1.00800000E+00  1.20100000E+01  1.00800000E+00  1.20100000E+01  1.00800000E+00
  1.20100000E+01  1.00800000E+00  1.20100000E+01  1.00800000E+00  1.00800000E+00
  1.20100000E+01  1.00800000E+00  1.00800000E+00  1.00800000E+00  1.20100000E+01
  1.00800000E+00  1.20100000E+01  1.00800000E+00  1.00800000E+00  1.20100000E+01
  1.00800000E+00  1.00800000E+00  1.20100000E+01  1.00800000E+00  1.00800000E+00
  1.60000000E+01  1.60000000E+01  1.60000000E+01  1.60000000E+01  1.60000000E+01
  1.60000000E+01  1.20100000E+01  1.20100000E+01  1.20100000E+01  1.20100000E+01
  1.20100000E+01  1.20100000E+01  1.00800000E+00  1.00800000E+00  1.00800000E+00
  1.00800000E+00  1.00800000E+00  1.00800000E+00  1.00800000E+00  1.00800000E+00
  1.00800000E+00  1.00800000E+00  1.00800000E+00  1.00800000E+00  1.00800000E+00
  1.00800000E+00  1.00800000E+00  1.00800000E+00  1.00800000E+00  1.00800000E+00
  1.60000000E+01  1.20100000E+01  1.20100000E+01  1.20100000E+01  1.20100000E+01
  1.00800000E+00  1.00800000E+00  1.00800000E+00  1.20100000E+01  1.00800000E+00
  1.20100000E+01  1.00800000E+00  1.20100000E+01  1.00800000E+00  1.00800000E+00
  1.40100000E+01  1.20100000E+01  1.20100000E+01  1.20100000E+01  1.20100000E+01
  1.20100000E+01  1.20100000E+01  1.20100000E+01  1.00800000E+00  1.20100000E+01
  1.00800000E+00  1.20100000E+01  1.00800000E+00  1.20100000E+01  1.00800000E+00
  1.20100000E+01  1.20100000E+01  1.00800000E+00  1.20100000E+01  1.00800000E+00
  1.00800000E+00  1.20100000E+01  1.20100000E+01  1.20100000E+01  1.20100000E+01
  1.60000000E+01  1.20100000E+01  1.20100000E+01  1.20100000E+01  1.20100000E+01
  1.20100000E+01  1.20100000E+01  1.20100000E+01  1.20100000E+01  1.00800000E+00
  1.20100000E+01  1.00800000E+00  1.20100000E+01  1.00800000E+00  1.20100000E+01
  1.00800000E+00  1.20100000E+01  1.20100000E+01  1.00800000E+00  1.00800000E+00
  1.00800000E+00  1.00800000E+00  1.40100000E+01  1.40100000E+01  1.20100000E+01
  1.00800000E+00  1.40100000E+01  1.20100000E+01  1.00800000E+00  1.20100000E+01
  1.20100000E+01  1.20100000E+01  1.20100000E+01  1.00800000E+00  1.20100000E+01
  1.20100000E+01  1.00800000E+00  1.20100000E+01  1.20100000E+01  1.20100000E+01
  1.20100000E+01  1.20100000E+01  1.20100000E+01  1.20100000E+01  1.20100000E+01
  1.20100000E+01  1.20100000E+01  1.20100000E+01  1.20100000E+01  1.20100000E+01
  1.00800000E+00  1.20100000E+01  1.00800000E+00  1.00800000E+00  1.20100000E+01
  1.00800000E+00  1.20100000E+01  1.20100000E+01  1.00800000E+00  1.20100000E+01
  1.00800000E+00  1.20100000E+01  1.00800000E+00  1.20100000E+01  1.00800000E+00
  1.20100000E+01  1.00800000E+00  1.20100000E+01  1.00800000E+00  1.20100000E+01
  1.00800000E+00  1.20100000E+01  1.00800000E+00  1.20100000E+01  1.00800000E+00
  1.00800000E+00  1.20100000E+01  1.00800000E+00  1.00800000E+00  1.00800000E+00
  1.20100000E+01  1.00800000E+00  1.20100000E+01  1.00800000E+00  1.00800000E+00
  1.20100000E+01  1.00800000E+00  1.00800000E+00  1.20100000E+01  1.00800000E+00
  1.00800000E+00  1.60000000E+01  1.60000000E+01  1.60000000E+01  1.60000000E+01
  1.60000000E+01  1.60000000E+01  1.20100000E+01  1.20100000E+01  1.20100000E+01
  1.20100000E+01  1.20100000E+01  1.20100000E+01  1.00800000E+00  1.00800000E+00
  1.00800000E+00  1.00800000E+00  1.00800000E+00  1.00800000E+00  1.00800000E+00
  1.00800000E+00  1.00800000E+00  1.00800000E+00  1.00800000E+00  1.00800000E+00
  1.00800000E+00  1.00800000E+00  1.00800000E+00  1.00800000E+00  1.00800000E+00
  1.00800000E+00  1.60000000E+01  1.20100000E+01  1.20100000E+01  1.20100000E+01
  1.20100000E+01  1.00800000E+00  1.00800000E+00  1.00800000E+00  1.20100000E+01
  1.00800000E+00  1.20100000E+01  1.00800000E+00  1.20100000E+01  1.00800000E+00
  1.00800000E+00  1.40100000E+01  1.20100000E+01  1.20100000E+01  1.20100000E+01
  1.20100000E+01  1.20100000E+01  1.20100000E+01  1.20100000E+01  1.00800000E+00
  1.20100000E+01  1.00800000E+00  1.20100000E+01  1.00800000E+00  1.20100000E+01
  1.00800000E+00  1.20100000E+01  1.20100000E+01  1.00800000E+00  1.20100000E+01
  1.00800000E+00  1.00800000E+00  1.20100000E+01  1.20100000E+01  1.20100000E+01
  1.20100000E+01  1.60000000E+01  1.20100000E+01  1.20100000E+01  1.20100000E+01
  1.20100000E+01  1.20100000E+01  1.20100000E+01  1.20100000E+01  1.20100000E+01
  1.00800000E+00  1.20100000E+01  1.00800000E+00  1.20100000E+01  1.00800000E+00
  1.20100000E+01  1.00800000E+00  1.20100000E+01  1.20100000E+01  1.00800000E+00
  1.00800000E+00  1.00800000E+00  1.00800000E+00  1.40100000E+01  1.40100000E+01
  1.20100000E+01  1.00800000E+00  1.40100000E+01  1.20100000E+01  1.00800000E+00
  1.20100000E+01  1.20100000E+01  1.20100000E+01  1.20100000E+01  1.00800000E+00
  1.20100000E+01  1.20100000E+01  1.00800000E+00  1.20100000E+01  1.20100000E+01
  1.20100000E+01  1.20100000E+01  1.20100000E+01  1.20100000E+01  1.20100000E+01
  1.20100000E+01  1.20100000E+01  1.20100000E+01  1.20100000E+01  1.20100000E+01
  1.20100000E+01  1.00800000E+00  1.20100000E+01  1.00800000E+00  1.00800000E+00
  1.20100000E+01  1.00800000E+00  1.20100000E+01  1.20100000E+01  1.00800000E+00
  1.20100000E+01  1.00800000E+00  1.20100000E+01  1.00800000E+00  1.20100000E+01
  1.00800000E+00  1.20100000E+01  1.00800000E+00  1.20100000E+01  1.00800000E+00
  1.20100000E+01  1.00800000E+00  1.20100000E+01  1.00800000E+00  1.20100000E+01
  1.00800000E+00  1.00800000E+00  1.20100000E+01  1.00800000E+00  1.00800000E+00
  1.00800000E+00  1.20100000E+01  1.00800000E+00  1.20100000E+01  1.00800000E+00
  1.00800000E+00  1.20100000E+01  1.00800000E+00  1.00800000E+00  1.20100000E+01
  1.00800000E+00  1.00800000E+00  1.60000000E+01  1.60000000E+01  1.60000000E+01
  1.60000000E+01  1.60000000E+01  1.60000000E+01  1.20100000E+01  1.20100000E+01
  1.20100000E+01  1.20100000E+01  1.20100000E+01  1.20100000E+01  1.00800000E+00
  1.00800000E+00  1.00800000E+00  1.00800000E+00  1.00800000E+00  1.00800000E+00
  1.00800000E+00  1.00800000E+00  1.00800000E+00  1.00800000E+00  1.00800000E+00
  1.00800000E+00  1.00800000E+00  1.00800000E+00  1.00800000E+00  1.00800000E+00
  1.00800000E+00  1.00800000E+00  1.60000000E+01  1.20100000E+01  1.20100000E+01
  1.20100000E+01  1.20100000E+01  1.00800000E+00  1.00800000E+00  1.00800000E+00
  1.20100000E+01  1.00800000E+00  1.20100000E+01  1.00800000E+00  1.20100000E+01
  1.00800000E+00  1.00800000E+00  1.40100000E+01  1.20100000E+01  1.20100000E+01
  1.20100000E+01  1.20100000E+01  1.20100000E+01  1.20100000E+01  1.20100000E+01
  1.00800000E+00  1.20100000E+01  1.00800000E+00  1.20100000E+01  1.00800000E+00
  1.20100000E+01  1.00800000E+00  1.20100000E+01  1.20100000E+01  1.00800000E+00
  1.20100000E+01  1.00800000E+00  1.00800000E+00  1.20100000E+01  1.20100000E+01
  1.20100000E+01  1.20100000E+01  1.60000000E+01  1.20100000E+01  1.20100000E+01
  1.20100000E+01  1.20100000E+01  1.20100000E+01  1.20100000E+01  1.20100000E+01
  1.20100000E+01  1.00800000E+00  1.20100000E+01  1.00800000E+00  1.20100000E+01
  1.00800000E+00  1.20100000E+01  1.00800000E+00  1.20100000E+01  1.20100000E+01
  1.00800000E+00  1.00800000E+00  1.00800000E+00  1.00800000E+00  1.40100000E+01
  1.40100000E+01  1.20100000E+01  1.00800000E+00  1.40100000E+01  1.20100000E+01
  1.00800000E+00  1.20100000E+01  1.20100000E+01  1.20100000E+01  1.20100000E+01
  1.00800000E+00  1.20100000E+01  1.20100000E+01  1.00800000E+00  1.20100000E+01
  1.20100000E+01  1.20100000E+01  1.20100000E+01  1.20100000E+01  1.20100000E+01
  1.20100000E+01  1.20100000E+01  1.20100000E+01  1.20100000E+01  1.20100000E+01
  1.20100000E+01  1.20100000E+01  1.00800000E+00  1.20100000E+01  1.00800000E+00
  1.00800000E+00  1.20100000E+01  1.00800000E+00  1.20100000E+01  1.20100000E+01
  1.00800000E+00  1.20100000E+01  1.00800000E+00  1.20100000E+01  1.00800000E+00
  1.20100000E+01  1.00800000E+00  1.20100000E+01  1.00800000E+00  1.20100000E+01
  1.00800000E+00  1.20100000E+01  1.00800000E+00  1.20100000E+01  1.00800000E+00
  1.20100000E+01  1.00800000E+00  1.00800000E+00  1.20100000E+01  1.00800000E+00
  1.00800000E+00  1.00800000E+00  1.20100000E+01  1.00800000E+00  1.20100000E+01
  1.00800000E+00  1.00800000E+00  1.20100000E+01  1.00800000E+00  1.00800000E+00
  1.20100000E+01  1.00800000E+00  1.00800000E+00  1.60000000E+01  1.60000000E+01
  1.60000000E+01  1.60000000E+01  1.60000000E+01  1.60000000E+01  1.20100000E+01
  1.20100000E+01  1.20100000E+01  1.20100000E+01  1.20100000E+01  1.20100000E+01
  1.00800000E+00  1.00800000E+00  1.00800000E+00  1.00800000E+00  1.00800000E+00
  1.00800000E+00  1.00800000E+00  1.00800000E+00  1.00800000E+00  1.00800000E+00
  1.00800000E+00  1.00800000E+00  1.00800000E+00  1.00800000E+00  1.00800000E+00
  1.00800000E+00  1.00800000E+00  1.00800000E+00  1.60000000E+01  1.20100000E+01
  1.20100000E+01  1.20100000E+01  1.20100000E+01  1.00800000E+00  1.00800000E+00
  1.00800000E+00  1.20100000E+01  1.00800000E+00  1.20100000E+01  1.00800000E+00
  1.20100000E+01  1.00800000E+00  1.00800000E+00  1.40100000E+01  1.20100000E+01
  1.20100000E+01  1.20100000E+01  1.20100000E+01  1.20100000E+01  1.20100000E+01
  1.20100000E+01  1.00800000E+00  1.20100000E+01  1.00800000E+00  1.20100000E+01
  1.00800000E+00  1.20100000E+01  1.00800000E+00  1.20100000E+01  1.20100000E+01
  1.00800000E+00  1.20100000E+01  1.00800000E+00  1.00800000E+00  1.20100000E+01
  1.20100000E+01  1.20100000E+01  1.20100000E+01  1.60000000E+01  1.20100000E+01
  1.20100000E+01  1.20100000E+01  1.20100000E+01  1.20100000E+01  1.20100000E+01
  1.20100000E+01  1.20100000E+01  1.00800000E+00  1.20100000E+01  1.00800000E+00
  1.20100000E+01  1.00800000E+00  1.20100000E+01  1.00800000E+00  1.20100000E+01
  1.20100000E+01  1.00800000E+00  1.00800000E+00  1.00800000E+00  1.00800000E+00
  1.40100000E+01  1.40100000E+01  1.20100000E+01  1.00800000E+00  1.40100000E+01
  1.20100000E+01  1.00800000E+00  1.20100000E+01  1.20100000E+01  1.20100000E+01
  1.20100000E+01  1.00800000E+00  1.20100000E+01  1.20100000E+01  1.00800000E+00
  1.20100000E+01  1.20100000E+01  1.20100000E+01  1.20100000E+01  1.20100000E+01
  1.20100000E+01  1.20100000E+01  1.20100000E+01  1.20100000E+01  1.20100000E+01
  1.20100000E+01  1.20100000E+01  1.20100000E+01  1.00800000E+00  1.20100000E+01
  1.00800000E+00  1.00800000E+00  1.20100000E+01  1.00800000E+00  1.20100000E+01
  1.20100000E+01  1.00800000E+00  1.20100000E+01  1.00800000E+00  1.20100000E+01
  1.00800000E+00  1.20100000E+01  1.00800000E+00  1.20100000E+01  1.00800000E+00
  1.20100000E+01  1.00800000E+00  1.20100000E+01  1.00800000E+00  1.20100000E+01
  1.00800000E+00  1.20100000E+01  1.00800000E+00  1.00800000E+00  1.20100000E+01
  1.00800000E+00  1.00800000E+00  1.00800000E+00  1.20100000E+01  1.00800000E+00
  1.20100000E+01  1.00800000E+00  1.00800000E+00  1.20100000E+01  1.00800000E+00
  1.00800000E+00  1.20100000E+01  1.00800000E+00  1.00800000E+00  1.60000000E+01
  1.60000000E+01  1.60000000E+01  1.60000000E+01  1.60000000E+01  1.60000000E+01
  1.20100000E+01  1.20100000E+01  1.20100000E+01  1.20100000E+01  1.20100000E+01
  1.20100000E+01  1.00800000E+00  1.00800000E+00  1.00800000E+00  1.00800000E+00
  1.00800000E+00  1.00800000E+00  1.00800000E+00  1.00800000E+00  1.00800000E+00
  1.00800000E+00  1.00800000E+00  1.00800000E+00  1.00800000E+00  1.00800000E+00
  1.00800000E+00  1.00800000E+00  1.00800000E+00  1.00800000E+00  1.60000000E+01
  1.20100000E+01  1.20100000E+01  1.20100000E+01  1.20100000E+01  1.00800000E+00
  1.00800000E+00  1.00800000E+00  1.20100000E+01  1.00800000E+00  1.20100000E+01
  1.00800000E+00  1.20100000E+01  1.00800000E+00  1.00800000E+00  1.40100000E+01
  1.20100000E+01  1.20100000E+01  1.20100000E+01  1.20100000E+01  1.20100000E+01
  1.20100000E+01  1.20100000E+01  1.00800000E+00  1.20100000E+01  1.00800000E+00
  1.20100000E+01  1.00800000E+00  1.20100000E+01  1.00800000E+00  1.20100000E+01
  1.20100000E+01  1.00800000E+00  1.20100000E+01  1.00800000E+00  1.00800000E+00
  1.20100000E+01  1.20100000E+01  1.20100000E+01  1.20100000E+01  1.60000000E+01
  1.20100000E+01  1.20100000E+01  1.20100000E+01  1.20100000E+01  1.20100000E+01
  1.20100000E+01  1.20100000E+01  1.20100000E+01  1.00800000E+00  1.20100000E+01
  1.00800000E+00  1.20100000E+01  1.00800000E+00  1.20100000E+01  1.00800000E+00
  1.20100000E+01  1.20100000E+01  1.00800000E+00  1.00800000E+00  1.00800000E+00
  1.00800000E+00  1.40100000E+01  1.40100000E+01  1.20100000E+01  1.00800000E+00
  1.40100000E+01  1.20100000E+01  1.00800000E+00  1.20100000E+01  1.20100000E+01
  1.20100000E+01  1.20100000E+01  1.00800000E+00  1.20100000E+01  1.20100000E+01
  1.00800000E+00  1.20100000E+01  1.20100000E+01  1.20100000E+01  1.20100000E+01
  1.20100000E+01  1.20100000E+01  1.20100000E+01  1.20100000E+01  1.20100000E+01
  1.20100000E+01  1.20100000E+01  1.20100000E+01  1.20100000E+01  1.00800000E+00
  1.20100000E+01  1.00800000E+00  1.00800000E+00  1.20100000E+01  1.00800000E+00
  1.20100000E+01  1.20100000E+01  1.00800000E+00  1.20100000E+01  1.00800000E+00
  1.20100000E+01  1.00800000E+00  1.20100000E+01  1.00800000E+00  1.20100000E+01
  1.00800000E+00  1.20100000E+01  1.00800000E+00  1.20100000E+01  1.00800000E+00
  1.20100000E+01  1.00800000E+00  1.20100000E+01  1.00800000E+00  1.00800000E+00
  1.20100000E+01  1.00800000E+00  1.00800000E+00  1.00800000E+00  1.20100000E+01
  1.00800000E+00  1.20100000E+01  1.00800000E+00  1.00800000E+00  1.20100000E+01
  1.00800000E+00  1.00800000E+00  1.20100000E+01  1.00800000E+00  1.00800000E+00
  1.60000000E+01  1.60000000E+01  1.60000000E+01  1.60000000E+01  1.60000000E+01
  1.60000000E+01  1.20100000E+01  1.20100000E+01  1.20100000E+01  1.20100000E+01
  1.20100000E+01  1.20100000E+01  1.00800000E+00  1.00800000E+00  1.00800000E+00
  1.00800000E+00  1.00800000E+00  1.00800000E+00  1.00800000E+00  1.00800000E+00
  1.00800000E+00  1.00800000E+00  1.00800000E+00  1.00800000E+00  1.00800000E+00
  1.00800000E+00  1.00800000E+00  1.00800000E+00  1.00800000E+00  1.00800000E+00
  1.60000000E+01  1.20100000E+01  1.20100000E+01  1.20100000E+01  1.20100000E+01
  1.00800000E+00  1.00800000E+00  1.00800000E+00  1.20100000E+01  1.00800000E+00
  1.20100000E+01  1.00800000E+00  1.20100000E+01  1.00800000E+00  1.00800000E+00
  1.40100000E+01  1.20100000E+01  1.20100000E+01  1.20100000E+01  1.20100000E+01
  1.20100000E+01  1.20100000E+01  1.20100000E+01  1.00800000E+00  1.20100000E+01
  1.00800000E+00  1.20100000E+01  1.00800000E+00  1.20100000E+01  1.00800000E+00
  1.20100000E+01  1.20100000E+01  1.00800000E+00  1.20100000E+01  1.00800000E+00
  1.00800000E+00  1.20100000E+01  1.20100000E+01  1.20100000E+01  1.20100000E+01
  1.60000000E+01  1.20100000E+01  1.20100000E+01  1.20100000E+01  1.20100000E+01
  1.20100000E+01  1.20100000E+01  1.20100000E+01  1.20100000E+01  1.00800000E+00
  1.20100000E+01  1.00800000E+00  1.20100000E+01  1.00800000E+00  1.20100000E+01
  1.00800000E+00  1.20100000E+01  1.20100000E+01  1.00800000E+00  1.00800000E+00
  1.00800000E+00  1.00800000E+00  1.40100000E+01  1.40100000E+01  1.20100000E+01
  1.00800000E+00  1.40100000E+01  1.20100000E+01  1.00800000E+00  1.20100000E+01
  1.20100000E+01  1.20100000E+01  1.20100000E+01  1.00800000E+00  1.20100000E+01
  1.20100000E+01  1.00800000E+00  1.20100000E+01  1.20100000E+01  1.20100000E+01
  1.20100000E+01  1.20100000E+01  1.20100000E+01  1.20100000E+01  1.20100000E+01
  1.20100000E+01  1.20100000E+01  1.20100000E+01  1.20100000E+01  1.20100000E+01
  1.00800000E+00  1.20100000E+01  1.00800000E+00  1.00800000E+00  1.20100000E+01
  1.00800000E+00  1.20100000E+01  1.20100000E+01  1.00800000E+00  1.20100000E+01
  1.00800000E+00  1.20100000E+01  1.00800000E+00  1.20100000E+01  1.00800000E+00
  1.20100000E+01  1.00800000E+00  1.20100000E+01  1.00800000E+00  1.20100000E+01
  1.00800000E+00  1.20100000E+01  1.00800000E+00  1.20100000E+01  1.00800000E+00
  1.00800000E+00  1.20100000E+01  1.00800000E+00  1.00800000E+00  1.00800000E+00
  1.20100000E+01  1.00800000E+00  1.20100000E+01  1.00800000E+00  1.00800000E+00
  1.20100000E+01  1.00800000E+00  1.00800000E+00  1.20100000E+01  1.00800000E+00
  1.00800000E+00  1.60000000E+01  1.60000000E+01  1.60000000E+01  1.60000000E+01
  1.60000000E+01  1.60000000E+01  1.20100000E+01  1.20100000E+01  1.20100000E+01
  1.20100000E+01  1.20100000E+01  1.20100000E+01  1.00800000E+00  1.00800000E+00
  1.00800000E+00  1.00800000E+00  1.00800000E+00  1.00800000E+00  1.00800000E+00
  1.00800000E+00  1.00800000E+00  1.00800000E+00  1.00800000E+00  1.00800000E+00
  1.00800000E+00  1.00800000E+00  1.00800000E+00  1.00800000E+00  1.00800000E+00
  1.00800000E+00  1.60000000E+01  1.20100000E+01  1.20100000E+01  1.20100000E+01
  1.20100000E+01  1.00800000E+00  1.00800000E+00  1.00800000E+00  1.20100000E+01
  1.00800000E+00  1.20100000E+01  1.00800000E+00  1.20100000E+01  1.00800000E+00
  1.00800000E+00  1.40100000E+01  1.20100000E+01  1.20100000E+01  1.20100000E+01
  1.20100000E+01  1.20100000E+01  1.20100000E+01  1.20100000E+01  1.00800000E+00
  1.20100000E+01  1.00800000E+00  1.20100000E+01  1.00800000E+00  1.20100000E+01
  1.00800000E+00  1.20100000E+01  1.20100000E+01  1.00800000E+00  1.20100000E+01
  1.00800000E+00  1.00800000E+00  1.20100000E+01  1.20100000E+01  1.20100000E+01
  1.20100000E+01  1.60000000E+01  1.20100000E+01  1.20100000E+01  1.20100000E+01
  1.20100000E+01  1.20100000E+01  1.20100000E+01  1.20100000E+01  1.20100000E+01
  1.00800000E+00  1.20100000E+01  1.00800000E+00  1.20100000E+01  1.00800000E+00
  1.20100000E+01  1.00800000E+00  1.20100000E+01  1.20100000E+01  1.00800000E+00
  1.00800000E+00  1.00800000E+00  1.00800000E+00  1.40100000E+01  1.40100000E+01
  1.20100000E+01  1.00800000E+00  1.40100000E+01  1.20100000E+01  1.00800000E+00
  1.20100000E+01  1.20100000E+01  1.20100000E+01  1.20100000E+01  1.00800000E+00
  1.20100000E+01  1.20100000E+01  1.00800000E+00  1.20100000E+01  1.20100000E+01
  1.20100000E+01  1.20100000E+01  1.20100000E+01  1.20100000E+01  1.20100000E+01
  1.20100000E+01  1.20100000E+01  1.20100000E+01  1.20100000E+01  1.20100000E+01
  1.20100000E+01  1.00800000E+00  1.20100000E+01  1.00800000E+00  1.00800000E+00
  1.20100000E+01  1.00800000E+00  1.20100000E+01  1.20100000E+01  1.00800000E+00
  1.20100000E+01  1.00800000E+00  1.20100000E+01  1.00800000E+00  1.20100000E+01
  1.00800000E+00  1.20100000E+01  1.00800000E+00  1.20100000E+01  1.00800000E+00
  1.20100000E+01  1.00800000E+00  1.20100000E+01  1.00800000E+00  1.20100000E+01
  1.00800000E+00  1.00800000E+00  1.20100000E+01  1.00800000E+00  1.00800000E+00
  1.00800000E+00  1.20100000E+01  1.00800000E+00  1.20100000E+01  1.00800000E+00
  1.00800000E+00  1.20100000E+01  1.00800000E+00  1.00800000E+00  1.20100000E+01
  1.00800000E+00  1.00800000E+00  1.60000000E+01  1.60000000E+01  1.60000000E+01
  1.60000000E+01  1.60000000E+01  1.60000000E+01  1.20100000E+01  1.20100000E+01
  1.20100000E+01  1.20100000E+01  1.20100000E+01  1.20100000E+01  1.00800000E+00
  1.00800000E+00  1.00800000E+00  1.00800000E+00  1.00800000E+00  1.00800000E+00
  1.00800000E+00  1.00800000E+00  1.00800000E+00  1.00800000E+00  1.00800000E+00
  1.00800000E+00  1.00800000E+00  1.00800000E+00  1.00800000E+00  1.00800000E+00
  1.00800000E+00  1.00800000E+00  1.60000000E+01  1.20100000E+01  1.20100000E+01
  1.20100000E+01  1.20100000E+01  1.00800000E+00  1.00800000E+00  1.00800000E+00
  1.20100000E+01  1.00800000E+00  1.20100000E+01  1.00800000E+00  1.20100000E+01
  1.00800000E+00  1.00800000E+00  1.40100000E+01  1.20100000E+01  1.20100000E+01
  1.20100000E+01  1.20100000E+01  1.20100000E+01  1.20100000E+01  1.20100000E+01
  1.00800000E+00  1.20100000E+01  1.00800000E+00  1.20100000E+01  1.00800000E+00
  1.20100000E+01  1.00800000E+00  1.20100000E+01  1.20100000E+01  1.00800000E+00
  1.20100000E+01  1.00800000E+00  1.00800000E+00  1.20100000E+01  1.20100000E+01
  1.20100000E+01  1.20100000E+01  1.60000000E+01  1.20100000E+01  1.20100000E+01
  1.20100000E+01  1.20100000E+01  1.20100000E+01  1.20100000E+01  1.20100000E+01
  1.20100000E+01  1.00800000E+00  1.20100000E+01  1.00800000E+00  1.20100000E+01
  1.00800000E+00  1.20100000E+01  1.00800000E+00  1.20100000E+01  1.20100000E+01
  1.00800000E+00  1.00800000E+00  1.00800000E+00  1.00800000E+00  1.40100000E+01
  1.40100000E+01  1.20100000E+01  1.00800000E+00  1.40100000E+01  1.20100000E+01
  1.00800000E+00  1.20100000E+01  1.20100000E+01  1.20100000E+01  1.20100000E+01
  1.00800000E+00  1.20100000E+01  1.20100000E+01  1.00800000E+00  1.20100000E+01
  1.20100000E+01  1.20100000E+01  1.20100000E+01  1.20100000E+01  1.20100000E+01
  1.20100000E+01  1.20100000E+01  1.20100000E+01  1.20100000E+01  1.20100000E+01
  1.20100000E+01  1.20100000E+01  1.00800000E+00  1.20100000E+01  1.00800000E+00
  1.00800000E+00  1.20100000E+01  1.00800000E+00  1.20100000E+01  1.20100000E+01
  1.00800000E+00  1.20100000E+01  1.00800000E+00  1.20100000E+01  1.00800000E+00
  1.20100000E+01  1.00800000E+00  1.20100000E+01  1.00800000E+00  1.20100000E+01
  1.00800000E+00  1.20100000E+01  1.00800000E+00  1.20100000E+01  1.00800000E+00
  1.20100000E+01  1.00800000E+00  1.00800000E+00  1.20100000E+01  1.00800000E+00
  1.00800000E+00  1.00800000E+00  1.20100000E+01  1.00800000E+00  1.20100000E+01
  1.00800000E+00  1.00800000E+00  1.20100000E+01  1.00800000E+00  1.00800000E+00
  1.20100000E+01  1.00800000E+00  1.00800000E+00  1.60000000E+01  1.60000000E+01
  1.60000000E+01  1.60000000E+01  1.60000000E+01  1.60000000E+01  1.20100000E+01
  1.20100000E+01  1.20100000E+01  1.20100000E+01  1.20100000E+01  1.20100000E+01
  1.00800000E+00  1.00800000E+00  1.00800000E+00  1.00800000E+00  1.00800000E+00
  1.00800000E+00  1.00800000E+00  1.00800000E+00  1.00800000E+00  1.00800000E+00
  1.00800000E+00  1.00800000E+00  1.00800000E+00  1.00800000E+00  1.00800000E+00
  1.00800000E+00  1.00800000E+00  1.00800000E+00  1.60000000E+01  1.20100000E+01
  1.20100000E+01  1.20100000E+01  1.20100000E+01  1.00800000E+00  1.00800000E+00
  1.00800000E+00  1.20100000E+01  1.00800000E+00  1.20100000E+01  1.00800000E+00
  1.20100000E+01  1.00800000E+00  1.00800000E+00  1.40100000E+01  1.20100000E+01
  1.20100000E+01  1.20100000E+01  1.20100000E+01  1.20100000E+01  1.20100000E+01
  1.20100000E+01  1.00800000E+00  1.20100000E+01  1.00800000E+00  1.20100000E+01
  1.00800000E+00  1.20100000E+01  1.00800000E+00  1.20100000E+01  1.20100000E+01
  1.00800000E+00  1.20100000E+01  1.00800000E+00  1.00800000E+00  1.20100000E+01
  1.20100000E+01  1.20100000E+01  1.20100000E+01  1.60000000E+01  1.20100000E+01
  1.20100000E+01  1.20100000E+01  1.20100000E+01  1.20100000E+01  1.20100000E+01
  1.20100000E+01  1.20100000E+01  1.00800000E+00  1.20100000E+01  1.00800000E+00
  1.20100000E+01  1.00800000E+00  1.20100000E+01  1.00800000E+00  1.20100000E+01
  1.20100000E+01  1.00800000E+00  1.00800000E+00  1.00800000E+00  1.00800000E+00
  1.40100000E+01  1.40100000E+01  1.20100000E+01  1.00800000E+00  1.40100000E+01
  1.20100000E+01  1.00800000E+00  1.20100000E+01  1.20100000E+01  1.20100000E+01
  1.20100000E+01  1.00800000E+00  1.20100000E+01  1.20100000E+01  1.00800000E+00
  1.20100000E+01  1.20100000E+01  1.20100000E+01  1.20100000E+01  1.20100000E+01
  1.20100000E+01  1.20100000E+01  1.20100000E+01  1.20100000E+01  1.20100000E+01
  1.20100000E+01  1.20100000E+01  1.20100000E+01  1.00800000E+00  1.20100000E+01
  1.00800000E+00  1.00800000E+00  1.20100000E+01  1.00800000E+00  1.20100000E+01
  1.20100000E+01  1.00800000E+00  1.20100000E+01  1.00800000E+00  1.20100000E+01
  1.00800000E+00  1.20100000E+01  1.00800000E+00  1.20100000E+01  1.00800000E+00
  1.20100000E+01  1.00800000E+00  1.20100000E+01  1.00800000E+00  1.20100000E+01
  1.00800000E+00  1.20100000E+01  1.00800000E+00  1.00800000E+00  1.20100000E+01
  1.00800000E+00  1.00800000E+00  1.00800000E+00  1.20100000E+01  1.00800000E+00
  1.20100000E+01  1.00800000E+00  1.00800000E+00  1.20100000E+01  1.00800000E+00
  1.00800000E+00  1.20100000E+01  1.00800000E+00  1.00800000E+00  1.60000000E+01
  1.60000000E+01  1.60000000E+01  1.60000000E+01  1.60000000E+01  1.60000000E+01
  1.20100000E+01  1.20100000E+01  1.20100000E+01  1.20100000E+01  1.20100000E+01
  1.20100000E+01  1.00800000E+00  1.00800000E+00  1.00800000E+00  1.00800000E+00
  1.00800000E+00  1.00800000E+00  1.00800000E+00  1.00800000E+00  1.00800000E+00
  1.00800000E+00  1.00800000E+00  1.00800000E+00  1.00800000E+00  1.00800000E+00
  1.00800000E+00  1.00800000E+00  1.00800000E+00  1.00800000E+00  1.60000000E+01
  1.20100000E+01  1.20100000E+01  1.20100000E+01  1.20100000E+01  1.00800000E+00
  1.00800000E+00  1.00800000E+00  1.20100000E+01  1.00800000E+00  1.20100000E+01
  1.00800000E+00  1.20100000E+01  1.00800000E+00  1.00800000E+00  1.40100000E+01
  1.20100000E+01  1.20100000E+01  1.20100000E+01  1.20100000E+01  1.20100000E+01
  1.20100000E+01  1.20100000E+01  1.00800000E+00  1.20100000E+01  1.00800000E+00
  1.20100000E+01  1.00800000E+00  1.20100000E+01  1.00800000E+00  1.20100000E+01
  1.20100000E+01  1.00800000E+00  1.20100000E+01  1.00800000E+00  1.00800000E+00
  1.20100000E+01  1.20100000E+01  1.20100000E+01  1.20100000E+01  1.60000000E+01
  1.20100000E+01  1.20100000E+01  1.20100000E+01  1.20100000E+01  1.20100000E+01
  1.20100000E+01  1.20100000E+01  1.20100000E+01  1.00800000E+00  1.20100000E+01
  1.00800000E+00  1.20100000E+01  1.00800000E+00  1.20100000E+01  1.00800000E+00
  1.20100000E+01  1.20100000E+01  1.00800000E+00  1.00800000E+00  1.00800000E+00
  1.00800000E+00  1.40100000E+01  1.40100000E+01  1.20100000E+01  1.00800000E+00
  1.40100000E+01  1.20100000E+01  1.00800000E+00  1.20100000E+01  1.20100000E+01
  1.20100000E+01  1.20100000E+01  1.00800000E+00  1.20100000E+01  1.20100000E+01
  1.00800000E+00  1.20100000E+01  1.20100000E+01  1.20100000E+01  1.20100000E+01
  1.20100000E+01  1.20100000E+01  1.20100000E+01  1.20100000E+01  1.20100000E+01
  1.20100000E+01  1.20100000E+01  1.20100000E+01  1.20100000E+01  1.00800000E+00
  1.20100000E+01  1.00800000E+00  1.00800000E+00  1.20100000E+01  1.00800000E+00
  1.20100000E+01  1.20100000E+01  1.00800000E+00  1.20100000E+01  1.00800000E+00
  1.20100000E+01  1.00800000E+00  1.20100000E+01  1.00800000E+00  1.20100000E+01
  1.00800000E+00  1.20100000E+01  1.00800000E+00  1.20100000E+01  1.00800000E+00
  1.20100000E+01  1.00800000E+00  1.20100000E+01  1.00800000E+00  1.00800000E+00
  1.20100000E+01  1.00800000E+00  1.00800000E+00  1.00800000E+00  1.20100000E+01
  1.00800000E+00  1.20100000E+01  1.00800000E+00  1.00800000E+00  1.20100000E+01
  1.00800000E+00  1.00800000E+00  1.20100000E+01  1.00800000E+00  1.00800000E+00
  1.60000000E+01  1.60000000E+01  1.60000000E+01  1.60000000E+01  1.60000000E+01
  1.60000000E+01  1.20100000E+01  1.20100000E+01  1.20100000E+01  1.20100000E+01
  1.20100000E+01  1.20100000E+01  1.00800000E+00  1.00800000E+00  1.00800000E+00
  1.00800000E+00  1.00800000E+00  1.00800000E+00  1.00800000E+00  1.00800000E+00
  1.00800000E+00  1.00800000E+00  1.00800000E+00  1.00800000E+00  1.00800000E+00
  1.00800000E+00  1.00800000E+00  1.00800000E+00  1.00800000E+00  1.00800000E+00
  1.60000000E+01  1.20100000E+01  1.20100000E+01  1.20100000E+01  1.20100000E+01
  1.00800000E+00  1.00800000E+00  1.00800000E+00  1.20100000E+01  1.00800000E+00
  1.20100000E+01  1.00800000E+00  1.20100000E+01  1.00800000E+00  1.00800000E+00
  1.40100000E+01  1.20100000E+01  1.20100000E+01  1.20100000E+01  1.20100000E+01
  1.20100000E+01  1.20100000E+01  1.20100000E+01  1.00800000E+00  1.20100000E+01
  1.00800000E+00  1.20100000E+01  1.00800000E+00  1.20100000E+01  1.00800000E+00
  1.20100000E+01  1.20100000E+01  1.00800000E+00  1.20100000E+01  1.00800000E+00
  1.00800000E+00  1.20100000E+01  1.20100000E+01  1.20100000E+01  1.20100000E+01
  1.60000000E+01  1.20100000E+01  1.20100000E+01  1.20100000E+01  1.20100000E+01
  1.20100000E+01  1.20100000E+01  1.20100000E+01  1.20100000E+01  1.00800000E+00
  1.20100000E+01  1.00800000E+00  1.20100000E+01  1.00800000E+00  1.20100000E+01
  1.00800000E+00  1.20100000E+01  1.20100000E+01  1.00800000E+00  1.00800000E+00
  1.00800000E+00  1.00800000E+00  1.40100000E+01  1.40100000E+01  1.20100000E+01
  1.00800000E+00  1.40100000E+01  1.20100000E+01  1.00800000E+00  1.20100000E+01
  1.20100000E+01  1.20100000E+01  1.20100000E+01  1.00800000E+00  1.20100000E+01
  1.20100000E+01  1.00800000E+00  1.20100000E+01  1.20100000E+01  1.20100000E+01
  1.20100000E+01  1.20100000E+01  1.20100000E+01  1.20100000E+01  1.20100000E+01
  1.20100000E+01  1.20100000E+01  1.20100000E+01  1.20100000E+01  1.20100000E+01
  1.00800000E+00  1.20100000E+01  1.00800000E+00  1.00800000E+00  1.20100000E+01
  1.00800000E+00  1.20100000E+01  1.20100000E+01  1.00800000E+00  1.20100000E+01
  1.00800000E+00  1.20100000E+01  1.00800000E+00  1.20100000E+01  1.00800000E+00
  1.20100000E+01  1.00800000E+00  1.20100000E+01  1.00800000E+00  1.20100000E+01
  1.00800000E+00  1.20100000E+01  1.00800000E+00  1.20100000E+01  1.00800000E+00
  1.00800000E+00  1.20100000E+01  1.00800000E+00  1.00800000E+00  1.00800000E+00
  1.20100000E+01  1.00800000E+00  1.20100000E+01  1.00800000E+00  1.00800000E+00
  1.20100000E+01  1.00800000E+00  1.00800000E+00  1.20100000E+01  1.00800000E+00
  1.00800000E+00  1.60000000E+01  1.60000000E+01  1.60000000E+01  1.60000000E+01
  1.60000000E+01  1.60000000E+01  1.20100000E+01  1.20100000E+01  1.20100000E+01
  1.20100000E+01  1.20100000E+01  1.20100000E+01  1.00800000E+00  1.00800000E+00
  1.00800000E+00  1.00800000E+00  1.00800000E+00  1.00800000E+00  1.00800000E+00
  1.00800000E+00  1.00800000E+00  1.00800000E+00  1.00800000E+00  1.00800000E+00
  1.00800000E+00  1.00800000E+00  1.00800000E+00  1.00800000E+00  1.00800000E+00
  1.00800000E+00  1.60000000E+01  1.20100000E+01  1.20100000E+01  1.20100000E+01
  1.20100000E+01  1.00800000E+00  1.00800000E+00  1.00800000E+00  1.20100000E+01
  1.00800000E+00  1.20100000E+01  1.00800000E+00  1.20100000E+01  1.00800000E+00
  1.00800000E+00  1.40100000E+01  1.20100000E+01  1.20100000E+01  1.20100000E+01
  1.20100000E+01  1.20100000E+01  1.20100000E+01  1.20100000E+01  1.00800000E+00
  1.20100000E+01  1.00800000E+00  1.20100000E+01  1.00800000E+00  1.20100000E+01
  1.00800000E+00  1.20100000E+01  1.20100000E+01  1.00800000E+00  1.20100000E+01
  1.00800000E+00  1.00800000E+00  1.20100000E+01  1.20100000E+01  1.20100000E+01
  1.20100000E+01  1.60000000E+01  1.20100000E+01  1.20100000E+01  1.20100000E+01
  1.20100000E+01  1.20100000E+01  1.20100000E+01  1.20100000E+01  1.20100000E+01
  1.00800000E+00  1.20100000E+01  1.00800000E+00  1.20100000E+01  1.00800000E+00
  1.20100000E+01  1.00800000E+00  1.20100000E+01  1.20100000E+01  1.00800000E+00
  1.00800000E+00  1.00800000E+00  1.00800000E+00  1.40100000E+01  1.40100000E+01
  1.20100000E+01  1.00800000E+00  1.40100000E+01  1.20100000E+01  1.00800000E+00
  1.20100000E+01  1.20100000E+01  1.20100000E+01  1.20100000E+01  1.00800000E+00
  1.20100000E+01  1.20100000E+01  1.00800000E+00  1.20100000E+01  1.20100000E+01
  1.20100000E+01  1.20100000E+01  1.20100000E+01  1.20100000E+01  1.20100000E+01
  1.20100000E+01  1.20100000E+01  1.20100000E+01  1.20100000E+01  1.20100000E+01
  1.20100000E+01  1.00800000E+00  1.20100000E+01  1.00800000E+00  1.00800000E+00
  1.20100000E+01  1.00800000E+00  1.20100000E+01  1.20100000E+01  1.00800000E+00
  1.20100000E+01  1.00800000E+00  1.20100000E+01  1.00800000E+00  1.20100000E+01
  1.00800000E+00  1.20100000E+01  1.00800000E+00  1.20100000E+01  1.00800000E+00
  1.20100000E+01  1.00800000E+00  1.20100000E+01  1.00800000E+00  1.20100000E+01
  1.00800000E+00  1.00800000E+00  1.20100000E+01  1.00800000E+00  1.00800000E+00
  1.00800000E+00  1.20100000E+01  1.00800000E+00  1.20100000E+01  1.00800000E+00
  1.00800000E+00  1.20100000E+01  1.00800000E+00  1.00800000E+00  1.20100000E+01
  1.00800000E+00  1.00800000E+00  1.60000000E+01  1.60000000E+01  1.60000000E+01
  1.60000000E+01  1.60000000E+01  1.60000000E+01  1.20100000E+01  1.20100000E+01
  1.20100000E+01  1.20100000E+01  1.20100000E+01  1.20100000E+01  1.00800000E+00
  1.00800000E+00  1.00800000E+00  1.00800000E+00  1.00800000E+00  1.00800000E+00
  1.00800000E+00  1.00800000E+00  1.00800000E+00  1.00800000E+00  1.00800000E+00
  1.00800000E+00  1.00800000E+00  1.00800000E+00  1.00800000E+00  1.00800000E+00
  1.00800000E+00  1.00800000E+00  1.60000000E+01  1.20100000E+01  1.20100000E+01
  1.20100000E+01  1.20100000E+01  1.00800000E+00  1.00800000E+00  1.00800000E+00
  1.20100000E+01  1.00800000E+00  1.20100000E+01  1.00800000E+00  1.20100000E+01
  1.00800000E+00  1.00800000E+00  1.40100000E+01  1.20100000E+01  1.20100000E+01
  1.20100000E+01  1.20100000E+01  1.20100000E+01  1.20100000E+01  1.20100000E+01
  1.00800000E+00  1.20100000E+01  1.00800000E+00  1.20100000E+01  1.00800000E+00
  1.20100000E+01  1.00800000E+00  1.20100000E+01  1.20100000E+01  1.00800000E+00
  1.20100000E+01  1.00800000E+00  1.00800000E+00  1.20100000E+01  1.20100000E+01
  1.20100000E+01  1.20100000E+01  1.60000000E+01  1.20100000E+01  1.20100000E+01
  1.20100000E+01  1.20100000E+01  1.20100000E+01  1.20100000E+01  1.20100000E+01
  1.20100000E+01  1.00800000E+00  1.20100000E+01  1.00800000E+00  1.20100000E+01
  1.00800000E+00  1.20100000E+01  1.00800000E+00  1.20100000E+01  1.20100000E+01
  1.00800000E+00  1.00800000E+00  1.00800000E+00  1.00800000E+00  1.40100000E+01
  1.40100000E+01  1.20100000E+01  1.00800000E+00  1.40100000E+01  1.20100000E+01
  1.00800000E+00  1.20100000E+01  1.20100000E+01  1.20100000E+01  1.20100000E+01
  1.00800000E+00  1.20100000E+01  1.20100000E+01  1.00800000E+00  1.20100000E+01
  1.20100000E+01  1.20100000E+01  1.20100000E+01  1.20100000E+01  1.20100000E+01
  1.20100000E+01  1.20100000E+01  1.20100000E+01  1.20100000E+01  1.20100000E+01
  1.20100000E+01  1.20100000E+01  1.00800000E+00  1.20100000E+01  1.00800000E+00
  1.00800000E+00  1.20100000E+01  1.00800000E+00  1.20100000E+01  1.20100000E+01
  1.00800000E+00  1.20100000E+01  1.00800000E+00  1.20100000E+01  1.00800000E+00
  1.20100000E+01  1.00800000E+00  1.20100000E+01  1.00800000E+00  1.20100000E+01
  1.00800000E+00  1.20100000E+01  1.00800000E+00  1.20100000E+01  1.00800000E+00
  1.20100000E+01  1.00800000E+00  1.00800000E+00  1.20100000E+01  1.00800000E+00
  1.00800000E+00  1.00800000E+00  1.20100000E+01  1.00800000E+00  1.20100000E+01
  1.00800000E+00  1.00800000E+00  1.20100000E+01  1.00800000E+00  1.00800000E+00
  1.20100000E+01  1.00800000E+00  1.00800000E+00  1.60000000E+01  1.60000000E+01
  1.60000000E+01  1.60000000E+01  1.60000000E+01  1.60000000E+01  1.20100000E+01
  1.20100000E+01  1.20100000E+01  1.20100000E+01  1.20100000E+01  1.20100000E+01
  1.00800000E+00  1.00800000E+00  1.00800000E+00  1.00800000E+00  1.00800000E+00
  1.00800000E+00  1.00800000E+00  1.00800000E+00  1.00800000E+00  1.00800000E+00
  1.00800000E+00  1.00800000E+00  1.00800000E+00  1.00800000E+00  1.00800000E+00
  1.00800000E+00  1.00800000E+00  1.00800000E+00  1.60000000E+01  1.20100000E+01
  1.20100000E+01  1.20100000E+01  1.20100000E+01  1.00800000E+00  1.00800000E+00
  1.00800000E+00  1.20100000E+01  1.00800000E+00  1.20100000E+01  1.00800000E+00
  1.20100000E+01  1.00800000E+00  1.00800000E+00  1.40100000E+01  1.20100000E+01
  1.20100000E+01  1.20100000E+01  1.20100000E+01  1.20100000E+01  1.20100000E+01
  1.20100000E+01  1.00800000E+00  1.20100000E+01  1.00800000E+00  1.20100000E+01
  1.00800000E+00  1.20100000E+01  1.00800000E+00  1.20100000E+01  1.20100000E+01
  1.00800000E+00  1.20100000E+01  1.00800000E+00  1.00800000E+00  1.20100000E+01
  1.20100000E+01  1.20100000E+01  1.20100000E+01  1.60000000E+01  1.20100000E+01
  1.20100000E+01  1.20100000E+01  1.20100000E+01  1.20100000E+01  1.20100000E+01
  1.20100000E+01  1.20100000E+01  1.00800000E+00  1.20100000E+01  1.00800000E+00
  1.20100000E+01  1.00800000E+00  1.20100000E+01  1.00800000E+00  1.20100000E+01
  1.20100000E+01  1.00800000E+00  1.00800000E+00  1.00800000E+00  1.00800000E+00
  1.40100000E+01  1.40100000E+01  1.20100000E+01  1.00800000E+00  1.40100000E+01
  1.20100000E+01  1.00800000E+00  1.20100000E+01  1.20100000E+01  1.20100000E+01
  1.20100000E+01  1.00800000E+00  1.20100000E+01  1.20100000E+01  1.00800000E+00
  1.20100000E+01  1.20100000E+01  1.20100000E+01  1.20100000E+01  1.20100000E+01
  1.20100000E+01  1.20100000E+01  1.20100000E+01  1.20100000E+01  1.20100000E+01
  1.20100000E+01  1.20100000E+01  1.20100000E+01  1.00800000E+00  1.20100000E+01
  1.00800000E+00  1.00800000E+00  1.20100000E+01  1.00800000E+00  1.20100000E+01
  1.20100000E+01  1.00800000E+00  1.20100000E+01  1.00800000E+00  1.20100000E+01
  1.00800000E+00  1.20100000E+01  1.00800000E+00  1.20100000E+01  1.00800000E+00
  1.20100000E+01  1.00800000E+00  1.20100000E+01  1.00800000E+00  1.20100000E+01
  1.00800000E+00  1.20100000E+01  1.00800000E+00  1.00800000E+00  1.20100000E+01
  1.00800000E+00  1.00800000E+00  1.00800000E+00  1.20100000E+01  1.00800000E+00
  1.20100000E+01  1.00800000E+00  1.00800000E+00  1.20100000E+01  1.00800000E+00
  1.00800000E+00  1.20100000E+01  1.00800000E+00  1.00800000E+00  1.60000000E+01
  1.60000000E+01  1.60000000E+01  1.60000000E+01  1.60000000E+01  1.60000000E+01
  1.20100000E+01  1.20100000E+01  1.20100000E+01  1.20100000E+01  1.20100000E+01
  1.20100000E+01  1.00800000E+00  1.00800000E+00  1.00800000E+00  1.00800000E+00
  1.00800000E+00  1.00800000E+00  1.00800000E+00  1.00800000E+00  1.00800000E+00
  1.00800000E+00  1.00800000E+00  1.00800000E+00  1.00800000E+00  1.00800000E+00
  1.00800000E+00  1.00800000E+00  1.00800000E+00  1.00800000E+00  1.60000000E+01
  1.20100000E+01  1.20100000E+01  1.20100000E+01  1.20100000E+01  1.00800000E+00
  1.00800000E+00  1.00800000E+00  1.20100000E+01  1.00800000E+00  1.20100000E+01
  1.00800000E+00  1.20100000E+01  1.00800000E+00  1.00800000E+00  1.40100000E+01
  1.20100000E+01  1.20100000E+01  1.20100000E+01  1.20100000E+01  1.20100000E+01
  1.20100000E+01  1.20100000E+01  1.00800000E+00  1.20100000E+01  1.00800000E+00
  1.20100000E+01  1.00800000E+00  1.20100000E+01  1.00800000E+00  1.20100000E+01
  1.20100000E+01  1.00800000E+00  1.20100000E+01  1.00800000E+00  1.00800000E+00
  1.20100000E+01  1.20100000E+01  1.20100000E+01  1.20100000E+01  1.60000000E+01
  1.20100000E+01  1.20100000E+01  1.20100000E+01  1.20100000E+01  1.20100000E+01
  1.20100000E+01  1.20100000E+01  1.20100000E+01  1.00800000E+00  1.20100000E+01
  1.00800000E+00  1.20100000E+01  1.00800000E+00  1.20100000E+01  1.00800000E+00
  1.20100000E+01  1.20100000E+01  1.00800000E+00  1.00800000E+00  1.00800000E+00
  1.00800000E+00  1.40100000E+01  1.40100000E+01  1.20100000E+01  1.00800000E+00
  1.40100000E+01  1.20100000E+01  1.00800000E+00  1.20100000E+01  1.20100000E+01
  1.20100000E+01  1.20100000E+01  1.00800000E+00  1.20100000E+01  1.20100000E+01
  1.00800000E+00  1.20100000E+01  1.20100000E+01  1.20100000E+01  1.20100000E+01
  1.20100000E+01  1.20100000E+01  1.20100000E+01  1.20100000E+01  1.20100000E+01
  1.20100000E+01  1.20100000E+01  1.20100000E+01  1.20100000E+01  1.00800000E+00
  1.20100000E+01  1.00800000E+00  1.00800000E+00  1.20100000E+01  1.00800000E+00
  1.20100000E+01  1.20100000E+01  1.00800000E+00  1.20100000E+01  1.00800000E+00
  1.20100000E+01  1.00800000E+00  1.20100000E+01  1.00800000E+00  1.20100000E+01
  1.00800000E+00  1.20100000E+01  1.00800000E+00  1.20100000E+01  1.00800000E+00
  1.20100000E+01  1.00800000E+00  1.20100000E+01  1.00800000E+00  1.00800000E+00
  1.20100000E+01  1.00800000E+00  1.00800000E+00  1.00800000E+00  1.20100000E+01
  1.00800000E+00  1.20100000E+01  1.00800000E+00  1.00800000E+00  1.20100000E+01
  1.00800000E+00  1.00800000E+00  1.20100000E+01  1.00800000E+00  1.00800000E+00
  1.60000000E+01  1.60000000E+01  1.60000000E+01  1.60000000E+01  1.60000000E+01
  1.60000000E+01  1.20100000E+01  1.20100000E+01  1.20100000E+01  1.20100000E+01
  1.20100000E+01  1.20100000E+01  1.00800000E+00  1.00800000E+00  1.00800000E+00
  1.00800000E+00  1.00800000E+00  1.00800000E+00  1.00800000E+00  1.00800000E+00
  1.00800000E+00  1.00800000E+00  1.00800000E+00  1.00800000E+00  1.00800000E+00
  1.00800000E+00  1.00800000E+00  1.00800000E+00  1.00800000E+00  1.00800000E+00
  1.60000000E+01  1.20100000E+01  1.20100000E+01  1.20100000E+01  1.20100000E+01
  1.00800000E+00  1.00800000E+00  1.00800000E+00  1.20100000E+01  1.00800000E+00
  1.20100000E+01  1.00800000E+00  1.20100000E+01  1.00800000E+00  1.00800000E+00
  1.40100000E+01  1.20100000E+01  1.20100000E+01  1.20100000E+01  1.20100000E+01
  1.20100000E+01  1.20100000E+01  1.20100000E+01  1.00800000E+00  1.20100000E+01
  1.00800000E+00  1.20100000E+01  1.00800000E+00  1.20100000E+01  1.00800000E+00
  1.20100000E+01  1.20100000E+01  1.00800000E+00  1.20100000E+01  1.00800000E+00
  1.00800000E+00  1.20100000E+01  1.20100000E+01  1.20100000E+01  1.20100000E+01
  1.60000000E+01  1.20100000E+01  1.20100000E+01  1.20100000E+01  1.20100000E+01
  1.20100000E+01  1.20100000E+01  1.20100000E+01  1.20100000E+01  1.00800000E+00
  1.20100000E+01  1.00800000E+00  1.20100000E+01  1.00800000E+00  1.20100000E+01
  1.00800000E+00  1.20100000E+01  1.20100000E+01  1.00800000E+00  1.00800000E+00
  1.00800000E+00  1.00800000E+00  1.40100000E+01  1.40100000E+01  1.20100000E+01
  1.00800000E+00  1.40100000E+01  1.20100000E+01  1.00800000E+00  1.20100000E+01
  1.20100000E+01  1.20100000E+01  1.20100000E+01  1.00800000E+00  1.20100000E+01
  1.20100000E+01  1.00800000E+00  1.20100000E+01  1.20100000E+01  1.20100000E+01
  1.20100000E+01  1.20100000E+01  1.20100000E+01  1.20100000E+01  1.20100000E+01
  1.20100000E+01  1.20100000E+01  1.20100000E+01  1.20100000E+01  1.20100000E+01
  1.00800000E+00  1.20100000E+01  1.00800000E+00  1.00800000E+00  1.20100000E+01
  1.00800000E+00  1.20100000E+01  1.20100000E+01  1.00800000E+00  1.20100000E+01
  1.00800000E+00  1.20100000E+01  1.00800000E+00  1.20100000E+01  1.00800000E+00
  1.20100000E+01  1.00800000E+00  1.20100000E+01  1.00800000E+00  1.20100000E+01
  1.00800000E+00  1.20100000E+01  1.00800000E+00  1.20100000E+01  1.00800000E+00
  1.00800000E+00  1.20100000E+01  1.00800000E+00  1.00800000E+00  1.00800000E+00
  1.20100000E+01  1.00800000E+00  1.20100000E+01  1.00800000E+00  1.00800000E+00
  1.20100000E+01  1.00800000E+00  1.00800000E+00  1.20100000E+01  1.00800000E+00
  1.00800000E+00  1.60000000E+01  1.60000000E+01  1.60000000E+01  1.60000000E+01
  1.60000000E+01  1.60000000E+01  1.20100000E+01  1.20100000E+01  1.20100000E+01
  1.20100000E+01  1.20100000E+01  1.20100000E+01  1.00800000E+00  1.00800000E+00
  1.00800000E+00  1.00800000E+00  1.00800000E+00  1.00800000E+00  1.00800000E+00
  1.00800000E+00  1.00800000E+00  1.00800000E+00  1.00800000E+00  1.00800000E+00
  1.00800000E+00  1.00800000E+00  1.00800000E+00  1.00800000E+00  1.00800000E+00
  1.00800000E+00  1.60000000E+01  1.20100000E+01  1.20100000E+01  1.20100000E+01
  1.20100000E+01  1.00800000E+00  1.00800000E+00  1.00800000E+00  1.20100000E+01
  1.00800000E+00  1.20100000E+01  1.00800000E+00  1.20100000E+01  1.00800000E+00
  1.00800000E+00  1.40100000E+01  1.20100000E+01  1.20100000E+01  1.20100000E+01
  1.20100000E+01  1.20100000E+01  1.20100000E+01  1.20100000E+01  1.00800000E+00
  1.20100000E+01  1.00800000E+00  1.20100000E+01  1.00800000E+00  1.20100000E+01
  1.00800000E+00  1.20100000E+01  1.20100000E+01  1.00800000E+00  1.20100000E+01
  1.00800000E+00  1.00800000E+00  1.20100000E+01  1.20100000E+01  1.20100000E+01
  1.20100000E+01  1.60000000E+01  1.20100000E+01  1.20100000E+01  1.20100000E+01
  1.20100000E+01  1.20100000E+01  1.20100000E+01  1.20100000E+01  1.20100000E+01
  1.00800000E+00  1.20100000E+01  1.00800000E+00  1.20100000E+01  1.00800000E+00
  1.20100000E+01  1.00800000E+00  1.20100000E+01  1.20100000E+01  1.00800000E+00
  1.00800000E+00  1.00800000E+00  1.00800000E+00  1.40100000E+01  1.40100000E+01
  1.20100000E+01  1.00800000E+00  1.40100000E+01  1.20100000E+01  1.00800000E+00
  1.20100000E+01  1.20100000E+01  1.20100000E+01  1.20100000E+01  1.00800000E+00
  1.20100000E+01  1.20100000E+01  1.00800000E+00  1.20100000E+01  1.20100000E+01
  1.20100000E+01  1.20100000E+01  1.20100000E+01  1.20100000E+01  1.20100000E+01
  1.20100000E+01  1.20100000E+01  1.20100000E+01  1.20100000E+01  1.20100000E+01
  1.20100000E+01  1.00800000E+00  1.20100000E+01  1.00800000E+00  1.00800000E+00
  1.20100000E+01  1.00800000E+00  1.20100000E+01  1.20100000E+01  1.00800000E+00
  1.20100000E+01  1.00800000E+00  1.20100000E+01  1.00800000E+00  1.20100000E+01
  1.00800000E+00  1.20100000E+01  1.00800000E+00  1.20100000E+01  1.00800000E+00
  1.20100000E+01  1.00800000E+00  1.20100000E+01  1.00800000E+00  1.20100000E+01
  1.00800000E+00  1.00800000E+00  1.20100000E+01  1.00800000E+00  1.00800000E+00
  1.00800000E+00  1.20100000E+01  1.00800000E+00  1.20100000E+01  1.00800000E+00
  1.00800000E+00  1.20100000E+01  1.00800000E+00  1.00800000E+00  1.20100000E+01
  1.00800000E+00  1.00800000E+00  1.60000000E+01  1.60000000E+01  1.60000000E+01
  1.60000000E+01  1.60000000E+01  1.60000000E+01  1.20100000E+01  1.20100000E+01
  1.20100000E+01  1.20100000E+01  1.20100000E+01  1.20100000E+01  1.00800000E+00
  1.00800000E+00  1.00800000E+00  1.00800000E+00  1.00800000E+00  1.00800000E+00
  1.00800000E+00  1.00800000E+00  1.00800000E+00  1.00800000E+00  1.00800000E+00
  1.00800000E+00  1.00800000E+00  1.00800000E+00  1.00800000E+00  1.00800000E+00
  1.00800000E+00  1.00800000E+00  1.60000000E+01  1.20100000E+01  1.20100000E+01
  1.20100000E+01  1.20100000E+01  1.00800000E+00  1.00800000E+00  1.00800000E+00
  1.20100000E+01  1.00800000E+00  1.20100000E+01  1.00800000E+00  1.20100000E+01
  1.00800000E+00  1.00800000E+00  1.40100000E+01  1.20100000E+01  1.20100000E+01
  1.20100000E+01  1.20100000E+01  1.20100000E+01  1.20100000E+01  1.20100000E+01
  1.00800000E+00  1.20100000E+01  1.00800000E+00  1.20100000E+01  1.00800000E+00
  1.20100000E+01  1.00800000E+00  1.20100000E+01  1.20100000E+01  1.00800000E+00
  1.20100000E+01  1.00800000E+00  1.00800000E+00  1.20100000E+01  1.20100000E+01
  1.20100000E+01  1.20100000E+01  1.60000000E+01  1.20100000E+01  1.20100000E+01
  1.20100000E+01  1.20100000E+01  1.20100000E+01  1.20100000E+01  1.20100000E+01
  1.20100000E+01  1.00800000E+00  1.20100000E+01  1.00800000E+00  1.20100000E+01
  1.00800000E+00  1.20100000E+01  1.00800000E+00  1.20100000E+01  1.20100000E+01
  1.00800000E+00  1.00800000E+00  1.00800000E+00  1.00800000E+00  1.40100000E+01
  1.40100000E+01  1.20100000E+01  1.00800000E+00  1.40100000E+01  1.20100000E+01
  1.00800000E+00  1.20100000E+01  1.20100000E+01  1.20100000E+01  1.20100000E+01
  1.00800000E+00  1.20100000E+01  1.20100000E+01  1.00800000E+00  1.20100000E+01
  1.20100000E+01  1.20100000E+01  1.20100000E+01  1.20100000E+01  1.20100000E+01
  1.20100000E+01  1.20100000E+01  1.20100000E+01  1.20100000E+01  1.20100000E+01
  1.20100000E+01  1.20100000E+01  1.00800000E+00  1.20100000E+01  1.00800000E+00
  1.00800000E+00  1.20100000E+01  1.00800000E+00  1.20100000E+01  1.20100000E+01
  1.00800000E+00  1.20100000E+01  1.00800000E+00  1.20100000E+01  1.00800000E+00
  1.20100000E+01  1.00800000E+00  1.20100000E+01  1.00800000E+00  1.20100000E+01
  1.00800000E+00  1.20100000E+01  1.00800000E+00  1.20100000E+01  1.00800000E+00
  1.20100000E+01  1.00800000E+00  1.00800000E+00  1.20100000E+01  1.00800000E+00
  1.00800000E+00  1.00800000E+00  1.20100000E+01  1.00800000E+00  1.20100000E+01
  1.00800000E+00  1.00800000E+00  1.20100000E+01  1.00800000E+00  1.00800000E+00
  1.20100000E+01  1.00800000E+00  1.00800000E+00  1.60000000E+01  1.60000000E+01
  1.60000000E+01  1.60000000E+01  1.60000000E+01  1.60000000E+01  1.20100000E+01
  1.20100000E+01  1.20100000E+01  1.20100000E+01  1.20100000E+01  1.20100000E+01
  1.00800000E+00  1.00800000E+00  1.00800000E+00  1.00800000E+00  1.00800000E+00
  1.00800000E+00  1.00800000E+00  1.00800000E+00  1.00800000E+00  1.00800000E+00
  1.00800000E+00  1.00800000E+00  1.00800000E+00  1.00800000E+00  1.00800000E+00
  1.00800000E+00  1.00800000E+00  1.00800000E+00  1.60000000E+01  1.20100000E+01
  1.20100000E+01  1.20100000E+01  1.20100000E+01  1.00800000E+00  1.00800000E+00
  1.00800000E+00  1.20100000E+01  1.00800000E+00  1.20100000E+01  1.00800000E+00
  1.20100000E+01  1.00800000E+00  1.00800000E+00  1.40100000E+01  1.20100000E+01
  1.20100000E+01  1.20100000E+01  1.20100000E+01  1.20100000E+01  1.20100000E+01
  1.20100000E+01  1.00800000E+00  1.20100000E+01  1.00800000E+00  1.20100000E+01
  1.00800000E+00  1.20100000E+01  1.00800000E+00  1.20100000E+01  1.20100000E+01
  1.00800000E+00  1.20100000E+01  1.00800000E+00  1.00800000E+00  1.20100000E+01
  1.20100000E+01  1.20100000E+01  1.20100000E+01  1.60000000E+01  1.20100000E+01
  1.20100000E+01  1.20100000E+01  1.20100000E+01  1.20100000E+01  1.20100000E+01
  1.20100000E+01  1.20100000E+01  1.00800000E+00  1.20100000E+01  1.00800000E+00
  1.20100000E+01  1.00800000E+00  1.20100000E+01  1.00800000E+00  1.20100000E+01
  1.20100000E+01  1.00800000E+00  1.00800000E+00  1.00800000E+00  1.00800000E+00
  1.40100000E+01  1.40100000E+01  1.20100000E+01  1.00800000E+00  1.40100000E+01
  1.20100000E+01  1.00800000E+00  1.20100000E+01  1.20100000E+01  1.20100000E+01
  1.20100000E+01  1.00800000E+00  1.20100000E+01  1.20100000E+01  1.00800000E+00
  1.20100000E+01  1.20100000E+01  1.20100000E+01  1.20100000E+01  1.20100000E+01
  1.20100000E+01  1.20100000E+01  1.20100000E+01  1.20100000E+01  1.20100000E+01
  1.20100000E+01  1.20100000E+01  1.20100000E+01  1.00800000E+00  1.20100000E+01
  1.00800000E+00  1.00800000E+00  1.20100000E+01  1.00800000E+00  1.20100000E+01
  1.20100000E+01  1.00800000E+00  1.20100000E+01  1.00800000E+00  1.20100000E+01
  1.00800000E+00  1.20100000E+01  1.00800000E+00  1.20100000E+01  1.00800000E+00
  1.20100000E+01  1.00800000E+00  1.20100000E+01  1.00800000E+00  1.20100000E+01
  1.00800000E+00  1.20100000E+01  1.00800000E+00  1.00800000E+00  1.20100000E+01
  1.00800000E+00  1.00800000E+00  1.00800000E+00  1.20100000E+01  1.00800000E+00
  1.20100000E+01  1.00800000E+00  1.00800000E+00  1.20100000E+01  1.00800000E+00
  1.00800000E+00  1.20100000E+01  1.00800000E+00  1.00800000E+00  1.60000000E+01
  1.60000000E+01  1.60000000E+01  1.60000000E+01  1.60000000E+01  1.60000000E+01
  1.20100000E+01  1.20100000E+01  1.20100000E+01  1.20100000E+01  1.20100000E+01
  1.20100000E+01  1.00800000E+00  1.00800000E+00  1.00800000E+00  1.00800000E+00
  1.00800000E+00  1.00800000E+00  1.00800000E+00  1.00800000E+00  1.00800000E+00
  1.00800000E+00  1.00800000E+00  1.00800000E+00  1.00800000E+00  1.00800000E+00
  1.00800000E+00  1.00800000E+00  1.00800000E+00  1.00800000E+00  1.60000000E+01
  1.20100000E+01  1.20100000E+01  1.20100000E+01  1.20100000E+01  1.00800000E+00
  1.00800000E+00  1.00800000E+00  1.20100000E+01  1.00800000E+00  1.20100000E+01
  1.00800000E+00  1.20100000E+01  1.00800000E+00  1.00800000E+00  1.40100000E+01
  1.20100000E+01  1.20100000E+01  1.20100000E+01  1.20100000E+01  1.20100000E+01
  1.20100000E+01  1.20100000E+01  1.00800000E+00  1.20100000E+01  1.00800000E+00
  1.20100000E+01  1.00800000E+00  1.20100000E+01  1.00800000E+00  1.20100000E+01
  1.20100000E+01  1.00800000E+00  1.20100000E+01  1.00800000E+00  1.00800000E+00
  1.20100000E+01  1.20100000E+01  1.20100000E+01  1.20100000E+01  1.60000000E+01
  1.20100000E+01  1.20100000E+01  1.20100000E+01  1.20100000E+01  1.20100000E+01
  1.20100000E+01  1.20100000E+01  1.20100000E+01  1.00800000E+00  1.20100000E+01
  1.00800000E+00  1.20100000E+01  1.00800000E+00  1.20100000E+01  1.00800000E+00
  1.20100000E+01  1.20100000E+01  1.00800000E+00  1.00800000E+00  1.00800000E+00
  1.00800000E+00  1.40100000E+01  1.40100000E+01  1.20100000E+01  1.00800000E+00
  1.40100000E+01  1.20100000E+01  1.00800000E+00  1.20100000E+01  1.20100000E+01
  1.20100000E+01  1.20100000E+01  1.00800000E+00  1.20100000E+01  1.20100000E+01
  1.00800000E+00  1.20100000E+01  1.20100000E+01  1.20100000E+01  1.20100000E+01
  1.20100000E+01  1.20100000E+01  1.20100000E+01  1.20100000E+01  1.20100000E+01
  1.20100000E+01  1.20100000E+01  1.20100000E+01  1.20100000E+01  1.00800000E+00
  1.20100000E+01  1.00800000E+00  1.00800000E+00  1.20100000E+01  1.00800000E+00
  1.20100000E+01  1.20100000E+01  1.00800000E+00  1.20100000E+01  1.00800000E+00
  1.20100000E+01  1.00800000E+00  1.20100000E+01  1.00800000E+00  1.20100000E+01
  1.00800000E+00  1.20100000E+01  1.00800000E+00  1.20100000E+01  1.00800000E+00
  1.20100000E+01  1.00800000E+00  1.20100000E+01  1.00800000E+00  1.00800000E+00
  1.20100000E+01  1.00800000E+00  1.00800000E+00  1.00800000E+00  1.20100000E+01
  1.00800000E+00  1.20100000E+01  1.00800000E+00  1.00800000E+00  1.20100000E+01
  1.00800000E+00  1.00800000E+00  1.20100000E+01  1.00800000E+00  1.00800000E+00
  1.60000000E+01  1.60000000E+01  1.60000000E+01  1.60000000E+01  1.60000000E+01
  1.60000000E+01  1.20100000E+01  1.20100000E+01  1.20100000E+01  1.20100000E+01
  1.20100000E+01  1.20100000E+01  1.00800000E+00  1.00800000E+00  1.00800000E+00
  1.00800000E+00  1.00800000E+00  1.00800000E+00  1.00800000E+00  1.00800000E+00
  1.00800000E+00  1.00800000E+00  1.00800000E+00  1.00800000E+00  1.00800000E+00
  1.00800000E+00  1.00800000E+00  1.00800000E+00  1.00800000E+00  1.00800000E+00
  1.60000000E+01  1.20100000E+01  1.20100000E+01  1.20100000E+01  1.20100000E+01
  1.00800000E+00  1.00800000E+00  1.00800000E+00  1.20100000E+01  1.00800000E+00
  1.20100000E+01  1.00800000E+00  1.20100000E+01  1.00800000E+00  1.00800000E+00
  1.40100000E+01  1.20100000E+01  1.20100000E+01  1.20100000E+01  1.20100000E+01
  1.20100000E+01  1.20100000E+01  1.20100000E+01  1.00800000E+00  1.20100000E+01
  1.00800000E+00  1.20100000E+01  1.00800000E+00  1.20100000E+01  1.00800000E+00
  1.20100000E+01  1.20100000E+01  1.00800000E+00  1.20100000E+01  1.00800000E+00
  1.00800000E+00  1.20100000E+01  1.20100000E+01  1.20100000E+01  1.20100000E+01
  1.60000000E+01  1.20100000E+01  1.20100000E+01  1.20100000E+01  1.20100000E+01
  1.20100000E+01  1.20100000E+01  1.20100000E+01  1.20100000E+01  1.00800000E+00
  1.20100000E+01  1.00800000E+00  1.20100000E+01  1.00800000E+00  1.20100000E+01
  1.00800000E+00  1.20100000E+01  1.20100000E+01  1.00800000E+00  1.00800000E+00
  1.00800000E+00  1.00800000E+00  1.40100000E+01  1.40100000E+01  1.20100000E+01
  1.00800000E+00  1.40100000E+01  1.20100000E+01  1.00800000E+00  1.20100000E+01
  1.20100000E+01  1.20100000E+01  1.20100000E+01  1.00800000E+00  1.20100000E+01
  1.20100000E+01  1.00800000E+00  1.20100000E+01  1.20100000E+01  1.20100000E+01
  1.20100000E+01  1.20100000E+01  1.20100000E+01  1.20100000E+01  1.20100000E+01
  1.20100000E+01  1.20100000E+01  1.20100000E+01  1.20100000E+01  1.20100000E+01
  1.00800000E+00  1.20100000E+01  1.00800000E+00  1.00800000E+00  1.20100000E+01
  1.00800000E+00  1.20100000E+01  1.20100000E+01  1.00800000E+00  1.20100000E+01
  1.00800000E+00  1.20100000E+01  1.00800000E+00  1.20100000E+01  1.00800000E+00
  1.20100000E+01  1.00800000E+00  1.20100000E+01  1.00800000E+00  1.20100000E+01
  1.00800000E+00  1.20100000E+01  1.00800000E+00  1.20100000E+01  1.00800000E+00
  1.00800000E+00  1.20100000E+01  1.00800000E+00  1.00800000E+00  1.00800000E+00
  1.20100000E+01  1.00800000E+00  1.20100000E+01  1.00800000E+00  1.00800000E+00
  1.20100000E+01  1.00800000E+00  1.00800000E+00  1.20100000E+01  1.00800000E+00
  1.00800000E+00  1.60000000E+01  1.60000000E+01  1.60000000E+01  1.60000000E+01
  1.60000000E+01  1.60000000E+01  1.20100000E+01  1.20100000E+01  1.20100000E+01
  1.20100000E+01  1.20100000E+01  1.20100000E+01  1.00800000E+00  1.00800000E+00
  1.00800000E+00  1.00800000E+00  1.00800000E+00  1.00800000E+00  1.00800000E+00
  1.00800000E+00  1.00800000E+00  1.00800000E+00  1.00800000E+00  1.00800000E+00
  1.00800000E+00  1.00800000E+00  1.00800000E+00  1.00800000E+00  1.00800000E+00
  1.00800000E+00  1.60000000E+01  1.20100000E+01  1.20100000E+01  1.20100000E+01
  1.20100000E+01  1.00800000E+00  1.00800000E+00  1.00800000E+00  1.20100000E+01
  1.00800000E+00  1.20100000E+01  1.00800000E+00  1.20100000E+01  1.00800000E+00
  1.00800000E+00  1.40100000E+01  1.20100000E+01  1.20100000E+01  1.20100000E+01
  1.20100000E+01  1.20100000E+01  1.20100000E+01  1.20100000E+01  1.00800000E+00
  1.20100000E+01  1.00800000E+00  1.20100000E+01  1.00800000E+00  1.20100000E+01
  1.00800000E+00  1.20100000E+01  1.20100000E+01  1.00800000E+00  1.20100000E+01
  1.00800000E+00  1.00800000E+00  1.20100000E+01  1.20100000E+01  1.20100000E+01
  1.20100000E+01  1.60000000E+01  1.20100000E+01  1.20100000E+01  1.20100000E+01
  1.20100000E+01  1.20100000E+01  1.20100000E+01  1.20100000E+01  1.20100000E+01
  1.00800000E+00  1.20100000E+01  1.00800000E+00  1.20100000E+01  1.00800000E+00
  1.20100000E+01  1.00800000E+00  1.20100000E+01  1.20100000E+01  1.00800000E+00
  1.00800000E+00  1.00800000E+00  1.00800000E+00  1.40100000E+01  1.40100000E+01
  1.20100000E+01  1.00800000E+00  1.40100000E+01  1.20100000E+01  1.00800000E+00
  1.20100000E+01  1.20100000E+01  1.20100000E+01  1.20100000E+01  1.00800000E+00
  1.20100000E+01  1.20100000E+01  1.00800000E+00  1.20100000E+01  1.20100000E+01
  1.20100000E+01  1.20100000E+01  1.20100000E+01  1.20100000E+01  1.20100000E+01
  1.20100000E+01  1.20100000E+01  1.20100000E+01  1.20100000E+01  1.20100000E+01
  1.20100000E+01  1.00800000E+00  1.20100000E+01  1.00800000E+00  1.00800000E+00
  1.20100000E+01  1.00800000E+00  1.20100000E+01  1.20100000E+01  1.00800000E+00
  1.20100000E+01  1.00800000E+00  1.20100000E+01  1.00800000E+00  1.20100000E+01
  1.00800000E+00  1.20100000E+01  1.00800000E+00  1.20100000E+01  1.00800000E+00
  1.20100000E+01  1.00800000E+00  1.20100000E+01  1.00800000E+00  1.20100000E+01
  1.00800000E+00  1.00800000E+00  1.20100000E+01  1.00800000E+00  1.00800000E+00
  1.00800000E+00  1.20100000E+01  1.00800000E+00  1.20100000E+01  1.00800000E+00
  1.00800000E+00  1.20100000E+01  1.00800000E+00  1.00800000E+00  1.20100000E+01
  1.00800000E+00  1.00800000E+00  1.60000000E+01  1.60000000E+01  1.60000000E+01
  1.60000000E+01  1.60000000E+01  1.60000000E+01  1.20100000E+01  1.20100000E+01
  1.20100000E+01  1.20100000E+01  1.20100000E+01  1.20100000E+01  1.00800000E+00
  1.00800000E+00  1.00800000E+00  1.00800000E+00  1.00800000E+00  1.00800000E+00
  1.00800000E+00  1.00800000E+00  1.00800000E+00  1.00800000E+00  1.00800000E+00
  1.00800000E+00  1.00800000E+00  1.00800000E+00  1.00800000E+00  1.00800000E+00
  1.00800000E+00  1.00800000E+00  1.60000000E+01  1.20100000E+01  1.20100000E+01
  1.20100000E+01  1.20100000E+01  1.00800000E+00  1.00800000E+00  1.00800000E+00
  1.20100000E+01  1.00800000E+00  1.20100000E+01  1.00800000E+00  1.20100000E+01
  1.00800000E+00  1.00800000E+00  1.40100000E+01  1.20100000E+01  1.20100000E+01
  1.20100000E+01  1.20100000E+01  1.20100000E+01  1.20100000E+01  1.20100000E+01
  1.00800000E+00  1.20100000E+01  1.00800000E+00  1.20100000E+01  1.00800000E+00
  1.20100000E+01  1.00800000E+00  1.20100000E+01  1.20100000E+01  1.00800000E+00
  1.20100000E+01  1.00800000E+00  1.00800000E+00  1.20100000E+01  1.20100000E+01
  1.20100000E+01  1.20100000E+01  1.60000000E+01  1.20100000E+01  1.20100000E+01
  1.20100000E+01  1.20100000E+01  1.20100000E+01  1.20100000E+01  1.20100000E+01
  1.20100000E+01  1.00800000E+00  1.20100000E+01  1.00800000E+00  1.20100000E+01
  1.00800000E+00  1.20100000E+01  1.00800000E+00  1.20100000E+01  1.20100000E+01
  1.00800000E+00  1.00800000E+00  1.00800000E+00  1.00800000E+00  1.40100000E+01
  1.40100000E+01  1.20100000E+01  1.00800000E+00  1.40100000E+01  1.20100000E+01
  1.00800000E+00  1.20100000E+01  1.20100000E+01  1.20100000E+01  1.20100000E+01
  1.00800000E+00  1.20100000E+01  1.20100000E+01  1.00800000E+00  1.20100000E+01
  1.20100000E+01  1.20100000E+01  1.20100000E+01  1.20100000E+01  1.20100000E+01
  1.20100000E+01  1.20100000E+01  1.20100000E+01  1.20100000E+01  1.20100000E+01
  1.20100000E+01  1.20100000E+01  1.00800000E+00  1.20100000E+01  1.00800000E+00
  1.00800000E+00  1.20100000E+01  1.00800000E+00  1.20100000E+01  1.20100000E+01
  1.00800000E+00  1.20100000E+01  1.00800000E+00  1.20100000E+01  1.00800000E+00
  1.20100000E+01  1.00800000E+00  1.20100000E+01  1.00800000E+00  1.20100000E+01
  1.00800000E+00  1.20100000E+01  1.00800000E+00  1.20100000E+01  1.00800000E+00
  1.20100000E+01  1.00800000E+00  1.00800000E+00  1.20100000E+01  1.00800000E+00
  1.00800000E+00  1.00800000E+00  1.20100000E+01  1.00800000E+00  1.20100000E+01
  1.00800000E+00  1.00800000E+00  1.20100000E+01  1.00800000E+00  1.00800000E+00
  1.20100000E+01  1.00800000E+00  1.00800000E+00  1.60000000E+01  1.60000000E+01
  1.60000000E+01  1.60000000E+01  1.60000000E+01  1.60000000E+01  1.20100000E+01
  1.20100000E+01  1.20100000E+01  1.20100000E+01  1.20100000E+01  1.20100000E+01
  1.00800000E+00  1.00800000E+00  1.00800000E+00  1.00800000E+00  1.00800000E+00
  1.00800000E+00  1.00800000E+00  1.00800000E+00  1.00800000E+00  1.00800000E+00
  1.00800000E+00  1.00800000E+00  1.00800000E+00  1.00800000E+00  1.00800000E+00
  1.00800000E+00  1.00800000E+00  1.00800000E+00  1.60000000E+01  1.20100000E+01
  1.20100000E+01  1.20100000E+01  1.20100000E+01  1.00800000E+00  1.00800000E+00
  1.00800000E+00  1.20100000E+01  1.00800000E+00  1.20100000E+01  1.00800000E+00
  1.20100000E+01  1.00800000E+00  1.00800000E+00  1.40100000E+01  1.20100000E+01
  1.20100000E+01  1.20100000E+01  1.20100000E+01  1.20100000E+01  1.20100000E+01
  1.20100000E+01  1.00800000E+00  1.20100000E+01  1.00800000E+00  1.20100000E+01
  1.00800000E+00  1.20100000E+01  1.00800000E+00  1.20100000E+01  1.20100000E+01
  1.00800000E+00  1.20100000E+01  1.00800000E+00  1.00800000E+00  1.20100000E+01
  1.20100000E+01  1.20100000E+01  1.20100000E+01  1.60000000E+01  1.20100000E+01
  1.20100000E+01  1.20100000E+01  1.20100000E+01  1.20100000E+01  1.20100000E+01
  1.20100000E+01  1.20100000E+01  1.00800000E+00  1.20100000E+01  1.00800000E+00
  1.20100000E+01  1.00800000E+00  1.20100000E+01  1.00800000E+00  1.20100000E+01
  1.20100000E+01  1.00800000E+00  1.00800000E+00  1.00800000E+00  1.00800000E+00
  1.40100000E+01  1.40100000E+01  1.20100000E+01  1.00800000E+00  1.40100000E+01
  1.20100000E+01  1.00800000E+00  1.20100000E+01  1.20100000E+01  1.20100000E+01
  1.20100000E+01  1.00800000E+00  1.20100000E+01  1.20100000E+01  1.00800000E+00
  1.20100000E+01  1.20100000E+01  1.20100000E+01  1.20100000E+01  1.20100000E+01
  1.20100000E+01  1.20100000E+01  1.20100000E+01  1.20100000E+01  1.20100000E+01
  1.20100000E+01  1.20100000E+01  1.20100000E+01  1.00800000E+00  1.20100000E+01
  1.00800000E+00  1.00800000E+00  1.20100000E+01  1.00800000E+00  1.20100000E+01
  1.20100000E+01  1.00800000E+00  1.20100000E+01  1.00800000E+00  1.20100000E+01
  1.00800000E+00  1.20100000E+01  1.00800000E+00  1.20100000E+01  1.00800000E+00
  1.20100000E+01  1.00800000E+00  1.20100000E+01  1.00800000E+00  1.20100000E+01
  1.00800000E+00  1.20100000E+01  1.00800000E+00  1.00800000E+00  1.20100000E+01
  1.00800000E+00  1.00800000E+00  1.00800000E+00  1.20100000E+01  1.00800000E+00
  1.20100000E+01  1.00800000E+00  1.00800000E+00  1.20100000E+01  1.00800000E+00
  1.00800000E+00  1.20100000E+01  1.00800000E+00  1.00800000E+00  1.60000000E+01
  1.60000000E+01  1.60000000E+01  1.60000000E+01  1.60000000E+01  1.60000000E+01
  1.20100000E+01  1.20100000E+01  1.20100000E+01  1.20100000E+01  1.20100000E+01
  1.20100000E+01  1.00800000E+00  1.00800000E+00  1.00800000E+00  1.00800000E+00
  1.00800000E+00  1.00800000E+00  1.00800000E+00  1.00800000E+00  1.00800000E+00
  1.00800000E+00  1.00800000E+00  1.00800000E+00  1.00800000E+00  1.00800000E+00
  1.00800000E+00  1.00800000E+00  1.00800000E+00  1.00800000E+00  1.60000000E+01
  1.20100000E+01  1.20100000E+01  1.20100000E+01  1.20100000E+01  1.00800000E+00
  1.00800000E+00  1.00800000E+00  1.20100000E+01  1.00800000E+00  1.20100000E+01
  1.00800000E+00  1.20100000E+01  1.00800000E+00  1.00800000E+00  1.40100000E+01
  1.20100000E+01  1.20100000E+01  1.20100000E+01  1.20100000E+01  1.20100000E+01
  1.20100000E+01  1.20100000E+01  1.00800000E+00  1.20100000E+01  1.00800000E+00
  1.20100000E+01  1.00800000E+00  1.20100000E+01  1.00800000E+00  1.20100000E+01
  1.20100000E+01  1.00800000E+00  1.20100000E+01  1.00800000E+00  1.00800000E+00
  1.20100000E+01  1.20100000E+01  1.20100000E+01  1.20100000E+01  1.60000000E+01
  1.20100000E+01  1.20100000E+01  1.20100000E+01  1.20100000E+01  1.20100000E+01
  1.20100000E+01  1.20100000E+01  1.20100000E+01  1.00800000E+00  1.20100000E+01
  1.00800000E+00  1.20100000E+01  1.00800000E+00  1.20100000E+01  1.00800000E+00
  1.20100000E+01  1.20100000E+01  1.00800000E+00  1.00800000E+00  1.00800000E+00
  1.00800000E+00  1.40100000E+01  1.40100000E+01  1.20100000E+01  1.00800000E+00
  1.40100000E+01  1.20100000E+01  1.00800000E+00  1.20100000E+01  1.20100000E+01
  1.20100000E+01  1.20100000E+01  1.00800000E+00  1.20100000E+01  1.20100000E+01
  1.00800000E+00  1.20100000E+01  1.20100000E+01  1.20100000E+01  1.20100000E+01
  1.20100000E+01  1.20100000E+01  1.20100000E+01  1.20100000E+01  1.20100000E+01
  1.20100000E+01  1.20100000E+01  1.20100000E+01  1.20100000E+01  1.00800000E+00
  1.20100000E+01  1.00800000E+00  1.00800000E+00  1.20100000E+01  1.00800000E+00
  1.20100000E+01  1.20100000E+01  1.00800000E+00  1.20100000E+01  1.00800000E+00
  1.20100000E+01  1.00800000E+00  1.20100000E+01  1.00800000E+00  1.20100000E+01
  1.00800000E+00  1.20100000E+01  1.00800000E+00  1.20100000E+01  1.00800000E+00
  1.20100000E+01  1.00800000E+00  1.20100000E+01  1.00800000E+00  1.00800000E+00
  1.20100000E+01  1.00800000E+00  1.00800000E+00  1.00800000E+00  1.20100000E+01
  1.00800000E+00  1.20100000E+01  1.00800000E+00  1.00800000E+00  1.20100000E+01
  1.00800000E+00  1.00800000E+00  1.20100000E+01  1.00800000E+00  1.00800000E+00
  1.60000000E+01  1.60000000E+01  1.60000000E+01  1.60000000E+01  1.60000000E+01
  1.60000000E+01  1.20100000E+01  1.20100000E+01  1.20100000E+01  1.20100000E+01
  1.20100000E+01  1.20100000E+01  1.00800000E+00  1.00800000E+00  1.00800000E+00
  1.00800000E+00  1.00800000E+00  1.00800000E+00  1.00800000E+00  1.00800000E+00
  1.00800000E+00  1.00800000E+00  1.00800000E+00  1.00800000E+00  1.00800000E+00
  1.00800000E+00  1.00800000E+00  1.00800000E+00  1.00800000E+00  1.00800000E+00
  1.60000000E+01  1.20100000E+01  1.20100000E+01  1.20100000E+01  1.20100000E+01
  1.00800000E+00  1.00800000E+00  1.00800000E+00  1.20100000E+01  1.00800000E+00
  1.20100000E+01  1.00800000E+00  1.20100000E+01  1.00800000E+00  1.00800000E+00
  1.40100000E+01  1.20100000E+01  1.20100000E+01  1.20100000E+01  1.20100000E+01
  1.20100000E+01  1.20100000E+01  1.20100000E+01  1.00800000E+00  1.20100000E+01
  1.00800000E+00  1.20100000E+01  1.00800000E+00  1.20100000E+01  1.00800000E+00
  1.20100000E+01  1.20100000E+01  1.00800000E+00  1.20100000E+01  1.00800000E+00
  1.00800000E+00  1.20100000E+01  1.20100000E+01  1.20100000E+01  1.20100000E+01
  1.60000000E+01  1.20100000E+01  1.20100000E+01  1.20100000E+01  1.20100000E+01
  1.20100000E+01  1.20100000E+01  1.20100000E+01  1.20100000E+01  1.00800000E+00
  1.20100000E+01  1.00800000E+00  1.20100000E+01  1.00800000E+00  1.20100000E+01
  1.00800000E+00  1.20100000E+01  1.20100000E+01  1.00800000E+00  1.00800000E+00
  1.00800000E+00  1.00800000E+00  1.40100000E+01  1.40100000E+01  1.20100000E+01
  1.00800000E+00  1.40100000E+01  1.20100000E+01  1.00800000E+00  1.20100000E+01
  1.20100000E+01  1.20100000E+01  1.20100000E+01  1.00800000E+00  1.20100000E+01
  1.20100000E+01  1.00800000E+00  1.20100000E+01  1.20100000E+01  1.20100000E+01
  1.20100000E+01  1.20100000E+01  1.20100000E+01  1.20100000E+01  1.20100000E+01
  1.20100000E+01  1.20100000E+01  1.20100000E+01  1.20100000E+01  1.20100000E+01
  1.00800000E+00  1.20100000E+01  1.00800000E+00  1.00800000E+00  1.20100000E+01
  1.00800000E+00  1.20100000E+01  1.20100000E+01  1.00800000E+00  1.20100000E+01
  1.00800000E+00  1.20100000E+01  1.00800000E+00  1.20100000E+01  1.00800000E+00
  1.20100000E+01  1.00800000E+00  1.20100000E+01  1.00800000E+00  1.20100000E+01
  1.00800000E+00  1.20100000E+01  1.00800000E+00  1.20100000E+01  1.00800000E+00
  1.00800000E+00  1.20100000E+01  1.00800000E+00  1.00800000E+00  1.00800000E+00
  1.20100000E+01  1.00800000E+00  1.20100000E+01  1.00800000E+00  1.00800000E+00
  1.20100000E+01  1.00800000E+00  1.00800000E+00  1.20100000E+01  1.00800000E+00
  1.00800000E+00  1.60000000E+01  1.60000000E+01  1.60000000E+01  1.60000000E+01
  1.60000000E+01  1.60000000E+01  1.20100000E+01  1.20100000E+01  1.20100000E+01
  1.20100000E+01  1.20100000E+01  1.20100000E+01  1.00800000E+00  1.00800000E+00
  1.00800000E+00  1.00800000E+00  1.00800000E+00  1.00800000E+00  1.00800000E+00
  1.00800000E+00  1.00800000E+00  1.00800000E+00  1.00800000E+00  1.00800000E+00
  1.00800000E+00  1.00800000E+00  1.00800000E+00  1.00800000E+00  1.00800000E+00
  1.00800000E+00  1.60000000E+01  1.20100000E+01  1.20100000E+01  1.20100000E+01
  1.20100000E+01  1.00800000E+00  1.00800000E+00  1.00800000E+00  1.20100000E+01
  1.00800000E+00  1.20100000E+01  1.00800000E+00  1.20100000E+01  1.00800000E+00
  1.00800000E+00  1.40100000E+01  1.20100000E+01  1.20100000E+01  1.20100000E+01
  1.20100000E+01  1.20100000E+01  1.20100000E+01  1.20100000E+01  1.00800000E+00
  1.20100000E+01  1.00800000E+00  1.20100000E+01  1.00800000E+00  1.20100000E+01
  1.00800000E+00  1.20100000E+01  1.20100000E+01  1.00800000E+00  1.20100000E+01
  1.00800000E+00  1.00800000E+00  1.20100000E+01  1.20100000E+01  1.20100000E+01
  1.20100000E+01  1.60000000E+01  1.20100000E+01  1.20100000E+01  1.20100000E+01
  1.20100000E+01  1.20100000E+01  1.20100000E+01  1.20100000E+01  1.20100000E+01
  1.00800000E+00  1.20100000E+01  1.00800000E+00  1.20100000E+01  1.00800000E+00
  1.20100000E+01  1.00800000E+00  1.20100000E+01  1.20100000E+01  1.00800000E+00
  1.00800000E+00  1.00800000E+00  1.00800000E+00  1.40100000E+01  1.40100000E+01
  1.20100000E+01  1.00800000E+00  1.40100000E+01  1.20100000E+01  1.00800000E+00
  1.20100000E+01  1.20100000E+01  1.20100000E+01  1.20100000E+01  1.00800000E+00
  1.20100000E+01  1.20100000E+01  1.00800000E+00  1.20100000E+01  1.20100000E+01
  1.20100000E+01  1.20100000E+01  1.20100000E+01  1.20100000E+01  1.20100000E+01
  1.20100000E+01  1.20100000E+01  1.20100000E+01  1.20100000E+01  1.20100000E+01
  1.20100000E+01  1.00800000E+00  1.20100000E+01  1.00800000E+00  1.00800000E+00
  1.20100000E+01  1.00800000E+00  1.20100000E+01  1.20100000E+01  1.00800000E+00
  1.20100000E+01  1.00800000E+00  1.20100000E+01  1.00800000E+00  1.20100000E+01
  1.00800000E+00  1.20100000E+01  1.00800000E+00  1.20100000E+01  1.00800000E+00
  1.20100000E+01  1.00800000E+00  1.20100000E+01  1.00800000E+00  1.20100000E+01
  1.00800000E+00  1.00800000E+00  1.20100000E+01  1.00800000E+00  1.00800000E+00
  1.00800000E+00  1.20100000E+01  1.00800000E+00  1.20100000E+01  1.00800000E+00
  1.00800000E+00  1.20100000E+01  1.00800000E+00  1.00800000E+00  1.20100000E+01
  1.00800000E+00  1.00800000E+00  1.60000000E+01  1.60000000E+01  1.60000000E+01
  1.60000000E+01  1.60000000E+01  1.60000000E+01  1.20100000E+01  1.20100000E+01
  1.20100000E+01  1.20100000E+01  1.20100000E+01  1.20100000E+01  1.00800000E+00
  1.00800000E+00  1.00800000E+00  1.00800000E+00  1.00800000E+00  1.00800000E+00
  1.00800000E+00  1.00800000E+00  1.00800000E+00  1.00800000E+00  1.00800000E+00
  1.00800000E+00  1.00800000E+00  1.00800000E+00  1.00800000E+00  1.00800000E+00
  1.00800000E+00  1.00800000E+00  1.60000000E+01  1.20100000E+01  1.20100000E+01
  1.20100000E+01  1.20100000E+01  1.00800000E+00  1.00800000E+00  1.00800000E+00
  1.20100000E+01  1.00800000E+00  1.20100000E+01  1.00800000E+00  1.20100000E+01
  1.00800000E+00  1.00800000E+00  1.40100000E+01  1.20100000E+01  1.20100000E+01
  1.20100000E+01  1.20100000E+01  1.20100000E+01  1.20100000E+01  1.20100000E+01
  1.00800000E+00  1.20100000E+01  1.00800000E+00  1.20100000E+01  1.00800000E+00
  1.20100000E+01  1.00800000E+00  1.20100000E+01  1.20100000E+01  1.00800000E+00
  1.20100000E+01  1.00800000E+00  1.00800000E+00  1.20100000E+01  1.20100000E+01
  1.20100000E+01  1.20100000E+01  1.60000000E+01  1.20100000E+01  1.20100000E+01
  1.20100000E+01  1.20100000E+01  1.20100000E+01  1.20100000E+01  1.20100000E+01
  1.20100000E+01  1.00800000E+00  1.20100000E+01  1.00800000E+00  1.20100000E+01
  1.00800000E+00  1.20100000E+01  1.00800000E+00  1.20100000E+01  1.20100000E+01
  1.00800000E+00  1.00800000E+00  1.00800000E+00  1.00800000E+00  1.40100000E+01
  1.40100000E+01  1.20100000E+01  1.00800000E+00  1.40100000E+01  1.20100000E+01
  1.00800000E+00  1.20100000E+01  1.20100000E+01  1.20100000E+01  1.20100000E+01
  1.00800000E+00  1.20100000E+01  1.20100000E+01  1.00800000E+00  1.20100000E+01
  1.20100000E+01  1.20100000E+01  1.20100000E+01  1.20100000E+01  1.20100000E+01
  1.20100000E+01  1.20100000E+01  1.20100000E+01  1.20100000E+01  1.20100000E+01
  1.20100000E+01  1.20100000E+01  1.00800000E+00  1.20100000E+01  1.00800000E+00
  1.00800000E+00  1.20100000E+01  1.00800000E+00  1.20100000E+01  1.20100000E+01
  1.00800000E+00  1.20100000E+01  1.00800000E+00  1.20100000E+01  1.00800000E+00
  1.20100000E+01  1.00800000E+00  1.20100000E+01  1.00800000E+00  1.20100000E+01
  1.00800000E+00  1.20100000E+01  1.00800000E+00  1.20100000E+01  1.00800000E+00
  1.20100000E+01  1.00800000E+00  1.00800000E+00  1.20100000E+01  1.00800000E+00
  1.00800000E+00  1.00800000E+00  1.20100000E+01  1.00800000E+00  1.20100000E+01
  1.00800000E+00  1.00800000E+00  1.20100000E+01  1.00800000E+00  1.00800000E+00
  1.20100000E+01  1.00800000E+00  1.00800000E+00  1.60000000E+01  1.60000000E+01
  1.60000000E+01  1.60000000E+01  1.60000000E+01  1.60000000E+01  1.20100000E+01
  1.20100000E+01  1.20100000E+01  1.20100000E+01  1.20100000E+01  1.20100000E+01
  1.00800000E+00  1.00800000E+00  1.00800000E+00  1.00800000E+00  1.00800000E+00
  1.00800000E+00  1.00800000E+00  1.00800000E+00  1.00800000E+00  1.00800000E+00
  1.00800000E+00  1.00800000E+00  1.00800000E+00  1.00800000E+00  1.00800000E+00
  1.00800000E+00  1.00800000E+00  1.00800000E+00  1.60000000E+01  1.20100000E+01
  1.20100000E+01  1.20100000E+01  1.20100000E+01  1.00800000E+00  1.00800000E+00
  1.00800000E+00  1.20100000E+01  1.00800000E+00  1.20100000E+01  1.00800000E+00
  1.20100000E+01  1.00800000E+00  1.00800000E+00  1.40100000E+01  1.20100000E+01
  1.20100000E+01  1.20100000E+01  1.20100000E+01  1.20100000E+01  1.20100000E+01
  1.20100000E+01  1.00800000E+00  1.20100000E+01  1.00800000E+00  1.20100000E+01
  1.00800000E+00  1.20100000E+01  1.00800000E+00  1.20100000E+01  1.20100000E+01
  1.00800000E+00  1.20100000E+01  1.00800000E+00  1.00800000E+00  1.20100000E+01
  1.20100000E+01  1.20100000E+01  1.20100000E+01  1.60000000E+01  1.20100000E+01
  1.20100000E+01  1.20100000E+01  1.20100000E+01  1.20100000E+01  1.20100000E+01
  1.20100000E+01  1.20100000E+01  1.00800000E+00  1.20100000E+01  1.00800000E+00
  1.20100000E+01  1.00800000E+00  1.20100000E+01  1.00800000E+00  1.20100000E+01
  1.20100000E+01  1.00800000E+00  1.00800000E+00  1.00800000E+00  1.00800000E+00
  1.40100000E+01  1.40100000E+01  1.20100000E+01  1.00800000E+00  1.40100000E+01
  1.20100000E+01  1.00800000E+00  1.20100000E+01  1.20100000E+01  1.20100000E+01
  1.20100000E+01  1.00800000E+00  1.20100000E+01  1.20100000E+01  1.00800000E+00
  1.20100000E+01  1.20100000E+01  1.20100000E+01  1.20100000E+01  1.20100000E+01
  1.20100000E+01  1.20100000E+01  1.20100000E+01  1.20100000E+01  1.20100000E+01
  1.20100000E+01  1.20100000E+01  1.20100000E+01  1.00800000E+00  1.20100000E+01
  1.00800000E+00  1.00800000E+00  1.20100000E+01  1.00800000E+00  1.20100000E+01
  1.20100000E+01  1.00800000E+00  1.20100000E+01  1.00800000E+00  1.20100000E+01
  1.00800000E+00  1.20100000E+01  1.00800000E+00  1.20100000E+01  1.00800000E+00
  1.20100000E+01  1.00800000E+00  1.20100000E+01  1.00800000E+00  1.20100000E+01
  1.00800000E+00  1.20100000E+01  1.00800000E+00  1.00800000E+00  1.20100000E+01
  1.00800000E+00  1.00800000E+00  1.00800000E+00  1.20100000E+01  1.00800000E+00
  1.20100000E+01  1.00800000E+00  1.00800000E+00  1.20100000E+01  1.00800000E+00
  1.00800000E+00  1.20100000E+01  1.00800000E+00  1.00800000E+00  1.60000000E+01
  1.60000000E+01  1.60000000E+01  1.60000000E+01  1.60000000E+01  1.60000000E+01
  1.20100000E+01  1.20100000E+01  1.20100000E+01  1.20100000E+01  1.20100000E+01
  1.20100000E+01  1.00800000E+00  1.00800000E+00  1.00800000E+00  1.00800000E+00
  1.00800000E+00  1.00800000E+00  1.00800000E+00  1.00800000E+00  1.00800000E+00
  1.00800000E+00  1.00800000E+00  1.00800000E+00  1.00800000E+00  1.00800000E+00
  1.00800000E+00  1.00800000E+00  1.00800000E+00  1.00800000E+00  1.60000000E+01
  1.20100000E+01  1.20100000E+01  1.20100000E+01  1.20100000E+01  1.00800000E+00
  1.00800000E+00  1.00800000E+00  1.20100000E+01  1.00800000E+00  1.20100000E+01
  1.00800000E+00  1.20100000E+01  1.00800000E+00  1.00800000E+00  1.40100000E+01
  1.20100000E+01  1.20100000E+01  1.20100000E+01  1.20100000E+01  1.20100000E+01
  1.20100000E+01  1.20100000E+01  1.00800000E+00  1.20100000E+01  1.00800000E+00
  1.20100000E+01  1.00800000E+00  1.20100000E+01  1.00800000E+00  1.20100000E+01
  1.20100000E+01  1.00800000E+00  1.20100000E+01  1.00800000E+00  1.00800000E+00
  1.20100000E+01  1.20100000E+01  1.20100000E+01  1.20100000E+01  1.60000000E+01
  1.20100000E+01  1.20100000E+01  1.20100000E+01  1.20100000E+01  1.20100000E+01
  1.20100000E+01  1.20100000E+01  1.20100000E+01  1.00800000E+00  1.20100000E+01
  1.00800000E+00  1.20100000E+01  1.00800000E+00  1.20100000E+01  1.00800000E+00
  1.20100000E+01  1.20100000E+01  1.00800000E+00  1.00800000E+00  1.00800000E+00
  1.00800000E+00  1.40100000E+01  1.40100000E+01  1.20100000E+01  1.00800000E+00
  1.40100000E+01  1.20100000E+01  1.00800000E+00  1.20100000E+01  1.20100000E+01
  1.20100000E+01  1.20100000E+01  1.00800000E+00  1.20100000E+01  1.20100000E+01
  1.00800000E+00  1.20100000E+01  1.20100000E+01  1.20100000E+01  1.20100000E+01
  1.20100000E+01  1.20100000E+01  1.20100000E+01  1.20100000E+01  1.20100000E+01
  1.20100000E+01  1.20100000E+01  1.20100000E+01  1.20100000E+01  1.00800000E+00
  1.20100000E+01  1.00800000E+00  1.00800000E+00  1.20100000E+01  1.00800000E+00
  1.20100000E+01  1.20100000E+01  1.00800000E+00  1.20100000E+01  1.00800000E+00
  1.20100000E+01  1.00800000E+00  1.20100000E+01  1.00800000E+00  1.20100000E+01
  1.00800000E+00  1.20100000E+01  1.00800000E+00  1.20100000E+01  1.00800000E+00
  1.20100000E+01  1.00800000E+00  1.20100000E+01  1.00800000E+00  1.00800000E+00
  1.20100000E+01  1.00800000E+00  1.00800000E+00  1.00800000E+00  1.20100000E+01
  1.00800000E+00  1.20100000E+01  1.00800000E+00  1.00800000E+00  1.20100000E+01
  1.00800000E+00  1.00800000E+00  1.20100000E+01  1.00800000E+00  1.00800000E+00
  1.60000000E+01  1.60000000E+01  1.60000000E+01  1.60000000E+01  1.60000000E+01
  1.60000000E+01  1.20100000E+01  1.20100000E+01  1.20100000E+01  1.20100000E+01
  1.20100000E+01  1.20100000E+01  1.00800000E+00  1.00800000E+00  1.00800000E+00
  1.00800000E+00  1.00800000E+00  1.00800000E+00  1.00800000E+00  1.00800000E+00
  1.00800000E+00  1.00800000E+00  1.00800000E+00  1.00800000E+00  1.00800000E+00
  1.00800000E+00  1.00800000E+00  1.00800000E+00  1.00800000E+00  1.00800000E+00
  1.60000000E+01  1.20100000E+01  1.20100000E+01  1.20100000E+01  1.20100000E+01
  1.00800000E+00  1.00800000E+00  1.00800000E+00  1.20100000E+01  1.00800000E+00
  1.20100000E+01  1.00800000E+00  1.20100000E+01  1.00800000E+00  1.00800000E+00
  1.40100000E+01  1.20100000E+01  1.20100000E+01  1.20100000E+01  1.20100000E+01
  1.20100000E+01  1.20100000E+01  1.20100000E+01  1.00800000E+00  1.20100000E+01
  1.00800000E+00  1.20100000E+01  1.00800000E+00  1.20100000E+01  1.00800000E+00
  1.20100000E+01  1.20100000E+01  1.00800000E+00  1.20100000E+01  1.00800000E+00
  1.00800000E+00  1.20100000E+01  1.20100000E+01  1.20100000E+01  1.20100000E+01
  1.60000000E+01  1.20100000E+01  1.20100000E+01  1.20100000E+01  1.20100000E+01
  1.20100000E+01  1.20100000E+01  1.20100000E+01  1.20100000E+01  1.00800000E+00
  1.20100000E+01  1.00800000E+00  1.20100000E+01  1.00800000E+00  1.20100000E+01
  1.00800000E+00  1.20100000E+01  1.20100000E+01  1.00800000E+00  1.00800000E+00
  1.00800000E+00  1.00800000E+00  1.40100000E+01  1.40100000E+01  1.20100000E+01
  1.00800000E+00  1.40100000E+01  1.20100000E+01  1.00800000E+00  1.20100000E+01
  1.20100000E+01  1.20100000E+01  1.20100000E+01  1.00800000E+00  1.20100000E+01
  1.20100000E+01  1.00800000E+00  1.20100000E+01  1.20100000E+01  1.20100000E+01
  1.20100000E+01  1.20100000E+01  1.20100000E+01  1.20100000E+01  1.20100000E+01
  1.20100000E+01  1.20100000E+01  1.20100000E+01  1.20100000E+01  1.20100000E+01
  1.00800000E+00  1.20100000E+01  1.00800000E+00  1.00800000E+00  1.20100000E+01
  1.00800000E+00  1.20100000E+01  1.20100000E+01  1.00800000E+00  1.20100000E+01
  1.00800000E+00  1.20100000E+01  1.00800000E+00  1.20100000E+01  1.00800000E+00
  1.20100000E+01  1.00800000E+00  1.20100000E+01  1.00800000E+00  1.20100000E+01
  1.00800000E+00  1.20100000E+01  1.00800000E+00  1.20100000E+01  1.00800000E+00
  1.00800000E+00  1.20100000E+01  1.00800000E+00  1.00800000E+00  1.00800000E+00
  1.20100000E+01  1.00800000E+00  1.20100000E+01  1.00800000E+00  1.00800000E+00
  1.20100000E+01  1.00800000E+00  1.00800000E+00  1.20100000E+01  1.00800000E+00
  1.00800000E+00  1.60000000E+01  1.60000000E+01  1.60000000E+01  1.60000000E+01
  1.60000000E+01  1.60000000E+01  1.20100000E+01  1.20100000E+01  1.20100000E+01
  1.20100000E+01  1.20100000E+01  1.20100000E+01  1.00800000E+00  1.00800000E+00
  1.00800000E+00  1.00800000E+00  1.00800000E+00  1.00800000E+00  1.00800000E+00
  1.00800000E+00  1.00800000E+00  1.00800000E+00  1.00800000E+00  1.00800000E+00
  1.00800000E+00  1.00800000E+00  1.00800000E+00  1.00800000E+00  1.00800000E+00
  1.00800000E+00  1.60000000E+01  1.20100000E+01  1.20100000E+01  1.20100000E+01
  1.20100000E+01  1.00800000E+00  1.00800000E+00  1.00800000E+00  1.20100000E+01
  1.00800000E+00  1.20100000E+01  1.00800000E+00  1.20100000E+01  1.00800000E+00
  1.00800000E+00  1.40100000E+01  1.20100000E+01  1.20100000E+01  1.20100000E+01
  1.20100000E+01  1.20100000E+01  1.20100000E+01  1.20100000E+01  1.00800000E+00
  1.20100000E+01  1.00800000E+00  1.20100000E+01  1.00800000E+00  1.20100000E+01
  1.00800000E+00  1.20100000E+01  1.20100000E+01  1.00800000E+00  1.20100000E+01
  1.00800000E+00  1.00800000E+00  1.20100000E+01  1.20100000E+01  1.20100000E+01
  1.20100000E+01  1.60000000E+01  1.20100000E+01  1.20100000E+01  1.20100000E+01
  1.20100000E+01  1.20100000E+01  1.20100000E+01  1.20100000E+01  1.20100000E+01
  1.00800000E+00  1.20100000E+01  1.00800000E+00  1.20100000E+01  1.00800000E+00
  1.20100000E+01  1.00800000E+00  1.20100000E+01  1.20100000E+01  1.00800000E+00
  1.00800000E+00  1.00800000E+00  1.00800000E+00  1.40100000E+01  1.40100000E+01
  1.20100000E+01  1.00800000E+00  1.40100000E+01  1.20100000E+01  1.00800000E+00
  1.20100000E+01  1.20100000E+01  1.20100000E+01  1.20100000E+01  1.00800000E+00
  1.20100000E+01  1.20100000E+01  1.00800000E+00  1.20100000E+01  1.20100000E+01
  1.20100000E+01  1.20100000E+01  1.20100000E+01  1.20100000E+01  1.20100000E+01
  1.20100000E+01  1.20100000E+01  1.20100000E+01  1.20100000E+01  1.20100000E+01
  1.20100000E+01  1.00800000E+00  1.20100000E+01  1.00800000E+00  1.00800000E+00
  1.20100000E+01  1.00800000E+00  1.20100000E+01  1.20100000E+01  1.00800000E+00
  1.20100000E+01  1.00800000E+00  1.20100000E+01  1.00800000E+00  1.20100000E+01
  1.00800000E+00  1.20100000E+01  1.00800000E+00  1.20100000E+01  1.00800000E+00
  1.20100000E+01  1.00800000E+00  1.20100000E+01  1.00800000E+00  1.20100000E+01
  1.00800000E+00  1.00800000E+00  1.20100000E+01  1.00800000E+00  1.00800000E+00
  1.00800000E+00  1.20100000E+01  1.00800000E+00  1.20100000E+01  1.00800000E+00
  1.00800000E+00  1.20100000E+01  1.00800000E+00  1.00800000E+00  1.20100000E+01
  1.00800000E+00  1.00800000E+00  1.60000000E+01  1.60000000E+01  1.60000000E+01
  1.60000000E+01  1.60000000E+01  1.60000000E+01  1.20100000E+01  1.20100000E+01
  1.20100000E+01  1.20100000E+01  1.20100000E+01  1.20100000E+01  1.00800000E+00
  1.00800000E+00  1.00800000E+00  1.00800000E+00  1.00800000E+00  1.00800000E+00
  1.00800000E+00  1.00800000E+00  1.00800000E+00  1.00800000E+00  1.00800000E+00
  1.00800000E+00  1.00800000E+00  1.00800000E+00  1.00800000E+00  1.00800000E+00
  1.00800000E+00  1.00800000E+00  1.60000000E+01  1.20100000E+01  1.20100000E+01
  1.20100000E+01  1.20100000E+01  1.00800000E+00  1.00800000E+00  1.00800000E+00
  1.20100000E+01  1.00800000E+00  1.20100000E+01  1.00800000E+00  1.20100000E+01
  1.00800000E+00  1.00800000E+00  1.40100000E+01  1.20100000E+01  1.20100000E+01
  1.20100000E+01  1.20100000E+01  1.20100000E+01  1.20100000E+01  1.20100000E+01
  1.00800000E+00  1.20100000E+01  1.00800000E+00  1.20100000E+01  1.00800000E+00
  1.20100000E+01  1.00800000E+00  1.20100000E+01  1.20100000E+01  1.00800000E+00
  1.20100000E+01  1.00800000E+00  1.00800000E+00  1.20100000E+01  1.20100000E+01
  1.20100000E+01  1.20100000E+01  1.60000000E+01  1.20100000E+01  1.20100000E+01
  1.20100000E+01  1.20100000E+01  1.20100000E+01  1.20100000E+01  1.20100000E+01
  1.20100000E+01  1.00800000E+00  1.20100000E+01  1.00800000E+00  1.20100000E+01
  1.00800000E+00  1.20100000E+01  1.00800000E+00  1.20100000E+01  1.20100000E+01
  1.00800000E+00  1.00800000E+00  1.00800000E+00  1.00800000E+00  1.40100000E+01
  1.40100000E+01  1.20100000E+01  1.00800000E+00  1.40100000E+01  1.20100000E+01
  1.00800000E+00  1.20100000E+01  1.20100000E+01  1.20100000E+01  1.20100000E+01
  1.00800000E+00  1.20100000E+01  1.20100000E+01  1.00800000E+00  1.20100000E+01
  1.20100000E+01  1.20100000E+01  1.20100000E+01  1.20100000E+01  1.20100000E+01
  1.20100000E+01  1.20100000E+01  1.20100000E+01  1.20100000E+01  1.20100000E+01
  1.20100000E+01  1.20100000E+01  1.00800000E+00  1.20100000E+01  1.00800000E+00
  1.00800000E+00  1.20100000E+01  1.00800000E+00  1.20100000E+01  1.20100000E+01
  1.00800000E+00  1.20100000E+01  1.00800000E+00  1.20100000E+01  1.00800000E+00
  1.20100000E+01  1.00800000E+00  1.20100000E+01  1.00800000E+00  1.20100000E+01
  1.00800000E+00  1.20100000E+01  1.00800000E+00  1.20100000E+01  1.00800000E+00
  1.20100000E+01  1.00800000E+00  1.00800000E+00  1.20100000E+01  1.00800000E+00
  1.00800000E+00  1.00800000E+00  1.20100000E+01  1.00800000E+00  1.20100000E+01
  1.00800000E+00  1.00800000E+00  1.20100000E+01  1.00800000E+00  1.00800000E+00
  1.20100000E+01  1.00800000E+00  1.00800000E+00  1.60000000E+01  1.60000000E+01
  1.60000000E+01  1.60000000E+01  1.60000000E+01  1.60000000E+01  1.20100000E+01
  1.20100000E+01  1.20100000E+01  1.20100000E+01  1.20100000E+01  1.20100000E+01
  1.00800000E+00  1.00800000E+00  1.00800000E+00  1.00800000E+00  1.00800000E+00
  1.00800000E+00  1.00800000E+00  1.00800000E+00  1.00800000E+00  1.00800000E+00
  1.00800000E+00  1.00800000E+00  1.00800000E+00  1.00800000E+00  1.00800000E+00
  1.00800000E+00  1.00800000E+00  1.00800000E+00  1.60000000E+01  1.20100000E+01
  1.20100000E+01  1.20100000E+01  1.20100000E+01  1.00800000E+00  1.00800000E+00
  1.00800000E+00  1.20100000E+01  1.00800000E+00  1.20100000E+01  1.00800000E+00
  1.20100000E+01  1.00800000E+00  1.00800000E+00  1.40100000E+01  1.20100000E+01
  1.20100000E+01  1.20100000E+01  1.20100000E+01  1.20100000E+01  1.20100000E+01
  1.20100000E+01  1.00800000E+00  1.20100000E+01  1.00800000E+00  1.20100000E+01
  1.00800000E+00  1.20100000E+01  1.00800000E+00  1.20100000E+01  1.20100000E+01
  1.00800000E+00  1.20100000E+01  1.00800000E+00  1.00800000E+00  1.20100000E+01
  1.20100000E+01  1.20100000E+01  1.20100000E+01  1.60000000E+01  1.20100000E+01
  1.20100000E+01  1.20100000E+01  1.20100000E+01  1.20100000E+01  1.20100000E+01
  1.20100000E+01  1.20100000E+01  1.00800000E+00  1.20100000E+01  1.00800000E+00
  1.20100000E+01  1.00800000E+00  1.20100000E+01  1.00800000E+00  1.20100000E+01
  1.20100000E+01  1.00800000E+00  1.00800000E+00  1.00800000E+00  1.00800000E+00
  1.40100000E+01  1.40100000E+01  1.20100000E+01  1.00800000E+00  1.40100000E+01
  1.20100000E+01  1.00800000E+00  1.20100000E+01  1.20100000E+01  1.20100000E+01
  1.20100000E+01  1.00800000E+00  1.20100000E+01  1.20100000E+01  1.00800000E+00
  1.20100000E+01  1.20100000E+01  1.20100000E+01  1.20100000E+01  1.20100000E+01
  1.20100000E+01  1.20100000E+01  1.20100000E+01  1.20100000E+01  1.20100000E+01
  1.20100000E+01  1.20100000E+01  1.20100000E+01  1.00800000E+00  1.20100000E+01
  1.00800000E+00  1.00800000E+00  1.20100000E+01  1.00800000E+00  1.20100000E+01
  1.20100000E+01  1.00800000E+00  1.20100000E+01  1.00800000E+00  1.20100000E+01
  1.00800000E+00  1.20100000E+01  1.00800000E+00  1.20100000E+01  1.00800000E+00
  1.20100000E+01  1.00800000E+00  1.20100000E+01  1.00800000E+00  1.20100000E+01
  1.00800000E+00  1.20100000E+01  1.00800000E+00  1.00800000E+00  1.20100000E+01
  1.00800000E+00  1.00800000E+00  1.00800000E+00  1.20100000E+01  1.00800000E+00
  1.20100000E+01  1.00800000E+00  1.00800000E+00  1.20100000E+01  1.00800000E+00
  1.00800000E+00  1.20100000E+01  1.00800000E+00  1.00800000E+00  1.60000000E+01
  1.60000000E+01  1.60000000E+01  1.60000000E+01  1.60000000E+01  1.60000000E+01
  1.20100000E+01  1.20100000E+01  1.20100000E+01  1.20100000E+01  1.20100000E+01
  1.20100000E+01  1.00800000E+00  1.00800000E+00  1.00800000E+00  1.00800000E+00
  1.00800000E+00  1.00800000E+00  1.00800000E+00  1.00800000E+00  1.00800000E+00
  1.00800000E+00  1.00800000E+00  1.00800000E+00  1.00800000E+00  1.00800000E+00
  1.00800000E+00  1.00800000E+00  1.00800000E+00  1.00800000E+00  1.60000000E+01
  1.20100000E+01  1.20100000E+01  1.20100000E+01  1.20100000E+01  1.00800000E+00
  1.00800000E+00  1.00800000E+00  1.20100000E+01  1.00800000E+00  1.20100000E+01
  1.00800000E+00  1.20100000E+01  1.00800000E+00  1.00800000E+00  1.40100000E+01
  1.20100000E+01  1.20100000E+01  1.20100000E+01  1.20100000E+01  1.20100000E+01
  1.20100000E+01  1.20100000E+01  1.00800000E+00  1.20100000E+01  1.00800000E+00
  1.20100000E+01  1.00800000E+00  1.20100000E+01  1.00800000E+00  1.20100000E+01
  1.20100000E+01  1.00800000E+00  1.20100000E+01  1.00800000E+00  1.00800000E+00
  1.20100000E+01  1.20100000E+01  1.20100000E+01  1.20100000E+01  1.60000000E+01
  1.20100000E+01  1.20100000E+01  1.20100000E+01  1.20100000E+01  1.20100000E+01
  1.20100000E+01  1.20100000E+01  1.20100000E+01  1.00800000E+00  1.20100000E+01
  1.00800000E+00  1.20100000E+01  1.00800000E+00  1.20100000E+01  1.00800000E+00
  1.20100000E+01  1.20100000E+01  1.00800000E+00  1.00800000E+00  1.00800000E+00
  1.00800000E+00  1.40100000E+01  1.40100000E+01  1.20100000E+01  1.00800000E+00
  1.40100000E+01  1.20100000E+01  1.00800000E+00  1.20100000E+01  1.20100000E+01
  1.20100000E+01  1.20100000E+01  1.00800000E+00  1.20100000E+01  1.20100000E+01
  1.00800000E+00  1.20100000E+01  1.20100000E+01  1.20100000E+01  1.20100000E+01
  1.20100000E+01  1.20100000E+01  1.20100000E+01  1.20100000E+01  1.20100000E+01
  1.20100000E+01  1.20100000E+01  1.20100000E+01  1.20100000E+01  1.00800000E+00
  1.20100000E+01  1.00800000E+00  1.00800000E+00  1.20100000E+01  1.00800000E+00
  1.20100000E+01  1.20100000E+01  1.00800000E+00  1.20100000E+01  1.00800000E+00
  1.20100000E+01  1.00800000E+00  1.20100000E+01  1.00800000E+00  1.20100000E+01
  1.00800000E+00  1.20100000E+01  1.00800000E+00  1.20100000E+01  1.00800000E+00
  1.20100000E+01  1.00800000E+00  1.20100000E+01  1.00800000E+00  1.00800000E+00
  1.20100000E+01  1.00800000E+00  1.00800000E+00  1.00800000E+00  1.20100000E+01
  1.00800000E+00  1.20100000E+01  1.00800000E+00  1.00800000E+00  1.20100000E+01
  1.00800000E+00  1.00800000E+00  1.20100000E+01  1.00800000E+00  1.00800000E+00
  1.60000000E+01  1.60000000E+01  1.60000000E+01  1.60000000E+01  1.60000000E+01
  1.60000000E+01  1.20100000E+01  1.20100000E+01  1.20100000E+01  1.20100000E+01
  1.20100000E+01  1.20100000E+01  1.00800000E+00  1.00800000E+00  1.00800000E+00
  1.00800000E+00  1.00800000E+00  1.00800000E+00  1.00800000E+00  1.00800000E+00
  1.00800000E+00  1.00800000E+00  1.00800000E+00  1.00800000E+00  1.00800000E+00
  1.00800000E+00  1.00800000E+00  1.00800000E+00  1.00800000E+00  1.00800000E+00
  1.60000000E+01  1.20100000E+01  1.20100000E+01  1.20100000E+01  1.20100000E+01
  1.00800000E+00  1.00800000E+00  1.00800000E+00  1.20100000E+01  1.00800000E+00
  1.20100000E+01  1.00800000E+00  1.20100000E+01  1.00800000E+00  1.00800000E+00
  1.40100000E+01  1.20100000E+01  1.20100000E+01  1.20100000E+01  1.20100000E+01
  1.20100000E+01  1.20100000E+01  1.20100000E+01  1.00800000E+00  1.20100000E+01
  1.00800000E+00  1.20100000E+01  1.00800000E+00  1.20100000E+01  1.00800000E+00
  1.20100000E+01  1.20100000E+01  1.00800000E+00  1.20100000E+01  1.00800000E+00
  1.00800000E+00  1.20100000E+01  1.20100000E+01  1.20100000E+01  1.20100000E+01
  1.60000000E+01  1.20100000E+01  1.20100000E+01  1.20100000E+01  1.20100000E+01
  1.20100000E+01  1.20100000E+01  1.20100000E+01  1.20100000E+01  1.00800000E+00
  1.20100000E+01  1.00800000E+00  1.20100000E+01  1.00800000E+00  1.20100000E+01
  1.00800000E+00  1.20100000E+01  1.20100000E+01  1.00800000E+00  1.00800000E+00
  1.00800000E+00  1.00800000E+00  1.40100000E+01  1.40100000E+01  1.20100000E+01
  1.00800000E+00  1.40100000E+01  1.20100000E+01  1.00800000E+00  1.20100000E+01
  1.20100000E+01  1.20100000E+01  1.20100000E+01  1.00800000E+00  1.20100000E+01
  1.20100000E+01  1.00800000E+00  1.20100000E+01  1.20100000E+01  1.20100000E+01
  1.20100000E+01  1.20100000E+01  1.20100000E+01  1.20100000E+01  1.20100000E+01
  1.20100000E+01  1.20100000E+01  1.20100000E+01  1.20100000E+01  1.20100000E+01
  1.00800000E+00  1.20100000E+01  1.00800000E+00  1.00800000E+00  1.20100000E+01
  1.00800000E+00  1.20100000E+01  1.20100000E+01  1.00800000E+00  1.20100000E+01
  1.00800000E+00  1.20100000E+01  1.00800000E+00  1.20100000E+01  1.00800000E+00
  1.20100000E+01  1.00800000E+00  1.20100000E+01  1.00800000E+00  1.20100000E+01
  1.00800000E+00  1.20100000E+01  1.00800000E+00  1.20100000E+01  1.00800000E+00
  1.00800000E+00  1.20100000E+01  1.00800000E+00  1.00800000E+00  1.00800000E+00
  1.20100000E+01  1.00800000E+00  1.20100000E+01  1.00800000E+00  1.00800000E+00
  1.20100000E+01  1.00800000E+00  1.00800000E+00  1.20100000E+01  1.00800000E+00
  1.00800000E+00  1.60000000E+01  1.60000000E+01  1.60000000E+01  1.60000000E+01
  1.60000000E+01  1.60000000E+01  1.20100000E+01  1.20100000E+01  1.20100000E+01
  1.20100000E+01  1.20100000E+01  1.20100000E+01  1.00800000E+00  1.00800000E+00
  1.00800000E+00  1.00800000E+00  1.00800000E+00  1.00800000E+00  1.00800000E+00
  1.00800000E+00  1.00800000E+00  1.00800000E+00  1.00800000E+00  1.00800000E+00
  1.00800000E+00  1.00800000E+00  1.00800000E+00  1.00800000E+00  1.00800000E+00
  1.00800000E+00  1.60000000E+01  1.20100000E+01  1.20100000E+01  1.20100000E+01
  1.20100000E+01  1.00800000E+00  1.00800000E+00  1.00800000E+00  1.20100000E+01
  1.00800000E+00  1.20100000E+01  1.00800000E+00  1.20100000E+01  1.00800000E+00
  1.00800000E+00  1.40100000E+01  1.20100000E+01  1.20100000E+01  1.20100000E+01
  1.20100000E+01  1.20100000E+01  1.20100000E+01  1.20100000E+01  1.00800000E+00
  1.20100000E+01  1.00800000E+00  1.20100000E+01  1.00800000E+00  1.20100000E+01
  1.00800000E+00  1.20100000E+01  1.20100000E+01  1.00800000E+00  1.20100000E+01
  1.00800000E+00  1.00800000E+00  1.20100000E+01  1.20100000E+01  1.20100000E+01
  1.20100000E+01  1.60000000E+01  1.20100000E+01  1.20100000E+01  1.20100000E+01
  1.20100000E+01  1.20100000E+01  1.20100000E+01  1.20100000E+01  1.20100000E+01
  1.00800000E+00  1.20100000E+01  1.00800000E+00  1.20100000E+01  1.00800000E+00
  1.20100000E+01  1.00800000E+00  1.20100000E+01  1.20100000E+01  1.00800000E+00
  1.00800000E+00  1.00800000E+00  1.00800000E+00  1.40100000E+01  1.40100000E+01
  1.20100000E+01  1.00800000E+00  1.40100000E+01  1.20100000E+01  1.00800000E+00
  1.20100000E+01  1.20100000E+01  1.20100000E+01  1.20100000E+01  1.00800000E+00
  1.20100000E+01  1.20100000E+01  1.00800000E+00  1.20100000E+01  1.20100000E+01
  1.20100000E+01  1.20100000E+01  1.20100000E+01  1.20100000E+01  1.20100000E+01
  1.20100000E+01  1.20100000E+01  1.20100000E+01  1.20100000E+01  1.20100000E+01
  1.20100000E+01  1.00800000E+00  1.20100000E+01  1.00800000E+00  1.00800000E+00
  1.20100000E+01  1.00800000E+00  1.20100000E+01  1.20100000E+01  1.00800000E+00
  1.20100000E+01  1.00800000E+00  1.20100000E+01  1.00800000E+00  1.20100000E+01
  1.00800000E+00  1.20100000E+01  1.00800000E+00  1.20100000E+01  1.00800000E+00
  1.20100000E+01  1.00800000E+00  1.20100000E+01  1.00800000E+00  1.20100000E+01
  1.00800000E+00  1.00800000E+00  1.20100000E+01  1.00800000E+00  1.00800000E+00
  1.00800000E+00  1.20100000E+01  1.00800000E+00  1.20100000E+01  1.00800000E+00
  1.00800000E+00  1.20100000E+01  1.00800000E+00  1.00800000E+00  1.20100000E+01
  1.00800000E+00  1.00800000E+00  1.60000000E+01  1.60000000E+01  1.60000000E+01
  1.60000000E+01  1.60000000E+01  1.60000000E+01  1.20100000E+01  1.20100000E+01
  1.20100000E+01  1.20100000E+01  1.20100000E+01  1.20100000E+01  1.00800000E+00
  1.00800000E+00  1.00800000E+00  1.00800000E+00  1.00800000E+00  1.00800000E+00
  1.00800000E+00  1.00800000E+00  1.00800000E+00  1.00800000E+00  1.00800000E+00
  1.00800000E+00  1.00800000E+00  1.00800000E+00  1.00800000E+00  1.00800000E+00
  1.00800000E+00  1.00800000E+00  1.60000000E+01  1.20100000E+01  1.20100000E+01
  1.20100000E+01  1.20100000E+01  1.00800000E+00  1.00800000E+00  1.00800000E+00
  1.20100000E+01  1.00800000E+00  1.20100000E+01  1.00800000E+00  1.20100000E+01
  1.00800000E+00  1.00800000E+00  1.40100000E+01  1.20100000E+01  1.20100000E+01
  1.20100000E+01  1.20100000E+01  1.20100000E+01  1.20100000E+01  1.20100000E+01
  1.00800000E+00  1.20100000E+01  1.00800000E+00  1.20100000E+01  1.00800000E+00
  1.20100000E+01  1.00800000E+00  1.20100000E+01  1.20100000E+01  1.00800000E+00
  1.20100000E+01  1.00800000E+00  1.00800000E+00  1.20100000E+01  1.20100000E+01
  1.20100000E+01  1.20100000E+01  1.60000000E+01  1.20100000E+01  1.20100000E+01
  1.20100000E+01  1.20100000E+01  1.20100000E+01  1.20100000E+01  1.20100000E+01
  1.20100000E+01  1.00800000E+00  1.20100000E+01  1.00800000E+00  1.20100000E+01
  1.00800000E+00  1.20100000E+01  1.00800000E+00  1.20100000E+01  1.20100000E+01
  1.00800000E+00  1.00800000E+00  1.00800000E+00  1.00800000E+00  1.40100000E+01
  1.40100000E+01  1.20100000E+01  1.00800000E+00  1.40100000E+01  1.20100000E+01
  1.00800000E+00  1.20100000E+01  1.20100000E+01  1.20100000E+01  1.20100000E+01
  1.00800000E+00  1.20100000E+01  1.20100000E+01  1.00800000E+00  1.20100000E+01
  1.20100000E+01  1.20100000E+01  1.20100000E+01  1.20100000E+01  1.20100000E+01
  1.20100000E+01  1.20100000E+01  1.20100000E+01  1.20100000E+01  1.20100000E+01
  1.20100000E+01  1.20100000E+01  1.00800000E+00  1.20100000E+01  1.00800000E+00
  1.00800000E+00  1.20100000E+01  1.00800000E+00  1.20100000E+01  1.20100000E+01
  1.00800000E+00  1.20100000E+01  1.00800000E+00  1.20100000E+01  1.00800000E+00
  1.20100000E+01  1.00800000E+00  1.20100000E+01  1.00800000E+00  1.20100000E+01
  1.00800000E+00  1.20100000E+01  1.00800000E+00  1.20100000E+01  1.00800000E+00
  1.20100000E+01  1.00800000E+00  1.00800000E+00  1.20100000E+01  1.00800000E+00
  1.00800000E+00  1.00800000E+00  1.20100000E+01  1.00800000E+00  1.20100000E+01
  1.00800000E+00  1.00800000E+00  1.20100000E+01  1.00800000E+00  1.00800000E+00
  1.20100000E+01  1.00800000E+00  1.00800000E+00  1.60000000E+01  1.60000000E+01
  1.60000000E+01  1.60000000E+01  1.60000000E+01  1.60000000E+01  1.20100000E+01
  1.20100000E+01  1.20100000E+01  1.20100000E+01  1.20100000E+01  1.20100000E+01
  1.00800000E+00  1.00800000E+00  1.00800000E+00  1.00800000E+00  1.00800000E+00
  1.00800000E+00  1.00800000E+00  1.00800000E+00  1.00800000E+00  1.00800000E+00
  1.00800000E+00  1.00800000E+00  1.00800000E+00  1.00800000E+00  1.00800000E+00
  1.00800000E+00  1.00800000E+00  1.00800000E+00  1.60000000E+01  1.20100000E+01
  1.20100000E+01  1.20100000E+01  1.20100000E+01  1.00800000E+00  1.00800000E+00
  1.00800000E+00  1.20100000E+01  1.00800000E+00  1.20100000E+01  1.00800000E+00
  1.20100000E+01  1.00800000E+00  1.00800000E+00  1.40100000E+01  1.20100000E+01
  1.20100000E+01  1.20100000E+01  1.20100000E+01  1.20100000E+01  1.20100000E+01
  1.20100000E+01  1.00800000E+00  1.20100000E+01  1.00800000E+00  1.20100000E+01
  1.00800000E+00  1.20100000E+01  1.00800000E+00  1.20100000E+01  1.20100000E+01
  1.00800000E+00  1.20100000E+01  1.00800000E+00  1.00800000E+00  1.20100000E+01
  1.20100000E+01  1.20100000E+01  1.20100000E+01  1.60000000E+01  1.20100000E+01
  1.20100000E+01  1.20100000E+01  1.20100000E+01  1.20100000E+01  1.20100000E+01
  1.20100000E+01  1.20100000E+01  1.00800000E+00  1.20100000E+01  1.00800000E+00
  1.20100000E+01  1.00800000E+00  1.20100000E+01  1.00800000E+00  1.20100000E+01
  1.20100000E+01  1.00800000E+00  1.00800000E+00  1.00800000E+00  1.00800000E+00
  1.40100000E+01  1.40100000E+01  1.20100000E+01  1.00800000E+00  1.40100000E+01
  1.20100000E+01  1.00800000E+00  1.20100000E+01  1.20100000E+01  1.20100000E+01
  1.20100000E+01  1.00800000E+00  1.20100000E+01  1.20100000E+01  1.00800000E+00
  1.20100000E+01  1.20100000E+01  1.20100000E+01  1.20100000E+01  1.20100000E+01
  1.20100000E+01  1.20100000E+01  1.20100000E+01  1.20100000E+01  1.20100000E+01
  1.20100000E+01  1.20100000E+01  1.20100000E+01  1.00800000E+00  1.20100000E+01
  1.00800000E+00  1.00800000E+00  1.20100000E+01  1.00800000E+00  1.20100000E+01
  1.20100000E+01  1.00800000E+00  1.20100000E+01  1.00800000E+00  1.20100000E+01
  1.00800000E+00  1.20100000E+01  1.00800000E+00  1.20100000E+01  1.00800000E+00
  1.20100000E+01  1.00800000E+00  1.20100000E+01  1.00800000E+00  1.20100000E+01
  1.00800000E+00  1.20100000E+01  1.00800000E+00  1.00800000E+00  1.20100000E+01
  1.00800000E+00  1.00800000E+00  1.00800000E+00  1.20100000E+01  1.00800000E+00
  1.20100000E+01  1.00800000E+00  1.00800000E+00  1.20100000E+01  1.00800000E+00
  1.00800000E+00  1.20100000E+01  1.00800000E+00  1.00800000E+00  1.60000000E+01
  1.60000000E+01  1.60000000E+01  1.60000000E+01  1.60000000E+01  1.60000000E+01
  1.20100000E+01  1.20100000E+01  1.20100000E+01  1.20100000E+01  1.20100000E+01
  1.20100000E+01  1.00800000E+00  1.00800000E+00  1.00800000E+00  1.00800000E+00
  1.00800000E+00  1.00800000E+00  1.00800000E+00  1.00800000E+00  1.00800000E+00
  1.00800000E+00  1.00800000E+00  1.00800000E+00  1.00800000E+00  1.00800000E+00
  1.00800000E+00  1.00800000E+00  1.00800000E+00  1.00800000E+00  1.60000000E+01
  1.20100000E+01  1.20100000E+01  1.20100000E+01  1.20100000E+01  1.00800000E+00
  1.00800000E+00  1.00800000E+00  1.20100000E+01  1.00800000E+00  1.20100000E+01
  1.00800000E+00  1.20100000E+01  1.00800000E+00  1.00800000E+00  1.40100000E+01
  1.20100000E+01  1.20100000E+01  1.20100000E+01  1.20100000E+01  1.20100000E+01
  1.20100000E+01  1.20100000E+01  1.00800000E+00  1.20100000E+01  1.00800000E+00
  1.20100000E+01  1.00800000E+00  1.20100000E+01  1.00800000E+00  1.20100000E+01
  1.20100000E+01  1.00800000E+00  1.20100000E+01  1.00800000E+00  1.00800000E+00
  1.20100000E+01  1.20100000E+01  1.20100000E+01  1.20100000E+01  1.60000000E+01
  1.20100000E+01  1.20100000E+01  1.20100000E+01  1.20100000E+01  1.20100000E+01
  1.20100000E+01  1.20100000E+01  1.20100000E+01  1.00800000E+00  1.20100000E+01
  1.00800000E+00  1.20100000E+01  1.00800000E+00  1.20100000E+01  1.00800000E+00
  1.20100000E+01  1.20100000E+01  1.00800000E+00  1.00800000E+00  1.00800000E+00
  1.00800000E+00  1.40100000E+01  1.40100000E+01  1.20100000E+01  1.00800000E+00
  1.40100000E+01  1.20100000E+01  1.00800000E+00  1.20100000E+01  1.20100000E+01
  1.20100000E+01  1.20100000E+01  1.00800000E+00  1.20100000E+01  1.20100000E+01
  1.00800000E+00  1.20100000E+01  1.20100000E+01  1.20100000E+01  1.20100000E+01
  1.20100000E+01  1.20100000E+01  1.20100000E+01  1.20100000E+01  1.20100000E+01
  1.20100000E+01  1.20100000E+01  1.20100000E+01  1.20100000E+01  1.00800000E+00
  1.20100000E+01  1.00800000E+00  1.00800000E+00  1.20100000E+01  1.00800000E+00
  1.20100000E+01  1.20100000E+01  1.00800000E+00  1.20100000E+01  1.00800000E+00
  1.20100000E+01  1.00800000E+00  1.20100000E+01  1.00800000E+00  1.20100000E+01
  1.00800000E+00  1.20100000E+01  1.00800000E+00  1.20100000E+01  1.00800000E+00
  1.20100000E+01  1.00800000E+00  1.20100000E+01  1.00800000E+00  1.00800000E+00
  1.20100000E+01  1.00800000E+00  1.00800000E+00  1.00800000E+00  1.20100000E+01
  1.00800000E+00  1.20100000E+01  1.00800000E+00  1.00800000E+00  1.20100000E+01
  1.00800000E+00  1.00800000E+00  1.20100000E+01  1.00800000E+00  1.00800000E+00
  1.60000000E+01  1.60000000E+01  1.60000000E+01  1.60000000E+01  1.60000000E+01
  1.60000000E+01  1.20100000E+01  1.20100000E+01  1.20100000E+01  1.20100000E+01
  1.20100000E+01  1.20100000E+01  1.00800000E+00  1.00800000E+00  1.00800000E+00
  1.00800000E+00  1.00800000E+00  1.00800000E+00  1.00800000E+00  1.00800000E+00
  1.00800000E+00  1.00800000E+00  1.00800000E+00  1.00800000E+00  1.00800000E+00
  1.00800000E+00  1.00800000E+00  1.00800000E+00  1.00800000E+00  1.00800000E+00
  1.60000000E+01  1.20100000E+01  1.20100000E+01  1.20100000E+01  1.20100000E+01
  1.00800000E+00  1.00800000E+00  1.00800000E+00  1.20100000E+01  1.00800000E+00
  1.20100000E+01  1.00800000E+00  1.20100000E+01  1.00800000E+00  1.00800000E+00
  1.40100000E+01  1.20100000E+01  1.20100000E+01  1.20100000E+01  1.20100000E+01
  1.20100000E+01  1.20100000E+01  1.20100000E+01  1.00800000E+00  1.20100000E+01
  1.00800000E+00  1.20100000E+01  1.00800000E+00  1.20100000E+01  1.00800000E+00
  1.20100000E+01  1.20100000E+01  1.00800000E+00  1.20100000E+01  1.00800000E+00
  1.00800000E+00  1.20100000E+01  1.20100000E+01  1.20100000E+01  1.20100000E+01
  1.60000000E+01  1.20100000E+01  1.20100000E+01  1.20100000E+01  1.20100000E+01
  1.20100000E+01  1.20100000E+01  1.20100000E+01  1.20100000E+01  1.00800000E+00
  1.20100000E+01  1.00800000E+00  1.20100000E+01  1.00800000E+00  1.20100000E+01
  1.00800000E+00  1.20100000E+01  1.20100000E+01  1.00800000E+00  1.00800000E+00
  1.00800000E+00  1.00800000E+00  1.40100000E+01  1.40100000E+01  1.20100000E+01
  1.00800000E+00  1.40100000E+01  1.20100000E+01  1.00800000E+00  1.20100000E+01
  1.20100000E+01  1.20100000E+01  1.20100000E+01  1.00800000E+00  1.20100000E+01
  1.20100000E+01  1.00800000E+00  1.20100000E+01  1.20100000E+01  1.20100000E+01
  1.20100000E+01  1.20100000E+01  1.20100000E+01  1.20100000E+01  1.20100000E+01
  1.20100000E+01  1.20100000E+01  1.20100000E+01  1.20100000E+01  1.20100000E+01
  1.00800000E+00  1.20100000E+01  1.00800000E+00  1.00800000E+00  1.20100000E+01
  1.00800000E+00  1.20100000E+01  1.20100000E+01  1.00800000E+00  1.20100000E+01
  1.00800000E+00  1.20100000E+01  1.00800000E+00  1.20100000E+01  1.00800000E+00
  1.20100000E+01  1.00800000E+00  1.20100000E+01  1.00800000E+00  1.20100000E+01
  1.00800000E+00  1.20100000E+01  1.00800000E+00  1.20100000E+01  1.00800000E+00
  1.00800000E+00  1.20100000E+01  1.00800000E+00  1.00800000E+00  1.00800000E+00
  1.20100000E+01  1.00800000E+00  1.20100000E+01  1.00800000E+00  1.00800000E+00
  1.20100000E+01  1.00800000E+00  1.00800000E+00  1.20100000E+01  1.00800000E+00
  1.00800000E+00  1.60000000E+01  1.60000000E+01  1.60000000E+01  1.60000000E+01
  1.60000000E+01  1.60000000E+01  1.20100000E+01  1.20100000E+01  1.20100000E+01
  1.20100000E+01  1.20100000E+01  1.20100000E+01  1.00800000E+00  1.00800000E+00
  1.00800000E+00  1.00800000E+00  1.00800000E+00  1.00800000E+00  1.00800000E+00
  1.00800000E+00  1.00800000E+00  1.00800000E+00  1.00800000E+00  1.00800000E+00
  1.00800000E+00  1.00800000E+00  1.00800000E+00  1.00800000E+00  1.00800000E+00
  1.00800000E+00  1.60000000E+01  1.20100000E+01  1.20100000E+01  1.20100000E+01
  1.20100000E+01  1.00800000E+00  1.00800000E+00  1.00800000E+00  1.20100000E+01
  1.00800000E+00  1.20100000E+01  1.00800000E+00  1.20100000E+01  1.00800000E+00
  1.00800000E+00  1.40100000E+01  1.20100000E+01  1.20100000E+01  1.20100000E+01
  1.20100000E+01  1.20100000E+01  1.20100000E+01  1.20100000E+01  1.00800000E+00
  1.20100000E+01  1.00800000E+00  1.20100000E+01  1.00800000E+00  1.20100000E+01
  1.00800000E+00  1.20100000E+01  1.20100000E+01  1.00800000E+00  1.20100000E+01
  1.00800000E+00  1.00800000E+00  1.20100000E+01  1.20100000E+01  1.20100000E+01
  1.20100000E+01  1.60000000E+01  1.20100000E+01  1.20100000E+01  1.20100000E+01
  1.20100000E+01  1.20100000E+01  1.20100000E+01  1.20100000E+01  1.20100000E+01
  1.00800000E+00  1.20100000E+01  1.00800000E+00  1.20100000E+01  1.00800000E+00
  1.20100000E+01  1.00800000E+00  1.20100000E+01  1.20100000E+01  1.00800000E+00
  1.00800000E+00  1.00800000E+00  1.00800000E+00  1.40100000E+01  1.40100000E+01
  1.20100000E+01  1.00800000E+00  1.40100000E+01  1.20100000E+01  1.00800000E+00
  1.20100000E+01  1.20100000E+01  1.20100000E+01  1.20100000E+01  1.00800000E+00
  1.20100000E+01  1.20100000E+01  1.00800000E+00  1.20100000E+01  1.20100000E+01
  1.20100000E+01  1.20100000E+01  1.20100000E+01  1.20100000E+01  1.20100000E+01
  1.20100000E+01  1.20100000E+01  1.20100000E+01  1.20100000E+01  1.20100000E+01
  1.20100000E+01  1.00800000E+00  1.20100000E+01  1.00800000E+00  1.00800000E+00
  1.20100000E+01  1.00800000E+00  1.20100000E+01  1.20100000E+01  1.00800000E+00
  1.20100000E+01  1.00800000E+00  1.20100000E+01  1.00800000E+00  1.20100000E+01
  1.00800000E+00  1.20100000E+01  1.00800000E+00  1.20100000E+01  1.00800000E+00
  1.20100000E+01  1.00800000E+00  1.20100000E+01  1.00800000E+00  1.20100000E+01
  1.00800000E+00  1.00800000E+00  1.20100000E+01  1.00800000E+00  1.00800000E+00
  1.00800000E+00  1.20100000E+01  1.00800000E+00  1.20100000E+01  1.00800000E+00
  1.00800000E+00  1.20100000E+01  1.00800000E+00  1.00800000E+00  1.20100000E+01
  1.00800000E+00  1.00800000E+00  1.60000000E+01  1.60000000E+01  1.60000000E+01
  1.60000000E+01  1.60000000E+01  1.60000000E+01  1.20100000E+01  1.20100000E+01
  1.20100000E+01  1.20100000E+01  1.20100000E+01  1.20100000E+01  1.00800000E+00
  1.00800000E+00  1.00800000E+00  1.00800000E+00  1.00800000E+00  1.00800000E+00
  1.00800000E+00  1.00800000E+00  1.00800000E+00  1.00800000E+00  1.00800000E+00
  1.00800000E+00  1.00800000E+00  1.00800000E+00  1.00800000E+00  1.00800000E+00
  1.00800000E+00  1.00800000E+00  1.60000000E+01  1.20100000E+01  1.20100000E+01
  1.20100000E+01  1.20100000E+01  1.00800000E+00  1.00800000E+00  1.00800000E+00
  1.20100000E+01  1.00800000E+00  1.20100000E+01  1.00800000E+00  1.20100000E+01
  1.00800000E+00  1.00800000E+00  1.40100000E+01  1.20100000E+01  1.20100000E+01
  1.20100000E+01  1.20100000E+01  1.20100000E+01  1.20100000E+01  1.20100000E+01
  1.00800000E+00  1.20100000E+01  1.00800000E+00  1.20100000E+01  1.00800000E+00
  1.20100000E+01  1.00800000E+00  1.20100000E+01  1.20100000E+01  1.00800000E+00
  1.20100000E+01  1.00800000E+00  1.00800000E+00  1.20100000E+01  1.20100000E+01
  1.20100000E+01  1.20100000E+01  1.60000000E+01  1.20100000E+01  1.20100000E+01
  1.20100000E+01  1.20100000E+01  1.20100000E+01  1.20100000E+01  1.20100000E+01
  1.20100000E+01  1.00800000E+00  1.20100000E+01  1.00800000E+00  1.20100000E+01
  1.00800000E+00  1.20100000E+01  1.00800000E+00  1.20100000E+01  1.20100000E+01
  1.00800000E+00  1.00800000E+00  1.00800000E+00  1.00800000E+00  1.40100000E+01
  1.40100000E+01  1.20100000E+01  1.00800000E+00  1.40100000E+01  1.20100000E+01
  1.00800000E+00  1.20100000E+01  1.20100000E+01  1.20100000E+01  1.20100000E+01
  1.00800000E+00  1.20100000E+01  1.20100000E+01  1.00800000E+00  1.20100000E+01
  1.20100000E+01  1.20100000E+01  1.20100000E+01  1.20100000E+01  1.20100000E+01
  1.20100000E+01  1.20100000E+01  1.20100000E+01  1.20100000E+01  1.20100000E+01
  1.20100000E+01  1.20100000E+01  1.00800000E+00  1.20100000E+01  1.00800000E+00
  1.00800000E+00  1.20100000E+01  1.00800000E+00  1.20100000E+01  1.20100000E+01
  1.00800000E+00  1.20100000E+01  1.00800000E+00  1.20100000E+01  1.00800000E+00
  1.20100000E+01  1.00800000E+00  1.20100000E+01  1.00800000E+00  1.20100000E+01
  1.00800000E+00  1.20100000E+01  1.00800000E+00  1.20100000E+01  1.00800000E+00
  1.20100000E+01  1.00800000E+00  1.00800000E+00  1.20100000E+01  1.00800000E+00
  1.00800000E+00  1.00800000E+00  1.20100000E+01  1.00800000E+00  1.20100000E+01
  1.00800000E+00  1.00800000E+00  1.20100000E+01  1.00800000E+00  1.00800000E+00
  1.20100000E+01  1.00800000E+00  1.00800000E+00  1.60000000E+01  1.60000000E+01
  1.60000000E+01  1.60000000E+01  1.60000000E+01  1.60000000E+01  1.20100000E+01
  1.20100000E+01  1.20100000E+01  1.20100000E+01  1.20100000E+01  1.20100000E+01
  1.00800000E+00  1.00800000E+00  1.00800000E+00  1.00800000E+00  1.00800000E+00
  1.00800000E+00  1.00800000E+00  1.00800000E+00  1.00800000E+00  1.00800000E+00
  1.00800000E+00  1.00800000E+00  1.00800000E+00  1.00800000E+00  1.00800000E+00
  1.00800000E+00  1.00800000E+00  1.00800000E+00  1.60000000E+01  1.20100000E+01
  1.20100000E+01  1.20100000E+01  1.20100000E+01  1.00800000E+00  1.00800000E+00
  1.00800000E+00  1.20100000E+01  1.00800000E+00  1.20100000E+01  1.00800000E+00
  1.20100000E+01  1.00800000E+00  1.00800000E+00  1.40100000E+01  1.20100000E+01
  1.20100000E+01  1.20100000E+01  1.20100000E+01  1.20100000E+01  1.20100000E+01
  1.20100000E+01  1.00800000E+00  1.20100000E+01  1.00800000E+00  1.20100000E+01
  1.00800000E+00  1.20100000E+01  1.00800000E+00  1.20100000E+01  1.20100000E+01
  1.00800000E+00  1.20100000E+01  1.00800000E+00  1.00800000E+00  1.20100000E+01
  1.20100000E+01  1.20100000E+01  1.20100000E+01  1.60000000E+01  1.20100000E+01
  1.20100000E+01  1.20100000E+01  1.20100000E+01  1.20100000E+01  1.20100000E+01
  1.20100000E+01  1.20100000E+01  1.00800000E+00  1.20100000E+01  1.00800000E+00
  1.20100000E+01  1.00800000E+00  1.20100000E+01  1.00800000E+00  1.20100000E+01
  1.20100000E+01  1.00800000E+00  1.00800000E+00  1.00800000E+00  1.00800000E+00
  1.40100000E+01  1.40100000E+01  1.20100000E+01  1.00800000E+00  1.40100000E+01
  1.20100000E+01  1.00800000E+00  1.20100000E+01  1.20100000E+01  1.20100000E+01
  1.20100000E+01  1.00800000E+00  1.20100000E+01  1.20100000E+01  1.00800000E+00
  1.20100000E+01  1.20100000E+01  1.20100000E+01  1.20100000E+01  1.20100000E+01
  1.20100000E+01  1.20100000E+01  1.20100000E+01  1.20100000E+01  1.20100000E+01
  1.20100000E+01  1.20100000E+01  1.20100000E+01  1.00800000E+00  1.20100000E+01
  1.00800000E+00  1.00800000E+00  1.20100000E+01  1.00800000E+00  1.20100000E+01
  1.20100000E+01  1.00800000E+00  1.20100000E+01  1.00800000E+00  1.20100000E+01
  1.00800000E+00  1.20100000E+01  1.00800000E+00  1.20100000E+01  1.00800000E+00
  1.20100000E+01  1.00800000E+00  1.20100000E+01  1.00800000E+00  1.20100000E+01
  1.00800000E+00  1.20100000E+01  1.00800000E+00  1.00800000E+00  1.20100000E+01
  1.00800000E+00  1.00800000E+00  1.00800000E+00  1.20100000E+01  1.00800000E+00
  1.20100000E+01  1.00800000E+00  1.00800000E+00  1.20100000E+01  1.00800000E+00
  1.00800000E+00  1.20100000E+01  1.00800000E+00  1.00800000E+00  1.60000000E+01
  1.60000000E+01  1.60000000E+01  1.60000000E+01  1.60000000E+01  1.60000000E+01
  1.20100000E+01  1.20100000E+01  1.20100000E+01  1.20100000E+01  1.20100000E+01
  1.20100000E+01  1.00800000E+00  1.00800000E+00  1.00800000E+00  1.00800000E+00
  1.00800000E+00  1.00800000E+00  1.00800000E+00  1.00800000E+00  1.00800000E+00
  1.00800000E+00  1.00800000E+00  1.00800000E+00  1.00800000E+00  1.00800000E+00
  1.00800000E+00  1.00800000E+00  1.00800000E+00  1.00800000E+00  1.60000000E+01
  1.20100000E+01  1.20100000E+01  1.20100000E+01  1.20100000E+01  1.00800000E+00
  1.00800000E+00  1.00800000E+00  1.20100000E+01  1.00800000E+00  1.20100000E+01
  1.00800000E+00  1.20100000E+01  1.00800000E+00  1.00800000E+00  1.40100000E+01
  1.20100000E+01  1.20100000E+01  1.20100000E+01  1.20100000E+01  1.20100000E+01
  1.20100000E+01  1.20100000E+01  1.00800000E+00  1.20100000E+01  1.00800000E+00
  1.20100000E+01  1.00800000E+00  1.20100000E+01  1.00800000E+00  1.20100000E+01
  1.20100000E+01  1.00800000E+00  1.20100000E+01  1.00800000E+00  1.00800000E+00
  1.20100000E+01  1.20100000E+01  1.20100000E+01  1.20100000E+01  1.60000000E+01
  1.20100000E+01  1.20100000E+01  1.20100000E+01  1.20100000E+01  1.20100000E+01
  1.20100000E+01  1.20100000E+01  1.20100000E+01  1.00800000E+00  1.20100000E+01
  1.00800000E+00  1.20100000E+01  1.00800000E+00  1.20100000E+01  1.00800000E+00
  1.20100000E+01  1.20100000E+01  1.00800000E+00  1.00800000E+00  1.00800000E+00
  1.00800000E+00  1.40100000E+01  1.40100000E+01  1.20100000E+01  1.00800000E+00
  1.40100000E+01  1.20100000E+01  1.00800000E+00  1.20100000E+01  1.20100000E+01
  1.20100000E+01  1.20100000E+01  1.00800000E+00  1.20100000E+01  1.20100000E+01
  1.00800000E+00  1.20100000E+01  1.20100000E+01  1.20100000E+01  1.20100000E+01
  1.20100000E+01  1.20100000E+01  1.20100000E+01  1.20100000E+01  1.20100000E+01
  1.20100000E+01  1.20100000E+01  1.20100000E+01  1.20100000E+01  1.00800000E+00
  1.20100000E+01  1.00800000E+00  1.00800000E+00  1.20100000E+01  1.00800000E+00
  1.20100000E+01  1.20100000E+01  1.00800000E+00  1.20100000E+01  1.00800000E+00
  1.20100000E+01  1.00800000E+00  1.20100000E+01  1.00800000E+00  1.20100000E+01
  1.00800000E+00  1.20100000E+01  1.00800000E+00  1.20100000E+01  1.00800000E+00
  1.20100000E+01  1.00800000E+00  1.20100000E+01  1.00800000E+00  1.00800000E+00
  1.20100000E+01  1.00800000E+00  1.00800000E+00  1.00800000E+00  1.20100000E+01
  1.00800000E+00  1.20100000E+01  1.00800000E+00  1.00800000E+00  1.20100000E+01
  1.00800000E+00  1.00800000E+00  1.20100000E+01  1.00800000E+00  1.00800000E+00
  1.60000000E+01  1.60000000E+01  1.60000000E+01  1.60000000E+01  1.60000000E+01
  1.60000000E+01  1.20100000E+01  1.20100000E+01  1.20100000E+01  1.20100000E+01
  1.20100000E+01  1.20100000E+01  1.00800000E+00  1.00800000E+00  1.00800000E+00
  1.00800000E+00  1.00800000E+00  1.00800000E+00  1.00800000E+00  1.00800000E+00
  1.00800000E+00  1.00800000E+00  1.00800000E+00  1.00800000E+00  1.00800000E+00
  1.00800000E+00  1.00800000E+00  1.00800000E+00  1.00800000E+00  1.00800000E+00
%FLAG ATOM_TYPE_INDEX                                                           
%FORMAT(10I8)                                                                   
       1       2       3       2       2       4       4       4       2       5
       2       5       2       5       5       6       2       2       2       2
       2       2       2       5       2       5       2       5       2       5
       2       3       5       2       5       5       2       2       2       2
       1       2       2       2       2       2       2       3       2       5
       2       5       2       5       2       5       2       2       4       4
       4       5       6       6       2       5       6       2       5       2
       2       2       2       5       2       2       5       2       2       2
       2       2       2       2       2       2       2       2       2       2
       5       2       5       5       2       5       2       2       5       2
       5       2       5       2       5       2       5       2       5       2
       5       2       5       2       5       5       2       5       5       5
       2       5       2       5       5       2       5       5       2       5
       5       1       1       1       1       1       1       3       3       3
       3       3       3       4       4       4       4       4       4       4
       4       4       4       4       4       4       4       4       4       4
       4       1       2       3       2       2       4       4       4       2
       5       2       5       2       5       5       6       2       2       2
       2       2       2       2       5       2       5       2       5       2
       5       2       3       5       2       5       5       2       2       2
       2       1       2       2       2       2       2       2       3       2
       5       2       5       2       5       2       5       2       2       4
       4       4       5       6       6       2       5       6       2       5
       2       2       2       2       5       2       2       5       2       2
       2       2       2       2       2       2       2       2       2       2
       2       5       2       5       5       2       5       2       2       5
       2       5       2       5       2       5       2       5       2       5
       2       5       2       5       2       5       5       2       5       5
       5       2       5       2       5       5       2       5       5       2
       5       5       1       1       1       1       1       1       3       3
       3       3       3       3       4       4       4       4       4       4
       4       4       4       4       4       4       4       4       4       4
       4       4       1       2       3       2       2       4       4       4
       2       5       2       5       2       5       5       6       2       2
       2       2       2       2       2       5       2       5       2       5
       2       5       2       3       5       2       5       5       2       2
       2       2       1       2       2       2       2       2       2       3
       2       5       2       5       2       5       2       5       2       2
       4       4       4       5       6       6       2       5       6       2
       5       2       2       2       2       5       2       2       5       2
       2       2       2       2       2       2       2       2       2       2
       2       2       5       2       5       5       2       5       2       2
       5       2       5       2       5       2       5       2       5       2
       5       2       5       2       5       2       5       5       2       5
       5       5       2       5       2       5       5       2       5       5
       2       5       5       1       1       1       1       1       1       3
       3       3       3       3       3       4       4       4       4       4
       4       4       4       4       4       4       4       4       4       4
       4       4       4       1       2       3       2       2       4       4
       4       2       5       2       5       2       5       5       6       2
       2       2       2       2       2       2       5       2       5       2
       5       2       5       2       3       5       2       5       5       2
       2       2       2       1       2       2       2       2       2       2
       3       2       5       2       5       2       5       2       5       2
       2       4       4       4       5       6       6       2       5       6
       2       5       2       2       2       2       5       2       2       5
       2       2       2       2       2       2       2       2       2       2
       2       2       2       5       2       5       5       2       5       2
       2       5       2       5       2       5       2       5       2       5
       2       5       2       5       2       5       2       5       5       2
       5       5       5       2       5       2       5       5       2       5
       5       2       5       5       1       1       1       1       1       1
       3       3       3       3       3       3       4       4       4       4
       4       4       4       4       4       4       4       4       4       4
       4       4       4       4       1       2       3       2       2       4
       4       4       2       5       2       5       2       5       5       6
       2       2       2       2       2       2       2       5       2       5
       2       5       2       5       2       3       5       2       5       5
       2       2       2       2       1       2       2       2       2       2
       2       3       2       5       2       5       2       5       2       5
       2       2       4       4       4       5       6       6       2       5
       6       2       5       2       2       2       2       5       2       2
       5       2       2       2       2       2       2       2       2       2
       2       2       2       2       5       2       5       5       2       5
       2       2       5       2       5       2       5       2       5       2
       5       2       5       2       5       2       5       2       5       5
       2       5       5       5       2       5       2       5       5       2
       5       5       2       5       5       1       1       1       1       1
       1       3       3       3       3       3       3       4       4       4
       4       4       4       4       4       4       4       4       4       4
       4       4       4       4       4       1       2       3       2       2
       4       4       4       2       5       2       5       2       5       5
       6       2       2       2       2       2       2       2       5       2
       5       2       5       2       5       2       3       5       2       5
       5       2       2       2       2       1       2       2       2       2
       2       2       3       2       5       2       5       2       5       2
       5       2       2       4       4       4       5       6       6       2
       5       6       2       5       2       2       2       2       5       2
       2       5       2       2       2       2       2       2       2       2
       2       2       2       2       2       5       2       5       5       2
       5       2       2       5       2       5       2       5       2       5
       2       5       2       5       2       5       2       5       2       5
       5       2       5       5       5       2       5       2       5       5
       2       5       5       2       5       5       1       1       1       1
       1       1       3       3       3       3       3       3       4       4
       4       4       4       4       4       4       4       4       4       4
       4       4       4       4       4       4       1       2       3       2
       2       4       4       4       2       5       2       5       2       5
       5       6       2       2       2       2       2       2       2       5
       2       5       2       5       2       5       2       3       5       2
       5       5       2       2       2       2       1       2       2       2
       2       2       2       3       2       5       2       5       2       5
       2       5       2       2       4       4       4       5       6       6
       2       5       6       2       5       2       2       2       2       5
       2       2       5       2       2       2       2       2       2       2
       2       2       2       2       2       2       5       2       5       5
       2       5       2       2       5       2       5       2       5       2
       5       2       5       2       5       2       5       2       5       2
       5       5       2       5       5       5       2       5       2       5
       5       2       5       5       2       5       5       1       1       1
       1       1       1       3       3       3       3       3       3       4
       4       4       4       4       4       4       4       4       4       4
       4       4       4       4       4       4       4       1       2       3
       2       2       4       4       4       2       5       2       5       2
       5       5       6       2       2       2       2       2       2       2
       5       2       5       2       5       2       5       2       3       5
       2       5       5       2       2       2       2       1       2       2
       2       2       2       2       3       2       5       2       5       2
       5       2       5       2       2       4       4       4       5       6
       6       2       5       6       2       5       2       2       2       2
       5       2       2       5       2       2       2       2       2       2
       2       2       2       2       2       2       2       5       2       5
       5       2       5       2       2       5       2       5       2       5
       2       5       2       5       2       5       2       5       2       5
       2       5       5       2       5       5       5       2       5       2
       5       5       2       5       5       2       5       5       1       1
       1       1       1       1       3       3       3       3       3       3
       4       4       4       4       4       4       4       4       4       4
       4       4       4       4       4       4       4       4       1       2
       3       2       2       4       4       4       2       5       2       5
       2       5       5       6       2       2       2       2       2       2
       2       5       2       5       2       5       2       5       2       3
       5       2       5       5       2       2       2       2       1       2
       2       2       2       2       2       3       2       5       2       5
       2       5       2       5       2       2       4       4       4       5
       6       6       2       5       6       2       5       2       2       2
       2       5       2       2       5       2       2       2       2       2
       2       2       2       2       2       2       2       2       5       2
       5       5       2       5       2       2       5       2       5       2
       5       2       5       2       5       2       5       2       5       2
       5       2       5       5       2       5       5       5       2       5
       2       5       5       2       5       5       2       5       5       1
       1       1       1       1       1       3       3       3       3       3
       3       4       4       4       4       4       4       4       4       4
       4       4       4       4       4       4       4       4       4       1
       2       3       2       2       4       4       4       2       5       2
       5       2       5       5       6       2       2       2       2       2
       2       2       5       2       5       2       5       2       5       2
       3       5       2       5       5       2       2       2       2       1
       2       2       2       2       2       2       3       2       5       2
       5       2       5       2       5       2       2       4       4       4
       5       6       6       2       5       6       2       5       2       2
       2       2       5       2       2       5       2       2       2       2
       2       2       2       2       2       2       2       2       2       5
       2       5       5       2       5       2       2       5       2       5
       2       5       2       5       2       5       2       5       2       5
       2       5       2       5       5       2       5       5       5       2
       5       2       5       5       2       5       5       2       5       5
       1       1       1       1       1       1       3       3       3       3
       3       3       4       4       4       4       4       4       4       4
       4       4       4       4       4       4       4       4       4       4
       1       2       3       2       2       4       4       4       2       5
       2       5       2       5       5       6       2       2       2       2
       2       2       2       5       2       5       2       5       2       5
       2       3       5       2       5       5       2       2       2       2
       1       2       2       2       2       2       2       3       2       5
       2       5       2       5       2       5       2       2       4       4
       4       5       6       6       2       5       6       2       5       2
       2       2       2       5       2       2       5       2       2       2
       2       2       2       2       2       2       2       2       2       2
       5       2       5       5       2       5       2       2       5       2
       5       2       5       2       5       2       5       2       5       2
       5       2       5       2       5       5       2       5       5       5
       2       5       2       5       5       2       5       5       2       5
       5       1       1       1       1       1       1       3       3       3
       3       3       3       4       4       4       4       4       4       4
       4       4       4       4       4       4       4       4       4       4
       4       1       2       3       2       2       4       4       4       2
       5       2       5       2       5       5       6       2       2       2
       2       2       2       2       5       2       5       2       5       2
       5       2       3       5       2       5       5       2       2       2
       2       1       2       2       2       2       2       2       3       2
       5       2       5       2       5       2       5       2       2       4
       4       4       5       6       6       2       5       6       2       5
       2       2       2       2       5       2       2       5       2       2
       2       2       2       2       2       2       2       2       2       2
       2       5       2       5       5       2       5       2       2       5
       2       5       2       5       2       5       2       5       2       5
       2       5       2       5       2       5       5       2       5       5
       5       2       5       2       5       5       2       5       5       2
       5       5       1       1       1       1       1       1       3       3
       3       3       3       3       4       4       4       4       4       4
       4       4       4       4       4       4       4       4       4       4
       4       4       1       2       3       2       2       4       4       4
       2       5       2       5       2       5       5       6       2       2
       2       2       2       2       2       5       2       5       2       5
       2       5       2       3       5       2       5       5       2       2
       2       2       1       2       2       2       2       2       2       3
       2       5       2       5       2       5       2       5       2       2
       4       4       4       5       6       6       2       5       6       2
       5       2       2       2       2       5       2       2       5       2
       2       2       2       2       2       2       2       2       2       2
       2       2       5       2       5       5       2       5       2       2
       5       2       5       2       5       2       5       2       5       2
       5       2       5       2       5       2       5       5       2       5
       5       5       2       5       2       5       5       2       5       5
       2       5       5       1       1       1       1       1       1       3
       3       3       3       3       3       4       4       4       4       4
       4       4       4       4       4       4       4       4       4       4
       4       4       4       1       2       3       2       2       4       4
       4       2       5       2       5       2       5       5       6       2
       2       2       2       2       2       2       5       2       5       2
       5       2       5       2       3       5       2       5       5       2
       2       2       2       1       2       2       2       2       2       2
       3       2       5       2       5       2       5       2       5       2
       2       4       4       4       5       6       6       2       5       6
       2       5       2       2       2       2       5       2       2       5
       2       2       2       2       2       2       2       2       2       2
       2       2       2       5       2       5       5       2       5       2
       2       5       2       5       2       5       2       5       2       5
       2       5       2       5       2       5       2       5       5       2
       5       5       5       2       5       2       5       5       2       5
       5       2       5       5       1       1       1       1       1       1
       3       3       3       3       3       3       4       4       4       4
       4       4       4       4       4       4       4       4       4       4
       4       4       4       4       1       2       3       2       2       4
       4       4       2       5       2       5       2       5       5       6
       2       2       2       2       2       2       2       5       2       5
       2       5       2       5       2       3       5       2       5       5
       2       2       2       2       1       2       2       2       2       2
       2       3       2       5       2       5       2       5       2       5
       2       2       4       4       4       5       6       6       2       5
       6       2       5       2       2       2       2       5       2       2
       5       2       2       2       2       2       2       2       2       2
       2       2       2       2       5       2       5       5       2       5
       2       2       5       2       5       2       5       2       5       2
       5       2       5       2       5       2       5       2       5       5
       2       5       5       5       2       5       2       5       5       2
       5       5       2       5       5       1       1       1       1       1
       1       3       3       3       3       3       3       4       4       4
       4       4       4       4       4       4       4       4       4       4
       4       4       4       4       4       1       2       3       2       2
       4       4       4       2       5       2       5       2       5       5
       6       2       2       2       2       2       2       2       5       2
       5       2       5       2       5       2       3       5       2       5
       5       2       2       2       2       1       2       2       2       2
       2       2       3       2       5       2       5       2       5       2
       5       2       2       4       4       4       5       6       6       2
       5       6       2       5       2       2       2       2       5       2
       2       5       2       2       2       2       2       2       2       2
       2       2       2       2       2       5       2       5       5       2
       5       2       2       5       2       5       2       5       2       5
       2       5       2       5       2       5       2       5       2       5
       5       2       5       5       5       2       5       2       5       5
       2       5       5       2       5       5       1       1       1       1
       1       1       3       3       3       3       3       3       4       4
       4       4       4       4       4       4       4       4       4       4
       4       4       4       4       4       4       1       2       3       2
       2       4       4       4       2       5       2       5       2       5
       5       6       2       2       2       2       2       2       2       5
       2       5       2       5       2       5       2       3       5       2
       5       5       2       2       2       2       1       2       2       2
       2       2       2       3       2       5       2       5       2       5
       2       5       2       2       4       4       4       5       6       6
       2       5       6       2       5       2       2       2       2       5
       2       2       5       2       2       2       2       2       2       2
       2       2       2       2       2       2       5       2       5       5
       2       5       2       2       5       2       5       2       5       2
       5       2       5       2       5       2       5       2       5       2
       5       5       2       5       5       5       2       5       2       5
       5       2       5       5       2       5       5       1       1       1
       1       1       1       3       3       3       3       3       3       4
       4       4       4       4       4       4       4       4       4       4
       4       4       4       4       4       4       4       1       2       3
       2       2       4       4       4       2       5       2       5       2
       5       5       6       2       2       2       2       2       2       2
       5       2       5       2       5       2       5       2       3       5
       2       5       5       2       2       2       2       1       2       2
       2       2       2       2       3       2       5       2       5       2
       5       2       5       2       2       4       4       4       5       6
       6       2       5       6       2       5       2       2       2       2
       5       2       2       5       2       2       2       2       2       2
       2       2       2       2       2       2       2       5       2       5
       5       2       5       2       2       5       2       5       2       5
       2       5       2       5       2       5       2       5       2       5
       2       5       5       2       5       5       5       2       5       2
       5       5       2       5       5       2       5       5       1       1
       1       1       1       1       3       3       3       3       3       3
       4       4       4       4       4       4       4       4       4       4
       4       4       4       4       4       4       4       4       1       2
       3       2       2       4       4       4       2       5       2       5
       2       5       5       6       2       2       2       2       2       2
       2       5       2       5       2       5       2       5       2       3
       5       2       5       5       2       2       2       2       1       2
       2       2       2       2       2       3       2       5       2       5
       2       5       2       5       2       2       4       4       4       5
       6       6       2       5       6       2       5       2       2       2
       2       5       2       2       5       2       2       2       2       2
       2       2       2       2       2       2       2       2       5       2
       5       5       2       5       2       2       5       2       5       2
       5       2       5       2       5       2       5       2       5       2
       5       2       5       5       2       5       5       5       2       5
       2       5       5       2       5       5       2       5       5       1
       1       1       1       1       1       3       3       3       3       3
       3       4       4       4       4       4       4       4       4       4
       4       4       4       4       4       4       4       4       4       1
       2       3       2       2       4       4       4       2       5       2
       5       2       5       5       6       2       2       2       2       2
       2       2       5       2       5       2       5       2       5       2
       3       5       2       5       5       2       2       2       2       1
       2       2       2       2       2       2       3       2       5       2
       5       2       5       2       5       2       2       4       4       4
       5       6       6       2       5       6       2       5       2       2
       2       2       5       2       2       5       2       2       2       2
       2       2       2       2       2       2       2       2       2       5
       2       5       5       2       5       2       2       5       2       5
       2       5       2       5       2       5       2       5       2       5
       2       5       2       5       5       2       5       5       5       2
       5       2       5       5       2       5       5       2       5       5
       1       1       1       1       1       1       3       3       3       3
       3       3       4       4       4       4       4       4       4       4
       4       4       4       4       4       4       4       4       4       4
       1       2       3       2       2       4       4       4       2       5
       2       5       2       5       5       6       2       2       2       2
       2       2       2       5       2       5       2       5       2       5
       2       3       5       2       5       5       2       2       2       2
       1       2       2       2       2       2       2       3       2       5
       2       5       2       5       2       5       2       2       4       4
       4       5       6       6       2       5       6       2       5       2
       2       2       2       5       2       2       5       2       2       2
       2       2       2       2       2       2       2       2       2       2
       5       2       5       5       2       5       2       2       5       2
       5       2       5       2       5       2       5       2       5       2
       5       2       5       2       5       5       2       5       5       5
       2       5       2       5       5       2       5       5       2       5
       5       1       1       1       1       1       1       3       3       3
       3       3       3       4       4       4       4       4       4       4
       4       4       4       4       4       4       4       4       4       4
       4       1       2       3       2       2       4       4       4       2
       5       2       5       2       5       5       6       2       2       2
       2       2       2       2       5       2       5       2       5       2
       5       2       3       5       2       5       5       2       2       2
       2       1       2       2       2       2       2       2       3       2
       5       2       5       2       5       2       5       2       2       4
       4       4       5       6       6       2       5       6       2       5
       2       2       2       2       5       2       2       5       2       2
       2       2       2       2       2       2       2       2       2       2
       2       5       2       5       5       2       5       2       2       5
       2       5       2       5       2       5       2       5       2       5
       2       5       2       5       2       5       5       2       5       5
       5       2       5       2       5       5       2       5       5       2
       5       5       1       1       1       1       1       1       3       3
       3       3       3       3       4       4       4       4       4       4
       4       4       4       4       4       4       4       4       4       4
       4       4       1       2       3       2       2       4       4       4
       2       5       2       5       2       5       5       6       2       2
       2       2       2       2       2       5       2       5       2       5
       2       5       2       3       5       2       5       5       2       2
       2       2       1       2       2       2       2       2       2       3
       2       5       2       5       2       5       2       5       2       2
       4       4       4       5       6       6       2       5       6       2
       5       2       2       2       2       5       2       2       5       2
       2       2       2       2       2       2       2       2       2       2
       2       2       5       2       5       5       2       5       2       2
       5       2       5       2       5       2       5       2       5       2
       5       2       5       2       5       2       5       5       2       5
       5       5       2       5       2       5       5       2       5       5
       2       5       5       1       1       1       1       1       1       3
       3       3       3       3       3       4       4       4       4       4
       4       4       4       4       4       4       4       4       4       4
       4       4       4       1       2       3       2       2       4       4
       4       2       5       2       5       2       5       5       6       2
       2       2       2       2       2       2       5       2       5       2
       5       2       5       2       3       5       2       5       5       2
       2       2       2       1       2       2       2       2       2       2
       3       2       5       2       5       2       5       2       5       2
       2       4       4       4       5       6       6       2       5       6
       2       5       2       2       2       2       5       2       2       5
       2       2       2       2       2       2       2       2       2       2
       2       2       2       5       2       5       5       2       5       2
       2       5       2       5       2       5       2       5       2       5
       2       5       2       5       2       5       2       5       5       2
       5       5       5       2       5       2       5       5       2       5
       5       2       5       5       1       1       1       1       1       1
       3       3       3       3       3       3       4       4       4       4
       4       4       4       4       4       4       4       4       4       4
       4       4       4       4       1       2       3       2       2       4
       4       4       2       5       2       5       2       5       5       6
       2       2       2       2       2       2       2       5       2       5
       2       5       2       5       2       3       5       2       5       5
       2       2       2       2       1       2       2       2       2       2
       2       3       2       5       2       5       2       5       2       5
       2       2       4       4       4       5       6       6       2       5
       6       2       5       2       2       2       2       5       2       2
       5       2       2       2       2       2       2       2       2       2
       2       2       2       2       5       2       5       5       2       5
       2       2       5       2       5       2       5       2       5       2
       5       2       5       2       5       2       5       2       5       5
       2       5       5       5       2       5       2       5       5       2
       5       5       2       5       5       1       1       1       1       1
       1       3       3       3       3       3       3       4       4       4
       4       4       4       4       4       4       4       4       4       4
       4       4       4       4       4       1       2       3       2       2
       4       4       4       2       5       2       5       2       5       5
       6       2       2       2       2       2       2       2       5       2
       5       2       5       2       5       2       3       5       2       5
       5       2       2       2       2       1       2       2       2       2
       2       2       3       2       5       2       5       2       5       2
       5       2       2       4       4       4       5       6       6       2
       5       6       2       5       2       2       2       2       5       2
       2       5       2       2       2       2       2       2       2       2
       2       2       2       2       2       5       2       5       5       2
       5       2       2       5       2       5       2       5       2       5
       2       5       2       5       2       5       2       5       2       5
       5       2       5       5       5       2       5       2       5       5
       2       5       5       2       5       5       1       1       1       1
       1       1       3       3       3       3       3       3       4       4
       4       4       4       4       4       4       4       4       4       4
       4       4       4       4       4       4       1       2       3       2
       2       4       4       4       2       5       2       5       2       5
       5       6       2       2       2       2       2       2       2       5
       2       5       2       5       2       5       2       3       5       2
       5       5       2       2       2       2       1       2       2       2
       2       2       2       3       2       5       2       5       2       5
       2       5       2       2       4       4       4       5       6       6
       2       5       6       2       5       2       2       2       2       5
       2       2       5       2       2       2       2       2       2       2
       2       2       2       2       2       2       5       2       5       5
       2       5       2       2       5       2       5       2       5       2
       5       2       5       2       5       2       5       2       5       2
       5       5       2       5       5       5       2       5       2       5
       5       2       5       5       2       5       5       1       1       1
       1       1       1       3       3       3       3       3       3       4
       4       4       4       4       4       4       4       4       4       4
       4       4       4       4       4       4       4       1       2       3
       2       2       4       4       4       2       5       2       5       2
       5       5       6       2       2       2       2       2       2       2
       5       2       5       2       5       2       5       2       3       5
       2       5       5       2       2       2       2       1       2       2
       2       2       2       2       3       2       5       2       5       2
       5       2       5       2       2       4       4       4       5       6
       6       2       5       6       2       5       2       2       2       2
       5       2       2       5       2       2       2       2       2       2
       2       2       2       2       2       2       2       5       2       5
       5       2       5       2       2       5       2       5       2       5
       2       5       2       5       2       5       2       5       2       5
       2       5       5       2       5       5       5       2       5       2
       5       5       2       5       5       2       5       5       1       1
       1       1       1       1       3       3       3       3       3       3
       4       4       4       4       4       4       4       4       4       4
       4       4       4       4       4       4       4       4       1       2
       3       2       2       4       4       4       2       5       2       5
       2       5       5       6       2       2       2       2       2       2
       2       5       2       5       2       5       2       5       2       3
       5       2       5       5       2       2       2       2       1       2
       2       2       2       2       2       3       2       5       2       5
       2       5       2       5       2       2       4       4       4       5
       6       6       2       5       6       2       5       2       2       2
       2       5       2       2       5       2       2       2       2       2
       2       2       2       2       2       2       2       2       5       2
       5       5       2       5       2       2       5       2       5       2
       5       2       5       2       5       2       5       2       5       2
       5       2       5       5       2       5       5       5       2       5
       2       5       5       2       5       5       2       5       5       1
       1       1       1       1       1       3       3       3       3       3
       3       4       4       4       4       4       4       4       4       4
       4       4       4       4       4       4       4       4       4       1
       2       3       2       2       4       4       4       2       5       2
       5       2       5       5       6       2       2       2       2       2
       2       2       5       2       5       2       5       2       5       2
       3       5       2       5       5       2       2       2       2       1
       2       2       2       2       2       2       3       2       5       2
       5       2       5       2       5       2       2       4       4       4
       5       6       6       2       5       6       2       5       2       2
       2       2       5       2       2       5       2       2       2       2
       2       2       2       2       2       2       2       2       2       5
       2       5       5       2       5       2       2       5       2       5
       2       5       2       5       2       5       2       5       2       5
       2       5       2       5       5       2       5       5       5       2
       5       2       5       5       2       5       5       2       5       5
       1       1       1       1       1       1       3       3       3       3
       3       3       4       4       4       4       4       4       4       4
       4       4       4       4       4       4       4       4       4       4
       1       2       3       2       2       4       4       4       2       5
       2       5       2       5       5       6       2       2       2       2
       2       2       2       5       2       5       2       5       2       5
       2       3       5       2       5       5       2       2       2       2
       1       2       2       2       2       2       2       3       2       5
       2       5       2       5       2       5       2       2       4       4
       4       5       6       6       2       5       6       2       5       2
       2       2       2       5       2       2       5       2       2       2
       2       2       2       2       2       2       2       2       2       2
       5       2       5       5       2       5       2       2       5       2
       5       2       5       2       5       2       5       2       5       2
       5       2       5       2       5       5       2       5       5       5
       2       5       2       5       5       2       5       5       2       5
       5       1       1       1       1       1       1       3       3       3
       3       3       3       4       4       4       4       4       4       4
       4       4       4       4       4       4       4       4       4       4
       4       1       2       3       2       2       4       4       4       2
       5       2       5       2       5       5       6       2       2       2
       2       2       2       2       5       2       5       2       5       2
       5       2       3       5       2       5       5       2       2       2
       2       1       2       2       2       2       2       2       3       2
       5       2       5       2       5       2       5       2       2       4
       4       4       5       6       6       2       5       6       2       5
       2       2       2       2       5       2       2       5       2       2
       2       2       2       2       2       2       2       2       2       2
       2       5       2       5       5       2       5       2       2       5
       2       5       2       5       2       5       2       5       2       5
       2       5       2       5       2       5       5       2       5       5
       5       2       5       2       5       5       2       5       5       2
       5       5       1       1       1       1       1       1       3       3
       3       3       3       3       4       4       4       4       4       4
       4       4       4       4       4       4       4       4       4       4
       4       4       1       2       3       2       2       4       4       4
       2       5       2       5       2       5       5       6       2       2
       2       2       2       2       2       5       2       5       2       5
       2       5       2       3       5       2       5       5       2       2
       2       2       1       2       2       2       2       2       2       3
       2       5       2       5       2       5       2       5       2       2
       4       4       4       5       6       6       2       5       6       2
       5       2       2       2       2       5       2       2       5       2
       2       2       2       2       2       2       2       2       2       2
       2       2       5       2       5       5       2       5       2       2
       5       2       5       2       5       2       5       2       5       2
       5       2       5       2       5       2       5       5       2       5
       5       5       2       5       2       5       5       2       5       5
       2       5       5       1       1       1       1       1       1       3
       3       3       3       3       3       4       4       4       4       4
       4       4       4       4       4       4       4       4       4       4
       4       4       4       1       2       3       2       2       4       4
       4       2       5       2       5       2       5       5       6       2
       2       2       2       2       2       2       5       2       5       2
       5       2       5       2       3       5       2       5       5       2
       2       2       2       1       2       2       2       2       2       2
       3       2       5       2       5       2       5       2       5       2
       2       4       4       4       5       6       6       2       5       6
       2       5       2       2       2       2       5       2       2       5
       2       2       2       2       2       2       2       2       2       2
       2       2       2       5       2       5       5       2       5       2
       2       5       2       5       2       5       2       5       2       5
       2       5       2       5       2       5       2       5       5       2
       5       5       5       2       5       2       5       5       2       5
       5       2       5       5       1       1       1       1       1       1
       3       3       3       3       3       3       4       4       4       4
       4       4       4       4       4       4       4       4       4       4
       4       4       4       4       1       2       3       2       2       4
       4       4       2       5       2       5       2       5       5       6
       2       2       2       2       2       2       2       5       2       5
       2       5       2       5       2       3       5       2       5       5
       2       2       2       2       1       2       2       2       2       2
       2       3       2       5       2       5       2       5       2       5
       2       2       4       4       4       5       6       6       2       5
       6       2       5       2       2       2       2       5       2       2
       5       2       2       2       2       2       2       2       2       2
       2       2       2       2       5       2       5       5       2       5
       2       2       5       2       5       2       5       2       5       2
       5       2       5       2       5       2       5       2       5       5
       2       5       5       5       2       5       2       5       5       2
       5       5       2       5       5       1       1       1       1       1
       1       3       3       3       3       3       3       4       4       4
       4       4       4       4       4       4       4       4       4       4
       4       4       4       4       4       1       2       3       2       2
       4       4       4       2       5       2       5       2       5       5
       6       2       2       2       2       2       2       2       5       2
       5       2       5       2       5       2       3       5       2       5
       5       2       2       2       2       1       2       2       2       2
       2       2       3       2       5       2       5       2       5       2
       5       2       2       4       4       4       5       6       6       2
       5       6       2       5       2       2       2       2       5       2
       2       5       2       2       2       2       2       2       2       2
       2       2       2       2       2       5       2       5       5       2
       5       2       2       5       2       5       2       5       2       5
       2       5       2       5       2       5       2       5       2       5
       5       2       5       5       5       2       5       2       5       5
       2       5       5       2       5       5       1       1       1       1
       1       1       3       3       3       3       3       3       4       4
       4       4       4       4       4       4       4       4       4       4
       4       4       4       4       4       4       1       2       3       2
       2       4       4       4       2       5       2       5       2       5
       5       6       2       2       2       2       2       2       2       5
       2       5       2       5       2       5       2       3       5       2
       5       5       2       2       2       2       1       2       2       2
       2       2       2       3       2       5       2       5       2       5
       2       5       2       2       4       4       4       5       6       6
       2       5       6       2       5       2       2       2       2       5
       2       2       5       2       2       2       2       2       2       2
       2       2       2       2       2       2       5       2       5       5
       2       5       2       2       5       2       5       2       5       2
       5       2       5       2       5       2       5       2       5       2
       5       5       2       5       5       5       2       5       2       5
       5       2       5       5       2       5       5       1       1       1
       1       1       1       3       3       3       3       3       3       4
       4       4       4       4       4       4       4       4       4       4
       4       4       4       4       4       4       4       1       2       3
       2       2       4       4       4       2       5       2       5       2
       5       5       6       2       2       2       2       2       2       2
       5       2       5       2       5       2       5       2       3       5
       2       5       5       2       2       2       2       1       2       2
       2       2       2       2       3       2       5       2       5       2
       5       2       5       2       2       4       4       4       5       6
       6       2       5       6       2       5       2       2       2       2
       5       2       2       5       2       2       2       2       2       2
       2       2       2       2       2       2       2       5       2       5
       5       2       5       2       2       5       2       5       2       5
       2       5       2       5       2       5       2       5       2       5
       2       5       5       2       5       5       5       2       5       2
       5       5       2       5       5       2       5       5       1       1
       1       1       1       1       3       3       3       3       3       3
       4       4       4       4       4       4       4       4       4       4
       4       4       4       4       4       4       4       4       1       2
       3       2       2       4       4       4       2       5       2       5
       2       5       5       6       2       2       2       2       2       2
       2       5       2       5       2       5       2       5       2       3
       5       2       5       5       2       2       2       2       1       2
       2       2       2       2       2       3       2       5       2       5
       2       5       2       5       2       2       4       4       4       5
       6       6       2       5       6       2       5       2       2       2
       2       5       2       2       5       2       2       2       2       2
       2       2       2       2       2       2       2       2       5       2
       5       5       2       5       2       2       5       2       5       2
       5       2       5       2       5       2       5       2       5       2
       5       2       5       5       2       5       5       5       2       5
       2       5       5       2       5       5       2       5       5       1
       1       1       1       1       1       3       3       3       3       3
       3       4       4       4       4       4       4       4       4       4
       4       4       4       4       4       4       4       4       4       1
       2       3       2       2       4       4       4       2       5       2
       5       2       5       5       6       2       2       2       2       2
       2       2       5       2       5       2       5       2       5       2
       3       5       2       5       5       2       2       2       2       1
       2       2       2       2       2       2       3       2       5       2
       5       2       5       2       5       2       2       4       4       4
       5       6       6       2       5       6       2       5       2       2
       2       2       5       2       2       5       2       2       2       2
       2       2       2       2       2       2       2       2       2       5
       2       5       5       2       5       2       2       5       2       5
       2       5       2       5       2       5       2       5       2       5
       2       5       2       5       5       2       5       5       5       2
       5       2       5       5       2       5       5       2       5       5
       1       1       1       1       1       1       3       3       3       3
       3       3       4       4       4       4       4       4       4       4
       4       4       4       4       4       4       4       4       4       4
       1       2       3       2       2       4       4       4       2       5
       2       5       2       5       5       6       2       2       2       2
       2       2       2       5       2       5       2       5       2       5
       2       3       5       2       5       5       2       2       2       2
       1       2       2       2       2       2       2       3       2       5
       2       5       2       5       2       5       2       2       4       4
       4       5       6       6       2       5       6       2       5       2
       2       2       2       5       2       2       5       2       2       2
       2       2       2       2       2       2       2       2       2       2
       5       2       5       5       2       5       2       2       5       2
       5       2       5       2       5       2       5       2       5       2
       5       2       5       2       5       5       2       5       5       5
       2       5       2       5       5       2       5       5       2       5
       5       1       1       1       1       1       1       3       3       3
       3       3       3       4       4       4       4       4       4       4
       4       4       4       4       4       4       4       4       4       4
       4       1       2       3       2       2       4       4       4       2
       5       2       5       2       5       5       6       2       2       2
       2       2       2       2       5       2       5       2       5       2
       5       2       3       5       2       5       5       2       2       2
       2       1       2       2       2       2       2       2       3       2
       5       2       5       2       5       2       5       2       2       4
       4       4       5       6       6       2       5       6       2       5
       2       2       2       2       5       2       2       5       2       2
       2       2       2       2       2       2       2       2       2       2
       2       5       2       5       5       2       5       2       2       5
       2       5       2       5       2       5       2       5       2       5
       2       5       2       5       2       5       5       2       5       5
       5       2       5       2       5       5       2       5       5       2
       5       5       1       1       1       1       1       1       3       3
       3       3       3       3       4       4       4       4       4       4
       4       4       4       4       4       4       4       4       4       4
       4       4       1       2       3       2       2       4       4       4
       2       5       2       5       2       5       5       6       2       2
       2       2       2       2       2       5       2       5       2       5
       2       5       2       3       5       2       5       5       2       2
       2       2       1       2       2       2       2       2       2       3
       2       5       2       5       2       5       2       5       2       2
       4       4       4       5       6       6       2       5       6       2
       5       2       2       2       2       5       2       2       5       2
       2       2       2       2       2       2       2       2       2       2
       2       2       5       2       5       5       2       5       2       2
       5       2       5       2       5       2       5       2       5       2
       5       2       5       2       5       2       5       5       2       5
       5       5       2       5       2       5       5       2       5       5
       2       5       5       1       1       1       1       1       1       3
       3       3       3       3       3       4       4       4       4       4
       4       4       4       4       4       4       4       4       4       4
       4       4       4       1       2       3       2       2       4       4
       4       2       5       2       5       2       5       5       6       2
       2       2       2       2       2       2       5       2       5       2
       5       2       5       2       3       5       2       5       5       2
       2       2       2       1       2       2       2       2       2       2
       3       2       5       2       5       2       5       2       5       2
       2       4       4       4       5       6       6       2       5       6
       2       5       2       2       2       2       5       2       2       5
       2       2       2       2       2       2       2       2       2       2
       2       2       2       5       2       5       5       2       5       2
       2       5       2       5       2       5       2       5       2       5
       2       5       2       5       2       5       2       5       5       2
       5       5       5       2       5       2       5       5       2       5
       5       2       5       5       1       1       1       1       1       1
       3       3       3       3       3       3       4       4       4       4
       4       4       4       4       4       4       4       4       4       4
       4       4       4       4       1       2       3       2       2       4
       4       4       2       5       2       5       2       5       5       6
       2       2       2       2       2       2       2       5       2       5
       2       5       2       5       2       3       5       2       5       5
       2       2       2       2       1       2       2       2       2       2
       2       3       2       5       2       5       2       5       2       5
       2       2       4       4       4       5       6       6       2       5
       6       2       5       2       2       2       2       5       2       2
       5       2       2       2       2       2       2       2       2       2
       2       2       2       2       5       2       5       5       2       5
       2       2       5       2       5       2       5       2       5       2
       5       2       5       2       5       2       5       2       5       5
       2       5       5       5       2       5       2       5       5       2
       5       5       2       5       5       1       1       1       1       1
       1       3       3       3       3       3       3       4       4       4
       4       4       4       4       4       4       4       4       4       4
       4       4       4       4       4       1       2       3       2       2
       4       4       4       2       5       2       5       2       5       5
       6       2       2       2       2       2       2       2       5       2
       5       2       5       2       5       2       3       5       2       5
       5       2       2       2       2       1       2       2       2       2
       2       2       3       2       5       2       5       2       5       2
       5       2       2       4       4       4       5       6       6       2
       5       6       2       5       2       2       2       2       5       2
       2       5       2       2       2       2       2       2       2       2
       2       2       2       2       2       5       2       5       5       2
       5       2       2       5       2       5       2       5       2       5
       2       5       2       5       2       5       2       5       2       5
       5       2       5       5       5       2       5       2       5       5
       2       5       5       2       5       5       1       1       1       1
       1       1       3       3       3       3       3       3       4       4
       4       4       4       4       4       4       4       4       4       4
       4       4       4       4       4       4       1       2       3       2
       2       4       4       4       2       5       2       5       2       5
       5       6       2       2       2       2       2       2       2       5
       2       5       2       5       2       5       2       3       5       2
       5       5       2       2       2       2       1       2       2       2
       2       2       2       3       2       5       2       5       2       5
       2       5       2       2       4       4       4       5       6       6
       2       5       6       2       5       2       2       2       2       5
       2       2       5       2       2       2       2       2       2       2
       2       2       2       2       2       2       5       2       5       5
       2       5       2       2       5       2       5       2       5       2
       5       2       5       2       5       2       5       2       5       2
       5       5       2       5       5       5       2       5       2       5
       5       2       5       5       2       5       5       1       1       1
       1       1       1       3       3       3       3       3       3       4
       4       4       4       4       4       4       4       4       4       4
       4       4       4       4       4       4       4       1       2       3
       2       2       4       4       4       2       5       2       5       2
       5       5       6       2       2       2       2       2       2       2
       5       2       5       2       5       2       5       2       3       5
       2       5       5       2       2       2       2       1       2       2
       2       2       2       2       3       2       5       2       5       2
       5       2       5       2       2       4       4       4       5       6
       6       2       5       6       2       5       2       2       2       2
       5       2       2       5       2       2       2       2       2       2
       2       2       2       2       2       2       2       5       2       5
       5       2       5       2       2       5       2       5       2       5
       2       5       2       5       2       5       2       5       2       5
       2       5       5       2       5       5       5       2       5       2
       5       5       2       5       5       2       5       5       1       1
       1       1       1       1       3       3       3       3       3       3
       4       4       4       4       4       4       4       4       4       4
       4       4       4       4       4       4       4       4       1       2
       3       2       2       4       4       4       2       5       2       5
       2       5       5       6       2       2       2       2       2       2
       2       5       2       5       2       5       2       5       2       3
       5       2       5       5       2       2       2       2       1       2
       2       2       2       2       2       3       2       5       2       5
       2       5       2       5       2       2       4       4       4       5
       6       6       2       5       6       2       5       2       2       2
       2       5       2       2       5       2       2       2       2       2
       2       2       2       2       2       2       2       2       5       2
       5       5       2       5       2       2       5       2       5       2
       5       2       5       2       5       2       5       2       5       2
       5       2       5       5       2       5       5       5       2       5
       2       5       5       2       5       5       2       5       5       1
       1       1       1       1       1       3       3       3       3       3
       3       4       4       4       4       4       4       4       4       4
       4       4       4       4       4       4       4       4       4       1
       2       3       2       2       4       4       4       2       5       2
       5       2       5       5       6       2       2       2       2       2
       2       2       5       2       5       2       5       2       5       2
       3       5       2       5       5       2       2       2       2       1
       2       2       2       2       2       2       3       2       5       2
       5       2       5       2       5       2       2       4       4       4
       5       6       6       2       5       6       2       5       2       2
       2       2       5       2       2       5       2       2       2       2
       2       2       2       2       2       2       2       2       2       5
       2       5       5       2       5       2       2       5       2       5
       2       5       2       5       2       5       2       5       2       5
       2       5       2       5       5       2       5       5       5       2
       5       2       5       5       2       5       5       2       5       5
       1       1       1       1       1       1       3       3       3       3
       3       3       4       4       4       4       4       4       4       4
       4       4       4       4       4       4       4       4       4       4
       1       2       3       2       2       4       4       4       2       5
       2       5       2       5       5       6       2       2       2       2
       2       2       2       5       2       5       2       5       2       5
       2       3       5       2       5       5       2       2       2       2
       1       2       2       2       2       2       2       3       2       5
       2       5       2       5       2       5       2       2       4       4
       4       5       6       6       2       5       6       2       5       2
       2       2       2       5       2       2       5       2       2       2
       2       2       2       2       2       2       2       2       2       2
       5       2       5       5       2       5       2       2       5       2
       5       2       5       2       5       2       5       2       5       2
       5       2       5       2       5       5       2       5       5       5
       2       5       2       5       5       2       5       5       2       5
       5       1       1       1       1       1       1       3       3       3
       3       3       3       4       4       4       4       4       4       4
       4       4       4       4       4       4       4       4       4       4
       4       1       2       3       2       2       4       4       4       2
       5       2       5       2       5       5       6       2       2       2
       2       2       2       2       5       2       5       2       5       2
       5       2       3       5       2       5       5       2       2       2
       2       1       2       2       2       2       2       2       3       2
       5       2       5       2       5       2       5       2       2       4
       4       4       5       6       6       2       5       6       2       5
       2       2       2       2       5       2       2       5       2       2
       2       2       2       2       2       2       2       2       2       2
       2       5       2       5       5       2       5       2       2       5
       2       5       2       5       2       5       2       5       2       5
       2       5       2       5       2       5       5       2       5       5
       5       2       5       2       5       5       2       5       5       2
       5       5       1       1       1       1       1       1       3       3
       3       3       3       3       4       4       4       4       4       4
       4       4       4       4       4       4       4       4       4       4
       4       4       1       2       3       2       2       4       4       4
       2       5       2       5       2       5       5       6       2       2
       2       2       2       2       2       5       2       5       2       5
       2       5       2       3       5       2       5       5       2       2
       2       2       1       2       2       2       2       2       2       3
       2       5       2       5       2       5       2       5       2       2
       4       4       4       5       6       6       2       5       6       2
       5       2       2       2       2       5       2       2       5       2
       2       2       2       2       2       2       2       2       2       2
       2       2       5       2       5       5       2       5       2       2
       5       2       5       2       5       2       5       2       5       2
       5       2       5       2       5       2       5       5       2       5
       5       5       2       5       2       5       5       2       5       5
       2       5       5       1       1       1       1       1       1       3
       3       3       3       3       3       4       4       4       4       4
       4       4       4       4       4       4       4       4       4       4
       4       4       4       1       2       3       2       2       4       4
       4       2       5       2       5       2       5       5       6       2
       2       2       2       2       2       2       5       2       5       2
       5       2       5       2       3       5       2       5       5       2
       2       2       2       1       2       2       2       2       2       2
       3       2       5       2       5       2       5       2       5       2
       2       4       4       4       5       6       6       2       5       6
       2       5       2       2       2       2       5       2       2       5
       2       2       2       2       2       2       2       2       2       2
       2       2       2       5       2       5       5       2       5       2
       2       5       2       5       2       5       2       5       2       5
       2       5       2       5       2       5       2       5       5       2
       5       5       5       2       5       2       5       5       2       5
       5       2       5       5       1       1       1       1       1       1
       3       3       3       3       3       3       4       4       4       4
       4       4       4       4       4       4       4       4       4       4
       4       4       4       4       1       2       3       2       2       4
       4       4       2       5       2       5       2       5       5       6
       2       2       2       2       2       2       2       5       2       5
       2       5       2       5       2       3       5       2       5       5
       2       2       2       2       1       2       2       2       2       2
       2       3       2       5       2       5       2       5       2       5
       2       2       4       4       4       5       6       6       2       5
       6       2       5       2       2       2       2       5       2       2
       5       2       2       2       2       2       2       2       2       2
       2       2       2       2       5       2       5       5       2       5
       2       2       5       2       5       2       5       2       5       2
       5       2       5       2       5       2       5       2       5       5
       2       5       5       5       2       5       2       5       5       2
       5       5       2       5       5       1       1       1       1       1
       1       3       3       3       3       3       3       4       4       4
       4       4       4       4       4       4       4       4       4       4
       4       4       4       4       4       1       2       3       2       2
       4       4       4       2       5       2       5       2       5       5
       6       2       2       2       2       2       2       2       5       2
       5       2       5       2       5       2       3       5       2       5
       5       2       2       2       2       1       2       2       2       2
       2       2       3       2       5       2       5       2       5       2
       5       2       2       4       4       4       5       6       6       2
       5       6       2       5       2       2       2       2       5       2
       2       5       2       2       2       2       2       2       2       2
       2       2       2       2       2       5       2       5       5       2
       5       2       2       5       2       5       2       5       2       5
       2       5       2       5       2       5       2       5       2       5
       5       2       5       5       5       2       5       2       5       5
       2       5       5       2       5       5       1       1       1       1
       1       1       3       3       3       3       3       3       4       4
       4       4       4       4       4       4       4       4       4       4
       4       4       4       4       4       4       1       2       3       2
       2       4       4       4       2       5       2       5       2       5
       5       6       2       2       2       2       2       2       2       5
       2       5       2       5       2       5       2       3       5       2
       5       5       2       2       2       2       1       2       2       2
       2       2       2       3       2       5       2       5       2       5
       2       5       2       2       4       4       4       5       6       6
       2       5       6       2       5       2       2       2       2       5
       2       2       5       2       2       2       2       2       2       2
       2       2       2       2       2       2       5       2       5       5
       2       5       2       2       5       2       5       2       5       2
       5       2       5       2       5       2       5       2       5       2
       5       5       2       5       5       5       2       5       2       5
       5       2       5       5       2       5       5       1       1       1
       1       1       1       3       3       3       3       3       3       4
       4       4       4       4       4       4       4       4       4       4
       4       4       4       4       4       4       4       1       2       3
       2       2       4       4       4       2       5       2       5       2
       5       5       6       2       2       2       2       2       2       2
       5       2       5       2       5       2       5       2       3       5
       2       5       5       2       2       2       2       1       2       2
       2       2       2       2       3       2       5       2       5       2
       5       2       5       2       2       4       4       4       5       6
       6       2       5       6       2       5       2       2       2       2
       5       2       2       5       2       2       2       2       2       2
       2       2       2       2       2       2       2       5       2       5
       5       2       5       2       2       5       2       5       2       5
       2       5       2       5       2       5       2       5       2       5
       2       5       5       2       5       5       5       2       5       2
       5       5       2       5       5       2       5       5       1       1
       1       1       1       1       3       3       3       3       3       3
       4       4       4       4       4       4       4       4       4       4
       4       4       4       4       4       4       4       4       1       2
       3       2       2       4       4       4       2       5       2       5
       2       5       5       6       2       2       2       2       2       2
       2       5       2       5       2       5       2       5       2       3
       5       2       5       5       2       2       2       2       1       2
       2       2       2       2       2       3       2       5       2       5
       2       5       2       5       2       2       4       4       4       5
       6       6       2       5       6       2       5       2       2       2
       2       5       2       2       5       2       2       2       2       2
       2       2       2       2       2       2       2       2       5       2
       5       5       2       5       2       2       5       2       5       2
       5       2       5       2       5       2       5       2       5       2
       5       2       5       5       2       5       5       5       2       5
       2       5       5       2       5       5       2       5       5       1
       1       1       1       1       1       3       3       3       3       3
       3       4       4       4       4       4       4       4       4       4
       4       4       4       4       4       4       4       4       4       1
       2       3       2       2       4       4       4       2       5       2
       5       2       5       5       6       2       2       2       2       2
       2       2       5       2       5       2       5       2       5       2
       3       5       2       5       5       2       2       2       2       1
       2       2       2       2       2       2       3       2       5       2
       5       2       5       2       5       2       2       4       4       4
       5       6       6       2       5       6       2       5       2       2
       2       2       5       2       2       5       2       2       2       2
       2       2       2       2       2       2       2       2       2       5
       2       5       5       2       5       2       2       5       2       5
       2       5       2       5       2       5       2       5       2       5
       2       5       2       5       5       2       5       5       5       2
       5       2       5       5       2       5       5       2       5       5
       1       1       1       1       1       1       3       3       3       3
       3       3       4       4       4       4       4       4       4       4
       4       4       4       4       4       4       4       4       4       4
       1       2       3       2       2       4       4       4       2       5
       2       5       2       5       5       6       2       2       2       2
       2       2       2       5       2       5       2       5       2       5
       2       3       5       2       5       5       2       2       2       2
       1       2       2       2       2       2       2       3       2       5
       2       5       2       5       2       5       2       2       4       4
       4       5       6       6       2       5       6       2       5       2
       2       2       2       5       2       2       5       2       2       2
       2       2       2       2       2       2       2       2       2       2
       5       2       5       5       2       5       2       2       5       2
       5       2       5       2       5       2       5       2       5       2
       5       2       5       2       5       5       2       5       5       5
       2       5       2       5       5       2       5       5       2       5
       5       1       1       1       1       1       1       3       3       3
       3       3       3       4       4       4       4       4       4       4
       4       4       4       4       4       4       4       4       4       4
       4       1       2       3       2       2       4       4       4       2
       5       2       5       2       5       5       6       2       2       2
       2       2       2       2       5       2       5       2       5       2
       5       2       3       5       2       5       5       2       2       2
       2       1       2       2       2       2       2       2       3       2
       5       2       5       2       5       2       5       2       2       4
       4       4       5       6       6       2       5       6       2       5
       2       2       2       2       5       2       2       5       2       2
       2       2       2       2       2       2       2       2       2       2
       2       5       2       5       5       2       5       2       2       5
       2       5       2       5       2       5       2       5       2       5
       2       5       2       5       2       5       5       2       5       5
       5       2       5       2       5       5       2       5       5       2
       5       5       1       1       1       1       1       1       3       3
       3       3       3       3       4       4       4       4       4       4
       4       4       4       4       4       4       4       4       4       4
       4       4       1       2       3       2       2       4       4       4
       2       5       2       5       2       5       5       6       2       2
       2       2       2       2       2       5       2       5       2       5
       2       5       2       3       5       2       5       5       2       2
       2       2       1       2       2       2       2       2       2       3
       2       5       2       5       2       5       2       5       2       2
       4       4       4       5       6       6       2       5       6       2
       5       2       2       2       2       5       2       2       5       2
       2       2       2       2       2       2       2       2       2       2
       2       2       5       2       5       5       2       5       2       2
       5       2       5       2       5       2       5       2       5       2
       5       2       5       2       5       2       5       5       2       5
       5       5       2       5       2       5       5       2       5       5
       2       5       5       1       1       1       1       1       1       3
       3       3       3       3       3       4       4       4       4       4
       4       4       4       4       4       4       4       4       4       4
       4       4       4       1       2       3       2       2       4       4
       4       2       5       2       5       2       5       5       6       2
       2       2       2       2       2       2       5       2       5       2
       5       2       5       2       3       5       2       5       5       2
       2       2       2       1       2       2       2       2       2       2
       3       2       5       2       5       2       5       2       5       2
       2       4       4       4       5       6       6       2       5       6
       2       5       2       2       2       2       5       2       2       5
       2       2       2       2       2       2       2       2       2       2
       2       2       2       5       2       5       5       2       5       2
       2       5       2       5       2       5       2       5       2       5
       2       5       2       5       2       5       2       5       5       2
       5       5       5       2       5       2       5       5       2       5
       5       2       5       5       1       1       1       1       1       1
       3       3       3       3       3       3       4       4       4       4
       4       4       4       4       4       4       4       4       4       4
       4       4       4       4       1       2       3       2       2       4
       4       4       2       5       2       5       2       5       5       6
       2       2       2       2       2       2       2       5       2       5
       2       5       2       5       2       3       5       2       5       5
       2       2       2       2       1       2       2       2       2       2
       2       3       2       5       2       5       2       5       2       5
       2       2       4       4       4       5       6       6       2       5
       6       2       5       2       2       2       2       5       2       2
       5       2       2       2       2       2       2       2       2       2
       2       2       2       2       5       2       5       5       2       5
       2       2       5       2       5       2       5       2       5       2
       5       2       5       2       5       2       5       2       5       5
       2       5       5       5       2       5       2       5       5       2
       5       5       2       5       5       1       1       1       1       1
       1       3       3       3       3       3       3       4       4       4
       4       4       4       4       4       4       4       4       4       4
       4       4       4       4       4       1       2       3       2       2
       4       4       4       2       5       2       5       2       5       5
       6       2       2       2       2       2       2       2       5       2
       5       2       5       2       5       2       3       5       2       5
       5       2       2       2       2       1       2       2       2       2
       2       2       3       2       5       2       5       2       5       2
       5       2       2       4       4       4       5       6       6       2
       5       6       2       5       2       2       2       2       5       2
       2       5       2       2       2       2       2       2       2       2
       2       2       2       2       2       5       2       5       5       2
       5       2       2       5       2       5       2       5       2       5
       2       5       2       5       2       5       2       5       2       5
       5       2       5       5       5       2       5       2       5       5
       2       5       5       2       5       5       1       1       1       1
       1       1       3       3       3       3       3       3       4       4
       4       4       4       4       4       4       4       4       4       4
       4       4       4       4       4       4       1       2       3       2
       2       4       4       4       2       5       2       5       2       5
       5       6       2       2       2       2       2       2       2       5
       2       5       2       5       2       5       2       3       5       2
       5       5       2       2       2       2       1       2       2       2
       2       2       2       3       2       5       2       5       2       5
       2       5       2       2       4       4       4       5       6       6
       2       5       6       2       5       2       2       2       2       5
       2       2       5       2       2       2       2       2       2       2
       2       2       2       2       2       2       5       2       5       5
       2       5       2       2       5       2       5       2       5       2
       5       2       5       2       5       2       5       2       5       2
       5       5       2       5       5       5       2       5       2       5
       5       2       5       5       2       5       5       1       1       1
       1       1       1       3       3       3       3       3       3       4
       4       4       4       4       4       4       4       4       4       4
       4       4       4       4       4       4       4       1       2       3
       2       2       4       4       4       2       5       2       5       2
       5       5       6       2       2       2       2       2       2       2
       5       2       5       2       5       2       5       2       3       5
       2       5       5       2       2       2       2       1       2       2
       2       2       2       2       3       2       5       2       5       2
       5       2       5       2       2       4       4       4       5       6
       6       2       5       6       2       5       2       2       2       2
       5       2       2       5       2       2       2       2       2       2
       2       2       2       2       2       2       2       5       2       5
       5       2       5       2       2       5       2       5       2       5
       2       5       2       5       2       5       2       5       2       5
       2       5       5       2       5       5       5       2       5       2
       5       5       2       5       5       2       5       5       1       1
       1       1       1       1       3       3       3       3       3       3
       4       4       4       4       4       4       4       4       4       4
       4       4       4       4       4       4       4       4       1       2
       3       2       2       4       4       4       2       5       2       5
       2       5       5       6       2       2       2       2       2       2
       2       5       2       5       2       5       2       5       2       3
       5       2       5       5       2       2       2       2       1       2
       2       2       2       2       2       3       2       5       2       5
       2       5       2       5       2       2       4       4       4       5
       6       6       2       5       6       2       5       2       2       2
       2       5       2       2       5       2       2       2       2       2
       2       2       2       2       2       2       2       2       5       2
       5       5       2       5       2       2       5       2       5       2
       5       2       5       2       5       2       5       2       5       2
       5       2       5       5       2       5       5       5       2       5
       2       5       5       2       5       5       2       5       5       1
       1       1       1       1       1       3       3       3       3       3
       3       4       4       4       4       4       4       4       4       4
       4       4       4       4       4       4       4       4       4       1
       2       3       2       2       4       4       4       2       5       2
       5       2       5       5       6       2       2       2       2       2
       2       2       5       2       5       2       5       2       5       2
       3       5       2       5       5       2       2       2       2       1
       2       2       2       2       2       2       3       2       5       2
       5       2       5       2       5       2       2       4       4       4
       5       6       6       2       5       6       2       5       2       2
       2       2       5       2       2       5       2       2       2       2
       2       2       2       2       2       2       2       2       2       5
       2       5       5       2       5       2       2       5       2       5
       2       5       2       5       2       5       2       5       2       5
       2       5       2       5       5       2       5       5       5       2
       5       2       5       5       2       5       5       2       5       5
       1       1       1       1       1       1       3       3       3       3
       3       3       4       4       4       4       4       4       4       4
       4       4       4       4       4       4       4       4       4       4
       1       2       3       2       2       4       4       4       2       5
       2       5       2       5       5       6       2       2       2       2
       2       2       2       5       2       5       2       5       2       5
       2       3       5       2       5       5       2       2       2       2
       1       2       2       2       2       2       2       3       2       5
       2       5       2       5       2       5       2       2       4       4
       4       5       6       6       2       5       6       2       5       2
       2       2       2       5       2       2       5       2       2       2
       2       2       2       2       2       2       2       2       2       2
       5       2       5       5       2       5       2       2       5       2
       5       2       5       2       5       2       5       2       5       2
       5       2       5       2       5       5       2       5       5       5
       2       5       2       5       5       2       5       5       2       5
       5       1       1       1       1       1       1       3       3       3
       3       3       3       4       4       4       4       4       4       4
       4       4       4       4       4       4       4       4       4       4
       4       1       2       3       2       2       4       4       4       2
       5       2       5       2       5       5       6       2       2       2
       2       2       2       2       5       2       5       2       5       2
       5       2       3       5       2       5       5       2       2       2
       2       1       2       2       2       2       2       2       3       2
       5       2       5       2       5       2       5       2       2       4
       4       4       5       6       6       2       5       6       2       5
       2       2       2       2       5       2       2       5       2       2
       2       2       2       2       2       2       2       2       2       2
       2       5       2       5       5       2       5       2       2       5
       2       5       2       5       2       5       2       5       2       5
       2       5       2       5       2       5       5       2       5       5
       5       2       5       2       5       5       2       5       5       2
       5       5       1       1       1       1       1       1       3       3
       3       3       3       3       4       4       4       4       4       4
       4       4       4       4       4       4       4       4       4       4
       4       4       1       2       3       2       2       4       4       4
       2       5       2       5       2       5       5       6       2       2
       2       2       2       2       2       5       2       5       2       5
       2       5       2       3       5       2       5       5       2       2
       2       2       1       2       2       2       2       2       2       3
       2       5       2       5       2       5       2       5       2       2
       4       4       4       5       6       6       2       5       6       2
       5       2       2       2       2       5       2       2       5       2
       2       2       2       2       2       2       2       2       2       2
       2       2       5       2       5       5       2       5       2       2
       5       2       5       2       5       2       5       2       5       2
       5       2       5       2       5       2       5       5       2       5
       5       5       2       5       2       5       5       2       5       5
       2       5       5       1       1       1       1       1       1       3
       3       3       3       3       3       4       4       4       4       4
       4       4       4       4       4       4       4       4       4       4
       4       4       4       1       2       3       2       2       4       4
       4       2       5       2       5       2       5       5       6       2
       2       2       2       2       2       2       5       2       5       2
       5       2       5       2       3       5       2       5       5       2
       2       2       2       1       2       2       2       2       2       2
       3       2       5       2       5       2       5       2       5       2
       2       4       4       4       5       6       6       2       5       6
       2       5       2       2       2       2       5       2       2       5
       2       2       2       2       2       2       2       2       2       2
       2       2       2       5       2       5       5       2       5       2
       2       5       2       5       2       5       2       5       2       5
       2       5       2       5       2       5       2       5       5       2
       5       5       5       2       5       2       5       5       2       5
       5       2       5       5       1       1       1       1       1       1
       3       3       3       3       3       3       4       4       4       4
       4       4       4       4       4       4       4       4       4       4
       4       4       4       4       1       2       3       2       2       4
       4       4       2       5       2       5       2       5       5       6
       2       2       2       2       2       2       2       5       2       5
       2       5       2       5       2       3       5       2       5       5
       2       2       2       2       1       2       2       2       2       2
       2       3       2       5       2       5       2       5       2       5
       2       2       4       4       4       5       6       6       2       5
       6       2       5       2       2       2       2       5       2       2
       5       2       2       2       2       2       2       2       2       2
       2       2       2       2       5       2       5       5       2       5
       2       2       5       2       5       2       5       2       5       2
       5       2       5       2       5       2       5       2       5       5
       2       5       5       5       2       5       2       5       5       2
       5       5       2       5       5       1       1       1       1       1
       1       3       3       3       3       3       3       4       4       4
       4       4       4       4       4       4       4       4       4       4
       4       4       4       4       4       1       2       3       2       2
       4       4       4       2       5       2       5       2       5       5
       6       2       2       2       2       2       2       2       5       2
       5       2       5       2       5       2       3       5       2       5
       5       2       2       2       2       1       2       2       2       2
       2       2       3       2       5       2       5       2       5       2
       5       2       2       4       4       4       5       6       6       2
       5       6       2       5       2       2       2       2       5       2
       2       5       2       2       2       2       2       2       2       2
       2       2       2       2       2       5       2       5       5       2
       5       2       2       5       2       5       2       5       2       5
       2       5       2       5       2       5       2       5       2       5
       5       2       5       5       5       2       5       2       5       5
       2       5       5       2       5       5       1       1       1       1
       1       1       3       3       3       3       3       3       4       4
       4       4       4       4       4       4       4       4       4       4
       4       4       4       4       4       4       1       2       3       2
       2       4       4       4       2       5       2       5       2       5
       5       6       2       2       2       2       2       2       2       5
       2       5       2       5       2       5       2       3       5       2
       5       5       2       2       2       2       1       2       2       2
       2       2       2       3       2       5       2       5       2       5
       2       5       2       2       4       4       4       5       6       6
       2       5       6       2       5       2       2       2       2       5
       2       2       5       2       2       2       2       2       2       2
       2       2       2       2       2       2       5       2       5       5
       2       5       2       2       5       2       5       2       5       2
       5       2       5       2       5       2       5       2       5       2
       5       5       2       5       5       5       2       5       2       5
       5       2       5       5       2       5       5       1       1       1
       1       1       1       3       3       3       3       3       3       4
       4       4       4       4       4       4       4       4       4       4
       4       4       4       4       4       4       4       1       2       3
       2       2       4       4       4       2       5       2       5       2
       5       5       6       2       2       2       2       2       2       2
       5       2       5       2       5       2       5       2       3       5
       2       5       5       2       2       2       2       1       2       2
       2       2       2       2       3       2       5       2       5       2
       5       2       5       2       2       4       4       4       5       6
       6       2       5       6       2       5       2       2       2       2
       5       2       2       5       2       2       2       2       2       2
       2       2       2       2       2       2       2       5       2       5
       5       2       5       2       2       5       2       5       2       5
       2       5       2       5       2       5       2       5       2       5
       2       5       5       2       5       5       5       2       5       2
       5       5       2       5       5       2       5       5       1       1
       1       1       1       1       3       3       3       3       3       3
       4       4       4       4       4       4       4       4       4       4
       4       4       4       4       4       4       4       4       1       2
       3       2       2       4       4       4       2       5       2       5
       2       5       5       6       2       2       2       2       2       2
       2       5       2       5       2       5       2       5       2       3
       5       2       5       5       2       2       2       2       1       2
       2       2       2       2       2       3       2       5       2       5
       2       5       2       5       2       2       4       4       4       5
       6       6       2       5       6       2       5       2       2       2
       2       5       2       2       5       2       2       2       2       2
       2       2       2       2       2       2       2       2       5       2
       5       5       2       5       2       2       5       2       5       2
       5       2       5       2       5       2       5       2       5       2
       5       2       5       5       2       5       5       5       2       5
       2       5       5       2       5       5       2       5       5       1
       1       1       1       1       1       3       3       3       3       3
       3       4       4       4       4       4       4       4       4       4
       4       4       4       4       4       4       4       4       4       1
       2       3       2       2       4       4       4       2       5       2
       5       2       5       5       6       2       2       2       2       2
       2       2       5       2       5       2       5       2       5       2
       3       5       2       5       5       2       2       2       2       1
       2       2       2       2       2       2       3       2       5       2
       5       2       5       2       5       2       2       4       4       4
       5       6       6       2       5       6       2       5       2       2
       2       2       5       2       2       5       2       2       2       2
       2       2       2       2       2       2       2       2       2       5
       2       5       5       2       5       2       2       5       2       5
       2       5       2       5       2       5       2       5       2       5
       2       5       2       5       5       2       5       5       5       2
       5       2       5       5       2       5       5       2       5       5
       1       1       1       1       1       1       3       3       3       3
       3       3       4       4       4       4       4       4       4       4
       4       4       4       4       4       4       4       4       4       4
       1       2       3       2       2       4       4       4       2       5
       2       5       2       5       5       6       2       2       2       2
       2       2       2       5       2       5       2       5       2       5
       2       3       5       2       5       5       2       2       2       2
       1       2       2       2       2       2       2       3       2       5
       2       5       2       5       2       5       2       2       4       4
       4       5       6       6       2       5       6       2       5       2
       2       2       2       5       2       2       5       2       2       2
       2       2       2       2       2       2       2       2       2       2
       5       2       5       5       2       5       2       2       5       2
       5       2       5       2       5       2       5       2       5       2
       5       2       5       2       5       5       2       5       5       5
       2       5       2       5       5       2       5       5       2       5
       5       1       1       1       1       1       1       3       3       3
       3       3       3       4       4       4       4       4       4       4
       4       4       4       4       4       4       4       4       4       4
       4       1       2       3       2       2       4       4       4       2
       5       2       5       2       5       5       6       2       2       2
       2       2       2       2       5       2       5       2       5       2
       5       2       3       5       2       5       5       2       2       2
       2       1       2       2       2       2       2       2       3       2
       5       2       5       2       5       2       5       2       2       4
       4       4       5       6       6       2       5       6       2       5
       2       2       2       2       5       2       2       5       2       2
       2       2       2       2       2       2       2       2       2       2
       2       5       2       5       5       2       5       2       2       5
       2       5       2       5       2       5       2       5       2       5
       2       5       2       5       2       5       5       2       5       5
       5       2       5       2       5       5       2       5       5       2
       5       5       1       1       1       1       1       1       3       3
       3       3       3       3       4       4       4       4       4       4
       4       4       4       4       4       4       4       4       4       4
       4       4       1       2       3       2       2       4       4       4
       2       5       2       5       2       5       5       6       2       2
       2       2       2       2       2       5       2       5       2       5
       2       5       2       3       5       2       5       5       2       2
       2       2       1       2       2       2       2       2       2       3
       2       5       2       5       2       5       2       5       2       2
       4       4       4       5       6       6       2       5       6       2
       5       2       2       2       2       5       2       2       5       2
       2       2       2       2       2       2       2       2       2       2
       2       2       5       2       5       5       2       5       2       2
       5       2       5       2       5       2       5       2       5       2
       5       2       5       2       5       2       5       5       2       5
       5       5       2       5       2       5       5       2       5       5
       2       5       5       1       1       1       1       1       1       3
       3       3       3       3       3       4       4       4       4       4
       4       4       4       4       4       4       4       4       4       4
       4       4       4       1       2       3       2       2       4       4
       4       2       5       2       5       2       5       5       6       2
       2       2       2       2       2       2       5       2       5       2
       5       2       5       2       3       5       2       5       5       2
       2       2       2       1       2       2       2       2       2       2
       3       2       5       2       5       2       5       2       5       2
       2       4       4       4       5       6       6       2       5       6
       2       5       2       2       2       2       5       2       2       5
       2       2       2       2       2       2       2       2       2       2
       2       2       2       5       2       5       5       2       5       2
       2       5       2       5       2       5       2       5       2       5
       2       5       2       5       2       5       2       5       5       2
       5       5       5       2       5       2       5       5       2       5
       5       2       5       5       1       1       1       1       1       1
       3       3       3       3       3       3       4       4       4       4
       4       4       4       4       4       4       4       4       4       4
       4       4       4       4       1       2       3       2       2       4
       4       4       2       5       2       5       2       5       5       6
       2       2       2       2       2       2       2       5       2       5
       2       5       2       5       2       3       5       2       5       5
       2       2       2       2       1       2       2       2       2       2
       2       3       2       5       2       5       2       5       2       5
       2       2       4       4       4       5       6       6       2       5
       6       2       5       2       2       2       2       5       2       2
       5       2       2       2       2       2       2       2       2       2
       2       2       2       2       5       2       5       5       2       5
       2       2       5       2       5       2       5       2       5       2
       5       2       5       2       5       2       5       2       5       5
       2       5       5       5       2       5       2       5       5       2
       5       5       2       5       5       1       1       1       1       1
       1       3       3       3       3       3       3       4       4       4
       4       4       4       4       4       4       4       4       4       4
       4       4       4       4       4       1       2       3       2       2
       4       4       4       2       5       2       5       2       5       5
       6       2       2       2       2       2       2       2       5       2
       5       2       5       2       5       2       3       5       2       5
       5       2       2       2       2       1       2       2       2       2
       2       2       3       2       5       2       5       2       5       2
       5       2       2       4       4       4       5       6       6       2
       5       6       2       5       2       2       2       2       5       2
       2       5       2       2       2       2       2       2       2       2
       2       2       2       2       2       5       2       5       5       2
       5       2       2       5       2       5       2       5       2       5
       2       5       2       5       2       5       2       5       2       5
       5       2       5       5       5       2       5       2       5       5
       2       5       5       2       5       5       1       1       1       1
       1       1       3       3       3       3       3       3       4       4
       4       4       4       4       4       4       4       4       4       4
       4       4       4       4       4       4       1       2       3       2
       2       4       4       4       2       5       2       5       2       5
       5       6       2       2       2       2       2       2       2       5
       2       5       2       5       2       5       2       3       5       2
       5       5       2       2       2       2       1       2       2       2
       2       2       2       3       2       5       2       5       2       5
       2       5       2       2       4       4       4       5       6       6
       2       5       6       2       5       2       2       2       2       5
       2       2       5       2       2       2       2       2       2       2
       2       2       2       2       2       2       5       2       5       5
       2       5       2       2       5       2       5       2       5       2
       5       2       5       2       5       2       5       2       5       2
       5       5       2       5       5       5       2       5       2       5
       5       2       5       5       2       5       5       1       1       1
       1       1       1       3       3       3       3       3       3       4
       4       4       4       4       4       4       4       4       4       4
       4       4       4       4       4       4       4       1       2       3
       2       2       4       4       4       2       5       2       5       2
       5       5       6       2       2       2       2       2       2       2
       5       2       5       2       5       2       5       2       3       5
       2       5       5       2       2       2       2       1       2       2
       2       2       2       2       3       2       5       2       5       2
       5       2       5       2       2       4       4       4       5       6
       6       2       5       6       2       5       2       2       2       2
       5       2       2       5       2       2       2       2       2       2
       2       2       2       2       2       2       2       5       2       5
       5       2       5       2       2       5       2       5       2       5
       2       5       2       5       2       5       2       5       2       5
       2       5       5       2       5       5       5       2       5       2
       5       5       2       5       5       2       5       5       1       1
       1       1       1       1       3       3       3       3       3       3
       4       4       4       4       4       4       4       4       4       4
       4       4       4       4       4       4       4       4       1       2
       3       2       2       4       4       4       2       5       2       5
       2       5       5       6       2       2       2       2       2       2
       2       5       2       5       2       5       2       5       2       3
       5       2       5       5       2       2       2       2       1       2
       2       2       2       2       2       3       2       5       2       5
       2       5       2       5       2       2       4       4       4       5
       6       6       2       5       6       2       5       2       2       2
       2       5       2       2       5       2       2       2       2       2
       2       2       2       2       2       2       2       2       5       2
       5       5       2       5       2       2       5       2       5       2
       5       2       5       2       5       2       5       2       5       2
       5       2       5       5       2       5       5       5       2       5
       2       5       5       2       5       5       2       5       5       1
       1       1       1       1       1       3       3       3       3       3
       3       4       4       4       4       4       4       4       4       4
       4       4       4       4       4       4       4       4       4       1
       2       3       2       2       4       4       4       2       5       2
       5       2       5       5       6       2       2       2       2       2
       2       2       5       2       5       2       5       2       5       2
       3       5       2       5       5       2       2       2       2       1
       2       2       2       2       2       2       3       2       5       2
       5       2       5       2       5       2       2       4       4       4
       5       6       6       2       5       6       2       5       2       2
       2       2       5       2       2       5       2       2       2       2
       2       2       2       2       2       2       2       2       2       5
       2       5       5       2       5       2       2       5       2       5
       2       5       2       5       2       5       2       5       2       5
       2       5       2       5       5       2       5       5       5       2
       5       2       5       5       2       5       5       2       5       5
       1       1       1       1       1       1       3       3       3       3
       3       3       4       4       4       4       4       4       4       4
       4       4       4       4       4       4       4       4       4       4
       1       2       3       2       2       4       4       4       2       5
       2       5       2       5       5       6       2       2       2       2
       2       2       2       5       2       5       2       5       2       5
       2       3       5       2       5       5       2       2       2       2
       1       2       2       2       2       2       2       3       2       5
       2       5       2       5       2       5       2       2       4       4
       4       5       6       6       2       5       6       2       5       2
       2       2       2       5       2       2       5       2       2       2
       2       2       2       2       2       2       2       2       2       2
       5       2       5       5       2       5       2       2       5       2
       5       2       5       2       5       2       5       2       5       2
       5       2       5       2       5       5       2       5       5       5
       2       5       2       5       5       2       5       5       2       5
       5       1       1       1       1       1       1       3       3       3
       3       3       3       4       4       4       4       4       4       4
       4       4       4       4       4       4       4       4       4       4
       4       1       2       3       2       2       4       4       4       2
       5       2       5       2       5       5       6       2       2       2
       2       2       2       2       5       2       5       2       5       2
       5       2       3       5       2       5       5       2       2       2
       2       1       2       2       2       2       2       2       3       2
       5       2       5       2       5       2       5       2       2       4
       4       4       5       6       6       2       5       6       2       5
       2       2       2       2       5       2       2       5       2       2
       2       2       2       2       2       2       2       2       2       2
       2       5       2       5       5       2       5       2       2       5
       2       5       2       5       2       5       2       5       2       5
       2       5       2       5       2       5       5       2       5       5
       5       2       5       2       5       5       2       5       5       2
       5       5       1       1       1       1       1       1       3       3
       3       3       3       3       4       4       4       4       4       4
       4       4       4       4       4       4       4       4       4       4
       4       4       1       2       3       2       2       4       4       4
       2       5       2       5       2       5       5       6       2       2
       2       2       2       2       2       5       2       5       2       5
       2       5       2       3       5       2       5       5       2       2
       2       2       1       2       2       2       2       2       2       3
       2       5       2       5       2       5       2       5       2       2
       4       4       4       5       6       6       2       5       6       2
       5       2       2       2       2       5       2       2       5       2
       2       2       2       2       2       2       2       2       2       2
       2       2       5       2       5       5       2       5       2       2
       5       2       5       2       5       2       5       2       5       2
       5       2       5       2       5       2       5       5       2       5
       5       5       2       5       2       5       5       2       5       5
       2       5       5       1       1       1       1       1       1       3
       3       3       3       3       3       4       4       4       4       4
       4       4       4       4       4       4       4       4       4       4
       4       4       4       1       2       3       2       2       4       4
       4       2       5       2       5       2       5       5       6       2
       2       2       2       2       2       2       5       2       5       2
       5       2       5       2       3       5       2       5       5       2
       2       2       2       1       2       2       2       2       2       2
       3       2       5       2       5       2       5       2       5       2
       2       4       4       4       5       6       6       2       5       6
       2       5       2       2       2       2       5       2       2       5
       2       2       2       2       2       2       2       2       2       2
       2       2       2       5       2       5       5       2       5       2
       2       5       2       5       2       5       2       5       2       5
       2       5       2       5       2       5       2       5       5       2
       5       5       5       2       5       2       5       5       2       5
       5       2       5       5       1       1       1       1       1       1
       3       3       3       3       3       3       4       4       4       4
       4       4       4       4       4       4       4       4       4       4
       4       4       4       4       1       2       3       2       2       4
       4       4       2       5       2       5       2       5       5       6
       2       2       2       2       2       2       2       5       2       5
       2       5       2       5       2       3       5       2       5       5
       2       2       2       2       1       2       2       2       2       2
       2       3       2       5       2       5       2       5       2       5
       2       2       4       4       4       5       6       6       2       5
       6       2       5       2       2       2       2       5       2       2
       5       2       2       2       2       2       2       2       2       2
       2       2       2       2       5       2       5       5       2       5
       2       2       5       2       5       2       5       2       5       2
       5       2       5       2       5       2       5       2       5       5
       2       5       5       5       2       5       2       5       5       2
       5       5       2       5       5       1       1       1       1       1
       1       3       3       3       3       3       3       4       4       4
       4       4       4       4       4       4       4       4       4       4
       4       4       4       4       4       1       2       3       2       2
       4       4       4       2       5       2       5       2       5       5
       6       2       2       2       2       2       2       2       5       2
       5       2       5       2       5       2       3       5       2       5
       5       2       2       2       2       1       2       2       2       2
       2       2       3       2       5       2       5       2       5       2
       5       2       2       4       4       4       5       6       6       2
       5       6       2       5       2       2       2       2       5       2
       2       5       2       2       2       2       2       2       2       2
       2       2       2       2       2       5       2       5       5       2
       5       2       2       5       2       5       2       5       2       5
       2       5       2       5       2       5       2       5       2       5
       5       2       5       5       5       2       5       2       5       5
       2       5       5       2       5       5       1       1       1       1
       1       1       3       3       3       3       3       3       4       4
       4       4       4       4       4       4       4       4       4       4
       4       4       4       4       4       4       1       2       3       2
       2       4       4       4       2       5       2       5       2       5
       5       6       2       2       2       2       2       2       2       5
       2       5       2       5       2       5       2       3       5       2
       5       5       2       2       2       2       1       2       2       2
       2       2       2       3       2       5       2       5       2       5
       2       5       2       2       4       4       4       5       6       6
       2       5       6       2       5       2       2       2       2       5
       2       2       5       2       2       2       2       2       2       2
       2       2       2       2       2       2       5       2       5       5
       2       5       2       2       5       2       5       2       5       2
       5       2       5       2       5       2       5       2       5       2
       5       5       2       5       5       5       2       5       2       5
       5       2       5       5       2       5       5       1       1       1
       1       1       1       3       3       3       3       3       3       4
       4       4       4       4       4       4       4       4       4       4
       4       4       4       4       4       4       4       1       2       3
       2       2       4       4       4       2       5       2       5       2
       5       5       6       2       2       2       2       2       2       2
       5       2       5       2       5       2       5       2       3       5
       2       5       5       2       2       2       2       1       2       2
       2       2       2       2       3       2       5       2       5       2
       5       2       5       2       2       4       4       4       5       6
       6       2       5       6       2       5       2       2       2       2
       5       2       2       5       2       2       2       2       2       2
       2       2       2       2       2       2       2       5       2       5
       5       2       5       2       2       5       2       5       2       5
       2       5       2       5       2       5       2       5       2       5
       2       5       5       2       5       5       5       2       5       2
       5       5       2       5       5       2       5       5       1       1
       1       1       1       1       3       3       3       3       3       3
       4       4       4       4       4       4       4       4       4       4
       4       4       4       4       4       4       4       4       1       2
       3       2       2       4       4       4       2       5       2       5
       2       5       5       6       2       2       2       2       2       2
       2       5       2       5       2       5       2       5       2       3
       5       2       5       5       2       2       2       2       1       2
       2       2       2       2       2       3       2       5       2       5
       2       5       2       5       2       2       4       4       4       5
       6       6       2       5       6       2       5       2       2       2
       2       5       2       2       5       2       2       2       2       2
       2       2       2       2       2       2       2       2       5       2
       5       5       2       5       2       2       5       2       5       2
       5       2       5       2       5       2       5       2       5       2
       5       2       5       5       2       5       5       5       2       5
       2       5       5       2       5       5       2       5       5       1
       1       1       1       1       1       3       3       3       3       3
       3       4       4       4       4       4       4       4       4       4
       4       4       4       4       4       4       4       4       4       1
       2       3       2       2       4       4       4       2       5       2
       5       2       5       5       6       2       2       2       2       2
       2       2       5       2       5       2       5       2       5       2
       3       5       2       5       5       2       2       2       2       1
       2       2       2       2       2       2       3       2       5       2
       5       2       5       2       5       2       2       4       4       4
       5       6       6       2       5       6       2       5       2       2
       2       2       5       2       2       5       2       2       2       2
       2       2       2       2       2       2       2       2       2       5
       2       5       5       2       5       2       2       5       2       5
       2       5       2       5       2       5       2       5       2       5
       2       5       2       5       5       2       5       5       5       2
       5       2       5       5       2       5       5       2       5       5
       1       1       1       1       1       1       3       3       3       3
       3       3       4       4       4       4       4       4       4       4
       4       4       4       4       4       4       4       4       4       4
       1       2       3       2       2       4       4       4       2       5
       2       5       2       5       5       6       2       2       2       2
       2       2       2       5       2       5       2       5       2       5
       2       3       5       2       5       5       2       2       2       2
       1       2       2       2       2       2       2       3       2       5
       2       5       2       5       2       5       2       2       4       4
       4       5       6       6       2       5       6       2       5       2
       2       2       2       5       2       2       5       2       2       2
       2       2       2       2       2       2       2       2       2       2
       5       2       5       5       2       5       2       2       5       2
       5       2       5       2       5       2       5       2       5       2
       5       2       5       2       5       5       2       5       5       5
       2       5       2       5       5       2       5       5       2       5
       5       1       1       1       1       1       1       3       3       3
       3       3       3       4       4       4       4       4       4       4
       4       4       4       4       4       4       4       4       4       4
       4       1       2       3       2       2       4       4       4       2
       5       2       5       2       5       5       6       2       2       2
       2       2       2       2       5       2       5       2       5       2
       5       2       3       5       2       5       5       2       2       2
       2       1       2       2       2       2       2       2       3       2
       5       2       5       2       5       2       5       2       2       4
       4       4       5       6       6       2       5       6       2       5
       2       2       2       2       5       2       2       5       2       2
       2       2       2       2       2       2       2       2       2       2
       2       5       2       5       5       2       5       2       2       5
       2       5       2       5       2       5       2       5       2       5
       2       5       2       5       2       5       5       2       5       5
       5       2       5       2       5       5       2       5       5       2
       5       5       1       1       1       1       1       1       3       3
       3       3       3       3       4       4       4       4       4       4
       4       4       4       4       4       4       4       4       4       4
       4       4       1       2       3       2       2       4       4       4
       2       5       2       5       2       5       5       6       2       2
       2       2       2       2       2       5       2       5       2       5
       2       5       2       3       5       2       5       5       2       2
       2       2       1       2       2       2       2       2       2       3
       2       5       2       5       2       5       2       5       2       2
       4       4       4       5       6       6       2       5       6       2
       5       2       2       2       2       5       2       2       5       2
       2       2       2       2       2       2       2       2       2       2
       2       2       5       2       5       5       2       5       2       2
       5       2       5       2       5       2       5       2       5       2
       5       2       5       2       5       2       5       5       2       5
       5       5       2       5       2       5       5       2       5       5
       2       5       5       1       1       1       1       1       1       3
       3       3       3       3       3       4       4       4       4       4
       4       4       4       4       4       4       4       4       4       4
       4       4       4       1       2       3       2       2       4       4
       4       2       5       2       5       2       5       5       6       2
       2       2       2       2       2       2       5       2       5       2
       5       2       5       2       3       5       2       5       5       2
       2       2       2       1       2       2       2       2       2       2
       3       2       5       2       5       2       5       2       5       2
       2       4       4       4       5       6       6       2       5       6
       2       5       2       2       2       2       5       2       2       5
       2       2       2       2       2       2       2       2       2       2
       2       2       2       5       2       5       5       2       5       2
       2       5       2       5       2       5       2       5       2       5
       2       5       2       5       2       5       2       5       5       2
       5       5       5       2       5       2       5       5       2       5
       5       2       5       5       1       1       1       1       1       1
       3       3       3       3       3       3       4       4       4       4
       4       4       4       4       4       4       4       4       4       4
       4       4       4       4       1       2       3       2       2       4
       4       4       2       5       2       5       2       5       5       6
       2       2       2       2       2       2       2       5       2       5
       2       5       2       5       2       3       5       2       5       5
       2       2       2       2       1       2       2       2       2       2
       2       3       2       5       2       5       2       5       2       5
       2       2       4       4       4       5       6       6       2       5
       6       2       5       2       2       2       2       5       2       2
       5       2       2       2       2       2       2       2       2       2
       2       2       2       2       5       2       5       5       2       5
       2       2       5       2       5       2       5       2       5       2
       5       2       5       2       5       2       5       2       5       5
       2       5       5       5       2       5       2       5       5       2
       5       5       2       5       5       1       1       1       1       1
       1       3       3       3       3       3       3       4       4       4
       4       4       4       4       4       4       4       4       4       4
       4       4       4       4       4       1       2       3       2       2
       4       4       4       2       5       2       5       2       5       5
       6       2       2       2       2       2       2       2       5       2
       5       2       5       2       5       2       3       5       2       5
       5       2       2       2       2       1       2       2       2       2
       2       2       3       2       5       2       5       2       5       2
       5       2       2       4       4       4       5       6       6       2
       5       6       2       5       2       2       2       2       5       2
       2       5       2       2       2       2       2       2       2       2
       2       2       2       2       2       5       2       5       5       2
       5       2       2       5       2       5       2       5       2       5
       2       5       2       5       2       5       2       5       2       5
       5       2       5       5       5       2       5       2       5       5
       2       5       5       2       5       5       1       1       1       1
       1       1       3       3       3       3       3       3       4       4
       4       4       4       4       4       4       4       4       4       4
       4       4       4       4       4       4       1       2       3       2
       2       4       4       4       2       5       2       5       2       5
       5       6       2       2       2       2       2       2       2       5
       2       5       2       5       2       5       2       3       5       2
       5       5       2       2       2       2       1       2       2       2
       2       2       2       3       2       5       2       5       2       5
       2       5       2       2       4       4       4       5       6       6
       2       5       6       2       5       2       2       2       2       5
       2       2       5       2       2       2       2       2       2       2
       2       2       2       2       2       2       5       2       5       5
       2       5       2       2       5       2       5       2       5       2
       5       2       5       2       5       2       5       2       5       2
       5       5       2       5       5       5       2       5       2       5
       5       2       5       5       2       5       5       1       1       1
       1       1       1       3       3       3       3       3       3       4
       4       4       4       4       4       4       4       4       4       4
       4       4       4       4       4       4       4       1       2       3
       2       2       4       4       4       2       5       2       5       2
       5       5       6       2       2       2       2       2       2       2
       5       2       5       2       5       2       5       2       3       5
       2       5       5       2       2       2       2       1       2       2
       2       2       2       2       3       2       5       2       5       2
       5       2       5       2       2       4       4       4       5       6
       6       2       5       6       2       5       2       2       2       2
       5       2       2       5       2       2       2       2       2       2
       2       2       2       2       2       2       2       5       2       5
       5       2       5       2       2       5       2       5       2       5
       2       5       2       5       2       5       2       5       2       5
       2       5       5       2       5       5       5       2       5       2
       5       5       2       5       5       2       5       5       1       1
       1       1       1       1       3       3       3       3       3       3
       4       4       4       4       4       4       4       4       4       4
       4       4       4       4       4       4       4       4       1       2
       3       2       2       4       4       4       2       5       2       5
       2       5       5       6       2       2       2       2       2       2
       2       5       2       5       2       5       2       5       2       3
       5       2       5       5       2       2       2       2       1       2
       2       2       2       2       2       3       2       5       2       5
       2       5       2       5       2       2       4       4       4       5
       6       6       2       5       6       2       5       2       2       2
       2       5       2       2       5       2       2       2       2       2
       2       2       2       2       2       2       2       2       5       2
       5       5       2       5       2       2       5       2       5       2
       5       2       5       2       5       2       5       2       5       2
       5       2       5       5       2       5       5       5       2       5
       2       5       5       2       5       5       2       5       5       1
       1       1       1       1       1       3       3       3       3       3
       3       4       4       4       4       4       4       4       4       4
       4       4       4       4       4       4       4       4       4       1
       2       3       2       2       4       4       4       2       5       2
       5       2       5       5       6       2       2       2       2       2
       2       2       5       2       5       2       5       2       5       2
       3       5       2       5       5       2       2       2       2       1
       2       2       2       2       2       2       3       2       5       2
       5       2       5       2       5       2       2       4       4       4
       5       6       6       2       5       6       2       5       2       2
       2       2       5       2       2       5       2       2       2       2
       2       2       2       2       2       2       2       2       2       5
       2       5       5       2       5       2       2       5       2       5
       2       5       2       5       2       5       2       5       2       5
       2       5       2       5       5       2       5       5       5       2
       5       2       5       5       2       5       5       2       5       5
       1       1       1       1       1       1       3       3       3       3
       3       3       4       4       4       4       4       4       4       4
       4       4       4       4       4       4       4       4       4       4
       1       2       3       2       2       4       4       4       2       5
       2       5       2       5       5       6       2       2       2       2
       2       2       2       5       2       5       2       5       2       5
       2       3       5       2       5       5       2       2       2       2
       1       2       2       2       2       2       2       3       2       5
       2       5       2       5       2       5       2       2       4       4
       4       5       6       6       2       5       6       2       5       2
       2       2       2       5       2       2       5       2       2       2
       2       2       2       2       2       2       2       2       2       2
       5       2       5       5       2       5       2       2       5       2
       5       2       5       2       5       2       5       2       5       2
       5       2       5       2       5       5       2       5       5       5
       2       5       2       5       5       2       5       5       2       5
       5       1       1       1       1       1       1       3       3       3
       3       3       3       4       4       4       4       4       4       4
       4       4       4       4       4       4       4       4       4       4
       4       1       2       3       2       2       4       4       4       2
       5       2       5       2       5       5       6       2       2       2
       2       2       2       2       5       2       5       2       5       2
       5       2       3       5       2       5       5       2       2       2
       2       1       2       2       2       2       2       2       3       2
       5       2       5       2       5       2       5       2       2       4
       4       4       5       6       6       2       5       6       2       5
       2       2       2       2       5       2       2       5       2       2
       2       2       2       2       2       2       2       2       2       2
       2       5       2       5       5       2       5       2       2       5
       2       5       2       5       2       5       2       5       2       5
       2       5       2       5       2       5       5       2       5       5
       5       2       5       2       5       5       2       5       5       2
       5       5       1       1       1       1       1       1       3       3
       3       3       3       3       4       4       4       4       4       4
       4       4       4       4       4       4       4       4       4       4
       4       4       1       2       3       2       2       4       4       4
       2       5       2       5       2       5       5       6       2       2
       2       2       2       2       2       5       2       5       2       5
       2       5       2       3       5       2       5       5       2       2
       2       2       1       2       2       2       2       2       2       3
       2       5       2       5       2       5       2       5       2       2
       4       4       4       5       6       6       2       5       6       2
       5       2       2       2       2       5       2       2       5       2
       2       2       2       2       2       2       2       2       2       2
       2       2       5       2       5       5       2       5       2       2
       5       2       5       2       5       2       5       2       5       2
       5       2       5       2       5       2       5       5       2       5
       5       5       2       5       2       5       5       2       5       5
       2       5       5       1       1       1       1       1       1       3
       3       3       3       3       3       4       4       4       4       4
       4       4       4       4       4       4       4       4       4       4
       4       4       4       1       2       3       2       2       4       4
       4       2       5       2       5       2       5       5       6       2
       2       2       2       2       2       2       5       2       5       2
       5       2       5       2       3       5       2       5       5       2
       2       2       2       1       2       2       2       2       2       2
       3       2       5       2       5       2       5       2       5       2
       2       4       4       4       5       6       6       2       5       6
       2       5       2       2       2       2       5       2       2       5
       2       2       2       2       2       2       2       2       2       2
       2       2       2       5       2       5       5       2       5       2
       2       5       2       5       2       5       2       5       2       5
       2       5       2       5       2       5       2       5       5       2
       5       5       5       2       5       2       5       5       2       5
       5       2       5       5       1       1       1       1       1       1
       3       3       3       3       3       3       4       4       4       4
       4       4       4       4       4       4       4       4       4       4
       4       4       4       4       1       2       3       2       2       4
       4       4       2       5       2       5       2       5       5       6
       2       2       2       2       2       2       2       5       2       5
       2       5       2       5       2       3       5       2       5       5
       2       2       2       2       1       2       2       2       2       2
       2       3       2       5       2       5       2       5       2       5
       2       2       4       4       4       5       6       6       2       5
       6       2       5       2       2       2       2       5       2       2
       5       2       2       2       2       2       2       2       2       2
       2       2       2       2       5       2       5       5       2       5
       2       2       5       2       5       2       5       2       5       2
       5       2       5       2       5       2       5       2       5       5
       2       5       5       5       2       5       2       5       5       2
       5       5       2       5       5       1       1       1       1       1
       1       3       3       3       3       3       3       4       4       4
       4       4       4       4       4       4       4       4       4       4
       4       4       4       4       4       1       2       3       2       2
       4       4       4       2       5       2       5       2       5       5
       6       2       2       2       2       2       2       2       5       2
       5       2       5       2       5       2       3       5       2       5
       5       2       2       2       2       1       2       2       2       2
       2       2       3       2       5       2       5       2       5       2
       5       2       2       4       4       4       5       6       6       2
       5       6       2       5       2       2       2       2       5       2
       2       5       2       2       2       2       2       2       2       2
       2       2       2       2       2       5       2       5       5       2
       5       2       2       5       2       5       2       5       2       5
       2       5       2       5       2       5       2       5       2       5
       5       2       5       5       5       2       5       2       5       5
       2       5       5       2       5       5       1       1       1       1
       1       1       3       3       3       3       3       3       4       4
       4       4       4       4       4       4       4       4       4       4
       4       4       4       4       4       4       1       2       3       2
       2       4       4       4       2       5       2       5       2       5
       5       6       2       2       2       2       2       2       2       5
       2       5       2       5       2       5       2       3       5       2
       5       5       2       2       2       2       1       2       2       2
       2       2       2       3       2       5       2       5       2       5
       2       5       2       2       4       4       4       5       6       6
       2       5       6       2       5       2       2       2       2       5
       2       2       5       2       2       2       2       2       2       2
       2       2       2       2       2       2       5       2       5       5
       2       5       2       2       5       2       5       2       5       2
       5       2       5       2       5       2       5       2       5       2
       5       5       2       5       5       5       2       5       2       5
       5       2       5       5       2       5       5       1       1       1
       1       1       1       3       3       3       3       3       3       4
       4       4       4       4       4       4       4       4       4       4
       4       4       4       4       4       4       4       1       2       3
       2       2       4       4       4       2       5       2       5       2
       5       5       6       2       2       2       2       2       2       2
       5       2       5       2       5       2       5       2       3       5
       2       5       5       2       2       2       2       1       2       2
       2       2       2       2       3       2       5       2       5       2
       5       2       5       2       2       4       4       4       5       6
       6       2       5       6       2       5       2       2       2       2
       5       2       2       5       2       2       2       2       2       2
       2       2       2       2       2       2       2       5       2       5
       5       2       5       2       2       5       2       5       2       5
       2       5       2       5       2       5       2       5       2       5
       2       5       5       2       5       5       5       2       5       2
       5       5       2       5       5       2       5       5       1       1
       1       1       1       1       3       3       3       3       3       3
       4       4       4       4       4       4       4       4       4       4
       4       4       4       4       4       4       4       4       1       2
       3       2       2       4       4       4       2       5       2       5
       2       5       5       6       2       2       2       2       2       2
       2       5       2       5       2       5       2       5       2       3
       5       2       5       5       2       2       2       2       1       2
       2       2       2       2       2       3       2       5       2       5
       2       5       2       5       2       2       4       4       4       5
       6       6       2       5       6       2       5       2       2       2
       2       5       2       2       5       2       2       2       2       2
       2       2       2       2       2       2       2       2       5       2
       5       5       2       5       2       2       5       2       5       2
       5       2       5       2       5       2       5       2       5       2
       5       2       5       5       2       5       5       5       2       5
       2       5       5       2       5       5       2       5       5       1
       1       1       1       1       1       3       3       3       3       3
       3       4       4       4       4       4       4       4       4       4
       4       4       4       4       4       4       4       4       4       1
       2       3       2       2       4       4       4       2       5       2
       5       2       5       5       6       2       2       2       2       2
       2       2       5       2       5       2       5       2       5       2
       3       5       2       5       5       2       2       2       2       1
       2       2       2       2       2       2       3       2       5       2
       5       2       5       2       5       2       2       4       4       4
       5       6       6       2       5       6       2       5       2       2
       2       2       5       2       2       5       2       2       2       2
       2       2       2       2       2       2       2       2       2       5
       2       5       5       2       5       2       2       5       2       5
       2       5       2       5       2       5       2       5       2       5
       2       5       2       5       5       2       5       5       5       2
       5       2       5       5       2       5       5       2       5       5
       1       1       1       1       1       1       3       3       3       3
       3       3       4       4       4       4       4       4       4       4
       4       4       4       4       4       4       4       4       4       4
       1       2       3       2       2       4       4       4       2       5
       2       5       2       5       5       6       2       2       2       2
       2       2       2       5       2       5       2       5       2       5
       2       3       5       2       5       5       2       2       2       2
       1       2       2       2       2       2       2       3       2       5
       2       5       2       5       2       5       2       2       4       4
       4       5       6       6       2       5       6       2       5       2
       2       2       2       5       2       2       5       2       2       2
       2       2       2       2       2       2       2       2       2       2
       5       2       5       5       2       5       2       2       5       2
       5       2       5       2       5       2       5       2       5       2
       5       2       5       2       5       5       2       5       5       5
       2       5       2       5       5       2       5       5       2       5
       5       1       1       1       1       1       1       3       3       3
       3       3       3       4       4       4       4       4       4       4
       4       4       4       4       4       4       4       4       4       4
       4       1       2       3       2       2       4       4       4       2
       5       2       5       2       5       5       6       2       2       2
       2       2       2       2       5       2       5       2       5       2
       5       2       3       5       2       5       5       2       2       2
       2       1       2       2       2       2       2       2       3       2
       5       2       5       2       5       2       5       2       2       4
       4       4       5       6       6       2       5       6       2       5
       2       2       2       2       5       2       2       5       2       2
       2       2       2       2       2       2       2       2       2       2
       2       5       2       5       5       2       5       2       2       5
       2       5       2       5       2       5       2       5       2       5
       2       5       2       5       2       5       5       2       5       5
       5       2       5       2       5       5       2       5       5       2
       5       5       1       1       1       1       1       1       3       3
       3       3       3       3       4       4       4       4       4       4
       4       4       4       4       4       4       4       4       4       4
       4       4       1       2       3       2       2       4       4       4
       2       5       2       5       2       5       5       6       2       2
       2       2       2       2       2       5       2       5       2       5
       2       5       2       3       5       2       5       5       2       2
       2       2       1       2       2       2       2       2       2       3
       2       5       2       5       2       5       2       5       2       2
       4       4       4       5       6       6       2       5       6       2
       5       2       2       2       2       5       2       2       5       2
       2       2       2       2       2       2       2       2       2       2
       2       2       5       2       5       5       2       5       2       2
       5       2       5       2       5       2       5       2       5       2
       5       2       5       2       5       2       5       5       2       5
       5       5       2       5       2       5       5       2       5       5
       2       5       5       1       1       1       1       1       1       3
       3       3       3       3       3       4       4       4       4       4
       4       4       4       4       4       4       4       4       4       4
       4       4       4       1       2       3       2       2       4       4
       4       2       5       2       5       2       5       5       6       2
       2       2       2       2       2       2       5       2       5       2
       5       2       5       2       3       5       2       5       5       2
       2       2       2       1       2       2       2       2       2       2
       3       2       5       2       5       2       5       2       5       2
       2       4       4       4       5       6       6       2       5       6
       2       5       2       2       2       2       5       2       2       5
       2       2       2       2       2       2       2       2       2       2
       2       2       2       5       2       5       5       2       5       2
       2       5       2       5       2       5       2       5       2       5
       2       5       2       5       2       5       2       5       5       2
       5       5       5       2       5       2       5       5       2       5
       5       2       5       5       1       1       1       1       1       1
       3       3       3       3       3       3       4       4       4       4
       4       4       4       4       4       4       4       4       4       4
       4       4       4       4       1       2       3       2       2       4
       4       4       2       5       2       5       2       5       5       6
       2       2       2       2       2       2       2       5       2       5
       2       5       2       5       2       3       5       2       5       5
       2       2       2       2       1       2       2       2       2       2
       2       3       2       5       2       5       2       5       2       5
       2       2       4       4       4       5       6       6       2       5
       6       2       5       2       2       2       2       5       2       2
       5       2       2       2       2       2       2       2       2       2
       2       2       2       2       5       2       5       5       2       5
       2       2       5       2       5       2       5       2       5       2
       5       2       5       2       5       2       5       2       5       5
       2       5       5       5       2       5       2       5       5       2
       5       5       2       5       5       1       1       1       1       1
       1       3       3       3       3       3       3       4       4       4
       4       4       4       4       4       4       4       4       4       4
       4       4       4       4       4       1       2       3       2       2
       4       4       4       2       5       2       5       2       5       5
       6       2       2       2       2       2       2       2       5       2
       5       2       5       2       5       2       3       5       2       5
       5       2       2       2       2       1       2       2       2       2
       2       2       3       2       5       2       5       2       5       2
       5       2       2       4       4       4       5       6       6       2
       5       6       2       5       2       2       2       2       5       2
       2       5       2       2       2       2       2       2       2       2
       2       2       2       2       2       5       2       5       5       2
       5       2       2       5       2       5       2       5       2       5
       2       5       2       5       2       5       2       5       2       5
       5       2       5       5       5       2       5       2       5       5
       2       5       5       2       5       5       1       1       1       1
       1       1       3       3       3       3       3       3       4       4
       4       4       4       4       4       4       4       4       4       4
       4       4       4       4       4       4       1       2       3       2
       2       4       4       4       2       5       2       5       2       5
       5       6       2       2       2       2       2       2       2       5
       2       5       2       5       2       5       2       3       5       2
       5       5       2       2       2       2       1       2       2       2
       2       2       2       3       2       5       2       5       2       5
       2       5       2       2       4       4       4       5       6       6
       2       5       6       2       5       2       2       2       2       5
       2       2       5       2       2       2       2       2       2       2
       2       2       2       2       2       2       5       2       5       5
       2       5       2       2       5       2       5       2       5       2
       5       2       5       2       5       2       5       2       5       2
       5       5       2       5       5       5       2       5       2       5
       5       2       5       5       2       5       5       1       1       1
       1       1       1       3       3       3       3       3       3       4
       4       4       4       4       4       4       4       4       4       4
       4       4       4       4       4       4       4       1       2       3
       2       2       4       4       4       2       5       2       5       2
       5       5       6       2       2       2       2       2       2       2
       5       2       5       2       5       2       5       2       3       5
       2       5       5       2       2       2       2       1       2       2
       2       2       2       2       3       2       5       2       5       2
       5       2       5       2       2       4       4       4       5       6
       6       2       5       6       2       5       2       2       2       2
       5       2       2       5       2       2       2       2       2       2
       2       2       2       2       2       2       2       5       2       5
       5       2       5       2       2       5       2       5       2       5
       2       5       2       5       2       5       2       5       2       5
       2       5       5       2       5       5       5       2       5       2
       5       5       2       5       5       2       5       5       1       1
       1       1       1       1       3       3       3       3       3       3
       4       4       4       4       4       4       4       4       4       4
       4       4       4       4       4       4       4       4       1       2
       3       2       2       4       4       4       2       5       2       5
       2       5       5       6       2       2       2       2       2       2
       2       5       2       5       2       5       2       5       2       3
       5       2       5       5       2       2       2       2       1       2
       2       2       2       2       2       3       2       5       2       5
       2       5       2       5       2       2       4       4       4       5
       6       6       2       5       6       2       5       2       2       2
       2       5       2       2       5       2       2       2       2       2
       2       2       2       2       2       2       2       2       5       2
       5       5       2       5       2       2       5       2       5       2
       5       2       5       2       5       2       5       2       5       2
       5       2       5       5       2       5       5       5       2       5
       2       5       5       2       5       5       2       5       5       1
       1       1       1       1       1       3       3       3       3       3
       3       4       4       4       4       4       4       4       4       4
       4       4       4       4       4       4       4       4       4       1
       2       3       2       2       4       4       4       2       5       2
       5       2       5       5       6       2       2       2       2       2
       2       2       5       2       5       2       5       2       5       2
       3       5       2       5       5       2       2       2       2       1
       2       2       2       2       2       2       3       2       5       2
       5       2       5       2       5       2       2       4       4       4
       5       6       6       2       5       6       2       5       2       2
       2       2       5       2       2       5       2       2       2       2
       2       2       2       2       2       2       2       2       2       5
       2       5       5       2       5       2       2       5       2       5
       2       5       2       5       2       5       2       5       2       5
       2       5       2       5       5       2       5       5       5       2
       5       2       5       5       2       5       5       2       5       5
       1       1       1       1       1       1       3       3       3       3
       3       3       4       4       4       4       4       4       4       4
       4       4       4       4       4       4       4       4       4       4
       1       2       3       2       2       4       4       4       2       5
       2       5       2       5       5       6       2       2       2       2
       2       2       2       5       2       5       2       5       2       5
       2       3       5       2       5       5       2       2       2       2
       1       2       2       2       2       2       2       3       2       5
       2       5       2       5       2       5       2       2       4       4
       4       5       6       6       2       5       6       2       5       2
       2       2       2       5       2       2       5       2       2       2
       2       2       2       2       2       2       2       2       2       2
       5       2       5       5       2       5       2       2       5       2
       5       2       5       2       5       2       5       2       5       2
       5       2       5       2       5       5       2       5       5       5
       2       5       2       5       5       2       5       5       2       5
       5       1       1       1       1       1       1       3       3       3
       3       3       3       4       4       4       4       4       4       4
       4       4       4       4       4       4       4       4       4       4
       4       1       2       3       2       2       4       4       4       2
       5       2       5       2       5       5       6       2       2       2
       2       2       2       2       5       2       5       2       5       2
       5       2       3       5       2       5       5       2       2       2
       2       1       2       2       2       2       2       2       3       2
       5       2       5       2       5       2       5       2       2       4
       4       4       5       6       6       2       5       6       2       5
       2       2       2       2       5       2       2       5       2       2
       2       2       2       2       2       2       2       2       2       2
       2       5       2       5       5       2       5       2       2       5
       2       5       2       5       2       5       2       5       2       5
       2       5       2       5       2       5       5       2       5       5
       5       2       5       2       5       5       2       5       5       2
       5       5       1       1       1       1       1       1       3       3
       3       3       3       3       4       4       4       4       4       4
       4       4       4       4       4       4       4       4       4       4
       4       4       1       2       3       2       2       4       4       4
       2       5       2       5       2       5       5       6       2       2
       2       2       2       2       2       5       2       5       2       5
       2       5       2       3       5       2       5       5       2       2
       2       2       1       2       2       2       2       2       2       3
       2       5       2       5       2       5       2       5       2       2
       4       4       4       5       6       6       2       5       6       2
       5       2       2       2       2       5       2       2       5       2
       2       2       2       2       2       2       2       2       2       2
       2       2       5       2       5       5       2       5       2       2
       5       2       5       2       5       2       5       2       5       2
       5       2       5       2       5       2       5       5       2       5
       5       5       2       5       2       5       5       2       5       5
       2       5       5       1       1       1       1       1       1       3
       3       3       3       3       3       4       4       4       4       4
       4       4       4       4       4       4       4       4       4       4
       4       4       4       1       2       3       2       2       4       4
       4       2       5       2       5       2       5       5       6       2
       2       2       2       2       2       2       5       2       5       2
       5       2       5       2       3       5       2       5       5       2
       2       2       2       1       2       2       2       2       2       2
       3       2       5       2       5       2       5       2       5       2
       2       4       4       4       5       6       6       2       5       6
       2       5       2       2       2       2       5       2       2       5
       2       2       2       2       2       2       2       2       2       2
       2       2       2       5       2       5       5       2       5       2
       2       5       2       5       2       5       2       5       2       5
       2       5       2       5       2       5       2       5       5       2
       5       5       5       2       5       2       5       5       2       5
       5       2       5       5       1       1       1       1       1       1
       3       3       3       3       3       3       4       4       4       4
       4       4       4       4       4       4       4       4       4       4
       4       4       4       4       1       2       3       2       2       4
       4       4       2       5       2       5       2       5       5       6
       2       2       2       2       2       2       2       5       2       5
       2       5       2       5       2       3       5       2       5       5
       2       2       2       2       1       2       2       2       2       2
       2       3       2       5       2       5       2       5       2       5
       2       2       4       4       4       5       6       6       2       5
       6       2       5       2       2       2       2       5       2       2
       5       2       2       2       2       2       2       2       2       2
       2       2       2       2       5       2       5       5       2       5
       2       2       5       2       5       2       5       2       5       2
       5       2       5       2       5       2       5       2       5       5
       2       5       5       5       2       5       2       5       5       2
       5       5       2       5       5       1       1       1       1       1
       1       3       3       3       3       3       3       4       4       4
       4       4       4       4       4       4       4       4       4       4
       4       4       4       4       4       1       2       3       2       2
       4       4       4       2       5       2       5       2       5       5
       6       2       2       2       2       2       2       2       5       2
       5       2       5       2       5       2       3       5       2       5
       5       2       2       2       2       1       2       2       2       2
       2       2       3       2       5       2       5       2       5       2
       5       2       2       4       4       4       5       6       6       2
       5       6       2       5       2       2       2       2       5       2
       2       5       2       2       2       2       2       2       2       2
       2       2       2       2       2       5       2       5       5       2
       5       2       2       5       2       5       2       5       2       5
       2       5       2       5       2       5       2       5       2       5
       5       2       5       5       5       2       5       2       5       5
       2       5       5       2       5       5       1       1       1       1
       1       1       3       3       3       3       3       3       4       4
       4       4       4       4       4       4       4       4       4       4
       4       4       4       4       4       4       1       2       3       2
       2       4       4       4       2       5       2       5       2       5
       5       6       2       2       2       2       2       2       2       5
       2       5       2       5       2       5       2       3       5       2
       5       5       2       2       2       2       1       2       2       2
       2       2       2       3       2       5       2       5       2       5
       2       5       2       2       4       4       4       5       6       6
       2       5       6       2       5       2       2       2       2       5
       2       2       5       2       2       2       2       2       2       2
       2       2       2       2       2       2       5       2       5       5
       2       5       2       2       5       2       5       2       5       2
       5       2       5       2       5       2       5       2       5       2
       5       5       2       5       5       5       2       5       2       5
       5       2       5       5       2       5       5       1       1       1
       1       1       1       3       3       3       3       3       3       4
       4       4       4       4       4       4       4       4       4       4
       4       4       4       4       4       4       4       1       2       3
       2       2       4       4       4       2       5       2       5       2
       5       5       6       2       2       2       2       2       2       2
       5       2       5       2       5       2       5       2       3       5
       2       5       5       2       2       2       2       1       2       2
       2       2       2       2       3       2       5       2       5       2
       5       2       5       2       2       4       4       4       5       6
       6       2       5       6       2       5       2       2       2       2
       5       2       2       5       2       2       2       2       2       2
       2       2       2       2       2       2       2       5       2       5
       5       2       5       2       2       5       2       5       2       5
       2       5       2       5       2       5       2       5       2       5
       2       5       5       2       5       5       5       2       5       2
       5       5       2       5       5       2       5       5       1       1
       1       1       1       1       3       3       3       3       3       3
       4       4       4       4       4       4       4       4       4       4
       4       4       4       4       4       4       4       4       1       2
       3       2       2       4       4       4       2       5       2       5
       2       5       5       6       2       2       2       2       2       2
       2       5       2       5       2       5       2       5       2       3
       5       2       5       5       2       2       2       2       1       2
       2       2       2       2       2       3       2       5       2       5
       2       5       2       5       2       2       4       4       4       5
       6       6       2       5       6       2       5       2       2       2
       2       5       2       2       5       2       2       2       2       2
       2       2       2       2       2       2       2       2       5       2
       5       5       2       5       2       2       5       2       5       2
       5       2       5       2       5       2       5       2       5       2
       5       2       5       5       2       5       5       5       2       5
       2       5       5       2       5       5       2       5       5       1
       1       1       1       1       1       3       3       3       3       3
       3       4       4       4       4       4       4       4       4       4
       4       4       4       4       4       4       4       4       4       1
       2       3       2       2       4       4       4       2       5       2
       5       2       5       5       6       2       2       2       2       2
       2       2       5       2       5       2       5       2       5       2
       3       5       2       5       5       2       2       2       2       1
       2       2       2       2       2       2       3       2       5       2
       5       2       5       2       5       2       2       4       4       4
       5       6       6       2       5       6       2       5       2       2
       2       2       5       2       2       5       2       2       2       2
       2       2       2       2       2       2       2       2       2       5
       2       5       5       2       5       2       2       5       2       5
       2       5       2       5       2       5       2       5       2       5
       2       5       2       5       5       2       5       5       5       2
       5       2       5       5       2       5       5       2       5       5
       1       1       1       1       1       1       3       3       3       3
       3       3       4       4       4       4       4       4       4       4
       4       4       4       4       4       4       4       4       4       4
       1       2       3       2       2       4       4       4       2       5
       2       5       2       5       5       6       2       2       2       2
       2       2       2       5       2       5       2       5       2       5
       2       3       5       2       5       5       2       2       2       2
       1       2       2       2       2       2       2       3       2       5
       2       5       2       5       2       5       2       2       4       4
       4       5       6       6       2       5       6       2       5       2
       2       2       2       5       2       2       5       2       2       2
       2       2       2       2       2       2       2       2       2       2
       5       2       5       5       2       5       2       2       5       2
       5       2       5       2       5       2       5       2       5       2
       5       2       5       2       5       5       2       5       5       5
       2       5       2       5       5       2       5       5       2       5
       5       1       1       1       1       1       1       3       3       3
       3       3       3       4       4       4       4       4       4       4
       4       4       4       4       4       4       4       4       4       4
       4       1       2       3       2       2       4       4       4       2
       5       2       5       2       5       5       6       2       2       2
       2       2       2       2       5       2       5       2       5       2
       5       2       3       5       2       5       5       2       2       2
       2       1       2       2       2       2       2       2       3       2
       5       2       5       2       5       2       5       2       2       4
       4       4       5       6       6       2       5       6       2       5
       2       2       2       2       5       2       2       5       2       2
       2       2       2       2       2       2       2       2       2       2
       2       5       2       5       5       2       5       2       2       5
       2       5       2       5       2       5       2       5       2       5
       2       5       2       5       2       5       5       2       5       5
       5       2       5       2       5       5       2       5       5       2
       5       5       1       1       1       1       1       1       3       3
       3       3       3       3       4       4       4       4       4       4
       4       4       4       4       4       4       4       4       4       4
       4       4       1       2       3       2       2       4       4       4
       2       5       2       5       2       5       5       6       2       2
       2       2       2       2       2       5       2       5       2       5
       2       5       2       3       5       2       5       5       2       2
       2       2       1       2       2       2       2       2       2       3
       2       5       2       5       2       5       2       5       2       2
       4       4       4       5       6       6       2       5       6       2
       5       2       2       2       2       5       2       2       5       2
       2       2       2       2       2       2       2       2       2       2
       2       2       5       2       5       5       2       5       2       2
       5       2       5       2       5       2       5       2       5       2
       5       2       5       2       5       2       5       5       2       5
       5       5       2       5       2       5       5       2       5       5
       2       5       5       1       1       1       1       1       1       3
       3       3       3       3       3       4       4       4       4       4
       4       4       4       4       4       4       4       4       4       4
       4       4       4       1       2       3       2       2       4       4
       4       2       5       2       5       2       5       5       6       2
       2       2       2       2       2       2       5       2       5       2
       5       2       5       2       3       5       2       5       5       2
       2       2       2       1       2       2       2       2       2       2
       3       2       5       2       5       2       5       2       5       2
       2       4       4       4       5       6       6       2       5       6
       2       5       2       2       2       2       5       2       2       5
       2       2       2       2       2       2       2       2       2       2
       2       2       2       5       2       5       5       2       5       2
       2       5       2       5       2       5       2       5       2       5
       2       5       2       5       2       5       2       5       5       2
       5       5       5       2       5       2       5       5       2       5
       5       2       5       5       1       1       1       1       1       1
       3       3       3       3       3       3       4       4       4       4
       4       4       4       4       4       4       4       4       4       4
       4       4       4       4       1       2       3       2       2       4
       4       4       2       5       2       5       2       5       5       6
       2       2       2       2       2       2       2       5       2       5
       2       5       2       5       2       3       5       2       5       5
       2       2       2       2       1       2       2       2       2       2
       2       3       2       5       2       5       2       5       2       5
       2       2       4       4       4       5       6       6       2       5
       6       2       5       2       2       2       2       5       2       2
       5       2       2       2       2       2       2       2       2       2
       2       2       2       2       5       2       5       5       2       5
       2       2       5       2       5       2       5       2       5       2
       5       2       5       2       5       2       5       2       5       5
       2       5       5       5       2       5       2       5       5       2
       5       5       2       5       5       1       1       1       1       1
       1       3       3       3       3       3       3       4       4       4
       4       4       4       4       4       4       4       4       4       4
       4       4       4       4       4       1       2       3       2       2
       4       4       4       2       5       2       5       2       5       5
       6       2       2       2       2       2       2       2       5       2
       5       2       5       2       5       2       3       5       2       5
       5       2       2       2       2       1       2       2       2       2
       2       2       3       2       5       2       5       2       5       2
       5       2       2       4       4       4       5       6       6       2
       5       6       2       5       2       2       2       2       5       2
       2       5       2       2       2       2       2       2       2       2
       2       2       2       2       2       5       2       5       5       2
       5       2       2       5       2       5       2       5       2       5
       2       5       2       5       2       5       2       5       2       5
       5       2       5       5       5       2       5       2       5       5
       2       5       5       2       5       5       1       1       1       1
       1       1       3       3       3       3       3       3       4       4
       4       4       4       4       4       4       4       4       4       4
       4       4       4       4       4       4       1       2       3       2
       2       4       4       4       2       5       2       5       2       5
       5       6       2       2       2       2       2       2       2       5
       2       5       2       5       2       5       2       3       5       2
       5       5       2       2       2       2       1       2       2       2
       2       2       2       3       2       5       2       5       2       5
       2       5       2       2       4       4       4       5       6       6
       2       5       6       2       5       2       2       2       2       5
       2       2       5       2       2       2       2       2       2       2
       2       2       2       2       2       2       5       2       5       5
       2       5       2       2       5       2       5       2       5       2
       5       2       5       2       5       2       5       2       5       2
       5       5       2       5       5       5       2       5       2       5
       5       2       5       5       2       5       5       1       1       1
       1       1       1       3       3       3       3       3       3       4
       4       4       4       4       4       4       4       4       4       4
       4       4       4       4       4       4       4       1       2       3
       2       2       4       4       4       2       5       2       5       2
       5       5       6       2       2       2       2       2       2       2
       5       2       5       2       5       2       5       2       3       5
       2       5       5       2       2       2       2       1       2       2
       2       2       2       2       3       2       5       2       5       2
       5       2       5       2       2       4       4       4       5       6
       6       2       5       6       2       5       2       2       2       2
       5       2       2       5       2       2       2       2       2       2
       2       2       2       2       2       2       2       5       2       5
       5       2       5       2       2       5       2       5       2       5
       2       5       2       5       2       5       2       5       2       5
       2       5       5       2       5       5       5       2       5       2
       5       5       2       5       5       2       5       5       1       1
       1       1       1       1       3       3       3       3       3       3
       4       4       4       4       4       4       4       4       4       4
       4       4       4       4       4       4       4       4       1       2
       3       2       2       4       4       4       2       5       2       5
       2       5       5       6       2       2       2       2       2       2
       2       5       2       5       2       5       2       5       2       3
       5       2       5       5       2       2       2       2       1       2
       2       2       2       2       2       3       2       5       2       5
       2       5       2       5       2       2       4       4       4       5
       6       6       2       5       6       2       5       2       2       2
       2       5       2       2       5       2       2       2       2       2
       2       2       2       2       2       2       2       2       5       2
       5       5       2       5       2       2       5       2       5       2
       5       2       5       2       5       2       5       2       5       2
       5       2       5       5       2       5       5       5       2       5
       2       5       5       2       5       5       2       5       5       1
       1       1       1       1       1       3       3       3       3       3
       3       4       4       4       4       4       4       4       4       4
       4       4       4       4       4       4       4       4       4       1
       2       3       2       2       4       4       4       2       5       2
       5       2       5       5       6       2       2       2       2       2
       2       2       5       2       5       2       5       2       5       2
       3       5       2       5       5       2       2       2       2       1
       2       2       2       2       2       2       3       2       5       2
       5       2       5       2       5       2       2       4       4       4
       5       6       6       2       5       6       2       5       2       2
       2       2       5       2       2       5       2       2       2       2
       2       2       2       2       2       2       2       2       2       5
       2       5       5       2       5       2       2       5       2       5
       2       5       2       5       2       5       2       5       2       5
       2       5       2       5       5       2       5       5       5       2
       5       2       5       5       2       5       5       2       5       5
       1       1       1       1       1       1       3       3       3       3
       3       3       4       4       4       4       4       4       4       4
       4       4       4       4       4       4       4       4       4       4
%FLAG NUMBER_EXCLUDED_ATOMS                                                     
%FORMAT(10I8)                                                                   
      11      13       5       8       7       2       1       1       8       2
       7       2       9       1       1      14      12      11      11       7
       8       7      15       2       7       2       7       2       6       2
      10      18       1       7       1       1      10      13      13      12
       4       6       7      10      11       9       9       3       7       2
       9       1      12       2       5       3      11       4       2       1
       1       1      14      16       4       1      16       4       1      12
      11      12      11       1      12      11       1       8       7       8
       7       8       7       8       7       8       7       8       7       7
       2       6       2       3       6       3       5       7       2       6
       2       7       2       6       2       7       2       6       2       7
       2       6       2       7       1       1       7       1       1       2
       6       1       7       1       1       7       1       1       7       1
       1       4       4       4       4       4       4       3       3       3
       3       3       3       2       1       1       2       1       1       2
       1       1       2       1       1       2       1       1       2       1
       1      11      13       5       8       7       2       1       1       8
       2       7       2       9       1       1      14      12      11      11
       7       8       7      15       2       7       2       7       2       6
       2      10      18       1       7       1       1      10      13      13
      12       4       6       7      10      11       9       9       3       7
       2       9       1      12       2       5       3      11       4       2
       1       1       1      14      16       4       1      16       4       1
      12      11      12      11       1      12      11       1       8       7
       8       7       8       7       8       7       8       7       8       7
       7       2       6       2       3       6       3       5       7       2
       6       2       7       2       6       2       7       2       6       2
       7       2       6       2       7       1       1       7       1       1
       2       6       1       7       1       1       7       1       1       7
       1       1       4       4       4       4       4       4       3       3
       3       3       3       3       2       1       1       2       1       1
       2       1       1       2       1       1       2       1       1       2
       1       1      11      13       5       8       7       2       1       1
       8       2       7       2       9       1       1      14      12      11
      11       7       8       7      15       2       7       2       7       2
       6       2      10      18       1       7       1       1      10      13
      13      12       4       6       7      10      11       9       9       3
       7       2       9       1      12       2       5       3      11       4
       2       1       1       1      14      16       4       1      16       4
       1      12      11      12      11       1      12      11       1       8
       7       8       7       8       7       8       7       8       7       8
       7       7       2       6       2       3       6       3       5       7
       2       6       2       7       2       6       2       7       2       6
       2       7       2       6       2       7       1       1       7       1
       1       2       6       1       7       1       1       7       1       1
       7       1       1       4       4       4       4       4       4       3
       3       3       3       3       3       2       1       1       2       1
       1       2       1       1       2       1       1       2       1       1
       2       1       1      11      13       5       8       7       2       1
       1       8       2       7       2       9       1       1      14      12
      11      11       7       8       7      15       2       7       2       7
       2       6       2      10      18       1       7       1       1      10
      13      13      12       4       6       7      10      11       9       9
       3       7       2       9       1      12       2       5       3      11
       4       2       1       1       1      14      16       4       1      16
       4       1      12      11      12      11       1      12      11       1
       8       7       8       7       8       7       8       7       8       7
       8       7       7       2       6       2       3       6       3       5
       7       2       6       2       7       2       6       2       7       2
       6       2       7       2       6       2       7       1       1       7
       1       1       2       6       1       7       1       1       7       1
       1       7       1       1       4       4       4       4       4       4
       3       3       3       3       3       3       2       1       1       2
       1       1       2       1       1       2       1       1       2       1
       1       2       1       1      11      13       5       8       7       2
       1       1       8       2       7       2       9       1       1      14
      12      11      11       7       8       7      15       2       7       2
       7       2       6       2      10      18       1       7       1       1
      10      13      13      12       4       6       7      10      11       9
       9       3       7       2       9       1      12       2       5       3
      11       4       2       1       1       1      14      16       4       1
      16       4       1      12      11      12      11       1      12      11
       1       8       7       8       7       8       7       8       7       8
       7       8       7       7       2       6       2       3       6       3
       5       7       2       6       2       7       2       6       2       7
       2       6       2       7       2       6       2       7       1       1
       7       1       1       2       6       1       7       1       1       7
       1       1       7       1       1       4       4       4       4       4
       4       3       3       3       3       3       3       2       1       1
       2       1       1       2       1       1       2       1       1       2
       1       1       2       1       1      11      13       5       8       7
       2       1       1       8       2       7       2       9       1       1
      14      12      11      11       7       8       7      15       2       7
       2       7       2       6       2      10      18       1       7       1
       1      10      13      13      12       4       6       7      10      11
       9       9       3       7       2       9       1      12       2       5
       3      11       4       2       1       1       1      14      16       4
       1      16       4       1      12      11      12      11       1      12
      11       1       8       7       8       7       8       7       8       7
       8       7       8       7       7       2       6       2       3       6
       3       5       7       2       6       2       7       2       6       2
       7       2       6       2       7       2       6       2       7       1
       1       7       1       1       2       6       1       7       1       1
       7       1       1       7       1       1       4       4       4       4
       4       4       3       3       3       3       3       3       2       1
       1       2       1       1       2       1       1       2       1       1
       2       1       1       2       1       1      11      13       5       8
       7       2       1       1       8       2       7       2       9       1
       1      14      12      11      11       7       8       7      15       2
       7       2       7       2       6       2      10      18       1       7
       1       1      10      13      13      12       4       6       7      10
      11       9       9       3       7       2       9       1      12       2
       5       3      11       4       2       1       1       1      14      16
       4       1      16       4       1      12      11      12      11       1
      12      11       1       8       7       8       7       8       7       8
       7       8       7       8       7       7       2       6       2       3
       6       3       5       7       2       6       2       7       2       6
       2       7       2       6       2       7       2       6       2       7
       1       1       7       1       1       2       6       1       7       1
       1       7       1       1       7       1       1       4       4       4
       4       4       4       3       3       3       3       3       3       2
       1       1       2       1       1       2       1       1       2       1
       1       2       1       1       2       1       1      11      13       5
       8       7       2       1       1       8       2       7       2       9
       1       1      14      12      11      11       7       8       7      15
       2       7       2       7       2       6       2      10      18       1
       7       1       1      10      13      13      12       4       6       7
      10      11       9       9       3       7       2       9       1      12
       2       5       3      11       4       2       1       1       1      14
      16       4       1      16       4       1      12      11      12      11
       1      12      11       1       8       7       8       7       8       7
       8       7       8       7       8       7       7       2       6       2
       3       6       3       5       7       2       6       2       7       2
       6       2       7       2       6       2       7       2       6       2
       7       1       1       7       1       1       2       6       1       7
       1       1       7       1       1       7       1       1       4       4
       4       4       4       4       3       3       3       3       3       3
       2       1       1       2       1       1       2       1       1       2
       1       1       2       1       1       2       1       1      11      13
       5       8       7       2       1       1       8       2       7       2
       9       1       1      14      12      11      11       7       8       7
      15       2       7       2       7       2       6       2      10      18
       1       7       1       1      10      13      13      12       4       6
       7      10      11       9       9       3       7       2       9       1
      12       2       5       3      11       4       2       1       1       1
      14      16       4       1      16       4       1      12      11      12
      11       1      12      11       1       8       7       8       7       8
       7       8       7       8       7       8       7       7       2       6
       2       3       6       3       5       7       2       6       2       7
       2       6       2       7       2       6       2       7       2       6
       2       7       1       1       7       1       1       2       6       1
       7       1       1       7       1       1       7       1       1       4
       4       4       4       4       4       3       3       3       3       3
       3       2       1       1       2       1       1       2       1       1
       2       1       1       2       1       1       2       1       1      11
      13       5       8       7       2       1       1       8       2       7
       2       9       1       1      14      12      11      11       7       8
       7      15       2       7       2       7       2       6       2      10
      18       1       7       1       1      10      13      13      12       4
       6       7      10      11       9       9       3       7       2       9
       1      12       2       5       3      11       4       2       1       1
       1      14      16       4       1      16       4       1      12      11
      12      11       1      12      11       1       8       7       8       7
       8       7       8       7       8       7       8       7       7       2
       6       2       3       6       3       5       7       2       6       2
       7       2       6       2       7       2       6       2       7       2
       6       2       7       1       1       7       1       1       2       6
       1       7       1       1       7       1       1       7       1       1
       4       4       4       4       4       4       3       3       3       3
       3       3       2       1       1       2       1       1       2       1
       1       2       1       1       2       1       1       2       1       1
      11      13       5       8       7       2       1       1       8       2
       7       2       9       1       1      14      12      11      11       7
       8       7      15       2       7       2       7       2       6       2
      10      18       1       7       1       1      10      13      13      12
       4       6       7      10      11       9       9       3       7       2
       9       1      12       2       5       3      11       4       2       1
       1       1      14      16       4       1      16       4       1      12
      11      12      11       1      12      11       1       8       7       8
       7       8       7       8       7       8       7       8       7       7
       2       6       2       3       6       3       5       7       2       6
       2       7       2       6       2       7       2       6       2       7
       2       6       2       7       1       1       7       1       1       2
       6       1       7       1       1       7       1       1       7       1
       1       4       4       4       4       4       4       3       3       3
       3       3       3       2       1       1       2       1       1       2
       1       1       2       1       1       2       1       1       2       1
       1      11      13       5       8       7       2       1       1       8
       2       7       2       9       1       1      14      12      11      11
       7       8       7      15       2       7       2       7       2       6
       2      10      18       1       7       1       1      10      13      13
      12       4       6       7      10      11       9       9       3       7
       2       9       1      12       2       5       3      11       4       2
       1       1       1      14      16       4       1      16       4       1
      12      11      12      11       1      12      11       1       8       7
       8       7       8       7       8       7       8       7       8       7
       7       2       6       2       3       6       3       5       7       2
       6       2       7       2       6       2       7       2       6       2
       7       2       6       2       7       1       1       7       1       1
       2       6       1       7       1       1       7       1       1       7
       1       1       4       4       4       4       4       4       3       3
       3       3       3       3       2       1       1       2       1       1
       2       1       1       2       1       1       2       1       1       2
       1       1      11      13       5       8       7       2       1       1
       8       2       7       2       9       1       1      14      12      11
      11       7       8       7      15       2       7       2       7       2
       6       2      10      18       1       7       1       1      10      13
      13      12       4       6       7      10      11       9       9       3
       7       2       9       1      12       2       5       3      11       4
       2       1       1       1      14      16       4       1      16       4
       1      12      11      12      11       1      12      11       1       8
       7       8       7       8       7       8       7       8       7       8
       7       7       2       6       2       3       6       3       5       7
       2       6       2       7       2       6       2       7       2       6
       2       7       2       6       2       7       1       1       7       1
       1       2       6       1       7       1       1       7       1       1
       7       1       1       4       4       4       4       4       4       3
       3       3       3       3       3       2       1       1       2       1
       1       2       1       1       2       1       1       2       1       1
       2       1       1      11      13       5       8       7       2       1
       1       8       2       7       2       9       1       1      14      12
      11      11       7       8       7      15       2       7       2       7
       2       6       2      10      18       1       7       1       1      10
      13      13      12       4       6       7      10      11       9       9
       3       7       2       9       1      12       2       5       3      11
       4       2       1       1       1      14      16       4       1      16
       4       1      12      11      12      11       1      12      11       1
       8       7       8       7       8       7       8       7       8       7
       8       7       7       2       6       2       3       6       3       5
       7       2       6       2       7       2       6       2       7       2
       6       2       7       2       6       2       7       1       1       7
       1       1       2       6       1       7       1       1       7       1
       1       7       1       1       4       4       4       4       4       4
       3       3       3       3       3       3       2       1       1       2
       1       1       2       1       1       2       1       1       2       1
       1       2       1       1      11      13       5       8       7       2
       1       1       8       2       7       2       9       1       1      14
      12      11      11       7       8       7      15       2       7       2
       7       2       6       2      10      18       1       7       1       1
      10      13      13      12       4       6       7      10      11       9
       9       3       7       2       9       1      12       2       5       3
      11       4       2       1       1       1      14      16       4       1
      16       4       1      12      11      12      11       1      12      11
       1       8       7       8       7       8       7       8       7       8
       7       8       7       7       2       6       2       3       6       3
       5       7       2       6       2       7       2       6       2       7
       2       6       2       7       2       6       2       7       1       1
       7       1       1       2       6       1       7       1       1       7
       1       1       7       1       1       4       4       4       4       4
       4       3       3       3       3       3       3       2       1       1
       2       1       1       2       1       1       2       1       1       2
       1       1       2       1       1      11      13       5       8       7
       2       1       1       8       2       7       2       9       1       1
      14      12      11      11       7       8       7      15       2       7
       2       7       2       6       2      10      18       1       7       1
       1      10      13      13      12       4       6       7      10      11
       9       9       3       7       2       9       1      12       2       5
       3      11       4       2       1       1       1      14      16       4
       1      16       4       1      12      11      12      11       1      12
      11       1       8       7       8       7       8       7       8       7
       8       7       8       7       7       2       6       2       3       6
       3       5       7       2       6       2       7       2       6       2
       7       2       6       2       7       2       6       2       7       1
       1       7       1       1       2       6       1       7       1       1
       7       1       1       7       1       1       4       4       4       4
       4       4       3       3       3       3       3       3       2       1
       1       2       1       1       2       1       1       2       1       1
       2       1       1       2       1       1      11      13       5       8
       7       2       1       1       8       2       7       2       9       1
       1      14      12      11      11       7       8       7      15       2
       7       2       7       2       6       2      10      18       1       7
       1       1      10      13      13      12       4       6       7      10
      11       9       9       3       7       2       9       1      12       2
       5       3      11       4       2       1       1       1      14      16
       4       1      16       4       1      12      11      12      11       1
      12      11       1       8       7       8       7       8       7       8
       7       8       7       8       7       7       2       6       2       3
       6       3       5       7       2       6       2       7       2       6
       2       7       2       6       2       7       2       6       2       7
       1       1       7       1       1       2       6       1       7       1
       1       7       1       1       7       1       1       4       4       4
       4       4       4       3       3       3       3       3       3       2
       1       1       2       1       1       2       1       1       2       1
       1       2       1       1       2       1       1      11      13       5
       8       7       2       1       1       8       2       7       2       9
       1       1      14      12      11      11       7       8       7      15
       2       7       2       7       2       6       2      10      18       1
       7       1       1      10      13      13      12       4       6       7
      10      11       9       9       3       7       2       9       1      12
       2       5       3      11       4       2       1       1       1      14
      16       4       1      16       4       1      12      11      12      11
       1      12      11       1       8       7       8       7       8       7
       8       7       8       7       8       7       7       2       6       2
       3       6       3       5       7       2       6       2       7       2
       6       2       7       2       6       2       7       2       6       2
       7       1       1       7       1       1       2       6       1       7
       1       1       7       1       1       7       1       1       4       4
       4       4       4       4       3       3       3       3       3       3
       2       1       1       2       1       1       2       1       1       2
       1       1       2       1       1       2       1       1      11      13
       5       8       7       2       1       1       8       2       7       2
       9       1       1      14      12      11      11       7       8       7
      15       2       7       2       7       2       6       2      10      18
       1       7       1       1      10      13      13      12       4       6
       7      10      11       9       9       3       7       2       9       1
      12       2       5       3      11       4       2       1       1       1
      14      16       4       1      16       4       1      12      11      12
      11       1      12      11       1       8       7       8       7       8
       7       8       7       8       7       8       7       7       2       6
       2       3       6       3       5       7       2       6       2       7
       2       6       2       7       2       6       2       7       2       6
       2       7       1       1       7       1       1       2       6       1
       7       1       1       7       1       1       7       1       1       4
       4       4       4       4       4       3       3       3       3       3
       3       2       1       1       2       1       1       2       1       1
       2       1       1       2       1       1       2       1       1      11
      13       5       8       7       2       1       1       8       2       7
       2       9       1       1      14      12      11      11       7       8
       7      15       2       7       2       7       2       6       2      10
      18       1       7       1       1      10      13      13      12       4
       6       7      10      11       9       9       3       7       2       9
       1      12       2       5       3      11       4       2       1       1
       1      14      16       4       1      16       4       1      12      11
      12      11       1      12      11       1       8       7       8       7
       8       7       8       7       8       7       8       7       7       2
       6       2       3       6       3       5       7       2       6       2
       7       2       6       2       7       2       6       2       7       2
       6       2       7       1       1       7       1       1       2       6
       1       7       1       1       7       1       1       7       1       1
       4       4       4       4       4       4       3       3       3       3
       3       3       2       1       1       2       1       1       2       1
       1       2       1       1       2       1       1       2       1       1
      11      13       5       8       7       2       1       1       8       2
       7       2       9       1       1      14      12      11      11       7
       8       7      15       2       7       2       7       2       6       2
      10      18       1       7       1       1      10      13      13      12
       4       6       7      10      11       9       9       3       7       2
       9       1      12       2       5       3      11       4       2       1
       1       1      14      16       4       1      16       4       1      12
      11      12      11       1      12      11       1       8       7       8
       7       8       7       8       7       8       7       8       7       7
       2       6       2       3       6       3       5       7       2       6
       2       7       2       6       2       7       2       6       2       7
       2       6       2       7       1       1       7       1       1       2
       6       1       7       1       1       7       1       1       7       1
       1       4       4       4       4       4       4       3       3       3
       3       3       3       2       1       1       2       1       1       2
       1       1       2       1       1       2       1       1       2       1
       1      11      13       5       8       7       2       1       1       8
       2       7       2       9       1       1      14      12      11      11
       7       8       7      15       2       7       2       7       2       6
       2      10      18       1       7       1       1      10      13      13
      12       4       6       7      10      11       9       9       3       7
       2       9       1      12       2       5       3      11       4       2
       1       1       1      14      16       4       1      16       4       1
      12      11      12      11       1      12      11       1       8       7
       8       7       8       7       8       7       8       7       8       7
       7       2       6       2       3       6       3       5       7       2
       6       2       7       2       6       2       7       2       6       2
       7       2       6       2       7       1       1       7       1       1
       2       6       1       7       1       1       7       1       1       7
       1       1       4       4       4       4       4       4       3       3
       3       3       3       3       2       1       1       2       1       1
       2       1       1       2       1       1       2       1       1       2
       1       1      11      13       5       8       7       2       1       1
       8       2       7       2       9       1       1      14      12      11
      11       7       8       7      15       2       7       2       7       2
       6       2      10      18       1       7       1       1      10      13
      13      12       4       6       7      10      11       9       9       3
       7       2       9       1      12       2       5       3      11       4
       2       1       1       1      14      16       4       1      16       4
       1      12      11      12      11       1      12      11       1       8
       7       8       7       8       7       8       7       8       7       8
       7       7       2       6       2       3       6       3       5       7
       2       6       2       7       2       6       2       7       2       6
       2       7       2       6       2       7       1       1       7       1
       1       2       6       1       7       1       1       7       1       1
       7       1       1       4       4       4       4       4       4       3
       3       3       3       3       3       2       1       1       2       1
       1       2       1       1       2       1       1       2       1       1
       2       1       1      11      13       5       8       7       2       1
       1       8       2       7       2       9       1       1      14      12
      11      11       7       8       7      15       2       7       2       7
       2       6       2      10      18       1       7       1       1      10
      13      13      12       4       6       7      10      11       9       9
       3       7       2       9       1      12       2       5       3      11
       4       2       1       1       1      14      16       4       1      16
       4       1      12      11      12      11       1      12      11       1
       8       7       8       7       8       7       8       7       8       7
       8       7       7       2       6       2       3       6       3       5
       7       2       6       2       7       2       6       2       7       2
       6       2       7       2       6       2       7       1       1       7
       1       1       2       6       1       7       1       1       7       1
       1       7       1       1       4       4       4       4       4       4
       3       3       3       3       3       3       2       1       1       2
       1       1       2       1       1       2       1       1       2       1
       1       2       1       1      11      13       5       8       7       2
       1       1       8       2       7       2       9       1       1      14
      12      11      11       7       8       7      15       2       7       2
       7       2       6       2      10      18       1       7       1       1
      10      13      13      12       4       6       7      10      11       9
       9       3       7       2       9       1      12       2       5       3
      11       4       2       1       1       1      14      16       4       1
      16       4       1      12      11      12      11       1      12      11
       1       8       7       8       7       8       7       8       7       8
       7       8       7       7       2       6       2       3       6       3
       5       7       2       6       2       7       2       6       2       7
       2       6       2       7       2       6       2       7       1       1
       7       1       1       2       6       1       7       1       1       7
       1       1       7       1       1       4       4       4       4       4
       4       3       3       3       3       3       3       2       1       1
       2       1       1       2       1       1       2       1       1       2
       1       1       2       1       1      11      13       5       8       7
       2       1       1       8       2       7       2       9       1       1
      14      12      11      11       7       8       7      15       2       7
       2       7       2       6       2      10      18       1       7       1
       1      10      13      13      12       4       6       7      10      11
       9       9       3       7       2       9       1      12       2       5
       3      11       4       2       1       1       1      14      16       4
       1      16       4       1      12      11      12      11       1      12
      11       1       8       7       8       7       8       7       8       7
       8       7       8       7       7       2       6       2       3       6
       3       5       7       2       6       2       7       2       6       2
       7       2       6       2       7       2       6       2       7       1
       1       7       1       1       2       6       1       7       1       1
       7       1       1       7       1       1       4       4       4       4
       4       4       3       3       3       3       3       3       2       1
       1       2       1       1       2       1       1       2       1       1
       2       1       1       2       1       1      11      13       5       8
       7       2       1       1       8       2       7       2       9       1
       1      14      12      11      11       7       8       7      15       2
       7       2       7       2       6       2      10      18       1       7
       1       1      10      13      13      12       4       6       7      10
      11       9       9       3       7       2       9       1      12       2
       5       3      11       4       2       1       1       1      14      16
       4       1      16       4       1      12      11      12      11       1
      12      11       1       8       7       8       7       8       7       8
       7       8       7       8       7       7       2       6       2       3
       6       3       5       7       2       6       2       7       2       6
       2       7       2       6       2       7       2       6       2       7
       1       1       7       1       1       2       6       1       7       1
       1       7       1       1       7       1       1       4       4       4
       4       4       4       3       3       3       3       3       3       2
       1       1       2       1       1       2       1       1       2       1
       1       2       1       1       2       1       1      11      13       5
       8       7       2       1       1       8       2       7       2       9
       1       1      14      12      11      11       7       8       7      15
       2       7       2       7       2       6       2      10      18       1
       7       1       1      10      13      13      12       4       6       7
      10      11       9       9       3       7       2       9       1      12
       2       5       3      11       4       2       1       1       1      14
      16       4       1      16       4       1      12      11      12      11
       1      12      11       1       8       7       8       7       8       7
       8       7       8       7       8       7       7       2       6       2
       3       6       3       5       7       2       6       2       7       2
       6       2       7       2       6       2       7       2       6       2
       7       1       1       7       1       1       2       6       1       7
       1       1       7       1       1       7       1       1       4       4
       4       4       4       4       3       3       3       3       3       3
       2       1       1       2       1       1       2       1       1       2
       1       1       2       1       1       2       1       1      11      13
       5       8       7       2       1       1       8       2       7       2
       9       1       1      14      12      11      11       7       8       7
      15       2       7       2       7       2       6       2      10      18
       1       7       1       1      10      13      13      12       4       6
       7      10      11       9       9       3       7       2       9       1
      12       2       5       3      11       4       2       1       1       1
      14      16       4       1      16       4       1      12      11      12
      11       1      12      11       1       8       7       8       7       8
       7       8       7       8       7       8       7       7       2       6
       2       3       6       3       5       7       2       6       2       7
       2       6       2       7       2       6       2       7       2       6
       2       7       1       1       7       1       1       2       6       1
       7       1       1       7       1       1       7       1       1       4
       4       4       4       4       4       3       3       3       3       3
       3       2       1       1       2       1       1       2       1       1
       2       1       1       2       1       1       2       1       1      11
      13       5       8       7       2       1       1       8       2       7
       2       9       1       1      14      12      11      11       7       8
       7      15       2       7       2       7       2       6       2      10
      18       1       7       1       1      10      13      13      12       4
       6       7      10      11       9       9       3       7       2       9
       1      12       2       5       3      11       4       2       1       1
       1      14      16       4       1      16       4       1      12      11
      12      11       1      12      11       1       8       7       8       7
       8       7       8       7       8       7       8       7       7       2
       6       2       3       6       3       5       7       2       6       2
       7       2       6       2       7       2       6       2       7       2
       6       2       7       1       1       7       1       1       2       6
       1       7       1       1       7       1       1       7       1       1
       4       4       4       4       4       4       3       3       3       3
       3       3       2       1       1       2       1       1       2       1
       1       2       1       1       2       1       1       2       1       1
      11      13       5       8       7       2       1       1       8       2
       7       2       9       1       1      14      12      11      11       7
       8       7      15       2       7       2       7       2       6       2
      10      18       1       7       1       1      10      13      13      12
       4       6       7      10      11       9       9       3       7       2
       9       1      12       2       5       3      11       4       2       1
       1       1      14      16       4       1      16       4       1      12
      11      12      11       1      12      11       1       8       7       8
       7       8       7       8       7       8       7       8       7       7
       2       6       2       3       6       3       5       7       2       6
       2       7       2       6       2       7       2       6       2       7
       2       6       2       7       1       1       7       1       1       2
       6       1       7       1       1       7       1       1       7       1
       1       4       4       4       4       4       4       3       3       3
       3       3       3       2       1       1       2       1       1       2
       1       1       2       1       1       2       1       1       2       1
       1      11      13       5       8       7       2       1       1       8
       2       7       2       9       1       1      14      12      11      11
       7       8       7      15       2       7       2       7       2       6
       2      10      18       1       7       1       1      10      13      13
      12       4       6       7      10      11       9       9       3       7
       2       9       1      12       2       5       3      11       4       2
       1       1       1      14      16       4       1      16       4       1
      12      11      12      11       1      12      11       1       8       7
       8       7       8       7       8       7       8       7       8       7
       7       2       6       2       3       6       3       5       7       2
       6       2       7       2       6       2       7       2       6       2
       7       2       6       2       7       1       1       7       1       1
       2       6       1       7       1       1       7       1       1       7
       1       1       4       4       4       4       4       4       3       3
       3       3       3       3       2       1       1       2       1       1
       2       1       1       2       1       1       2       1       1       2
       1       1      11      13       5       8       7       2       1       1
       8       2       7       2       9       1       1      14      12      11
      11       7       8       7      15       2       7       2       7       2
       6       2      10      18       1       7       1       1      10      13
      13      12       4       6       7      10      11       9       9       3
       7       2       9       1      12       2       5       3      11       4
       2       1       1       1      14      16       4       1      16       4
       1      12      11      12      11       1      12      11       1       8
       7       8       7       8       7       8       7       8       7       8
       7       7       2       6       2       3       6       3       5       7
       2       6       2       7       2       6       2       7       2       6
       2       7       2       6       2       7       1       1       7       1
       1       2       6       1       7       1       1       7       1       1
       7       1       1       4       4       4       4       4       4       3
       3       3       3       3       3       2       1       1       2       1
       1       2       1       1       2       1       1       2       1       1
       2       1       1      11      13       5       8       7       2       1
       1       8       2       7       2       9       1       1      14      12
      11      11       7       8       7      15       2       7       2       7
       2       6       2      10      18       1       7       1       1      10
      13      13      12       4       6       7      10      11       9       9
       3       7       2       9       1      12       2       5       3      11
       4       2       1       1       1      14      16       4       1      16
       4       1      12      11      12      11       1      12      11       1
       8       7       8       7       8       7       8       7       8       7
       8       7       7       2       6       2       3       6       3       5
       7       2       6       2       7       2       6       2       7       2
       6       2       7       2       6       2       7       1       1       7
       1       1       2       6       1       7       1       1       7       1
       1       7       1       1       4       4       4       4       4       4
       3       3       3       3       3       3       2       1       1       2
       1       1       2       1       1       2       1       1       2       1
       1       2       1       1      11      13       5       8       7       2
       1       1       8       2       7       2       9       1       1      14
      12      11      11       7       8       7      15       2       7       2
       7       2       6       2      10      18       1       7       1       1
      10      13      13      12       4       6       7      10      11       9
       9       3       7       2       9       1      12       2       5       3
      11       4       2       1       1       1      14      16       4       1
      16       4       1      12      11      12      11       1      12      11
       1       8       7       8       7       8       7       8       7       8
       7       8       7       7       2       6       2       3       6       3
       5       7       2       6       2       7       2       6       2       7
       2       6       2       7       2       6       2       7       1       1
       7       1       1       2       6       1       7       1       1       7
       1       1       7       1       1       4       4       4       4       4
       4       3       3       3       3       3       3       2       1       1
       2       1       1       2       1       1       2       1       1       2
       1       1       2       1       1      11      13       5       8       7
       2       1       1       8       2       7       2       9       1       1
      14      12      11      11       7       8       7      15       2       7
       2       7       2       6       2      10      18       1       7       1
       1      10      13      13      12       4       6       7      10      11
       9       9       3       7       2       9       1      12       2       5
       3      11       4       2       1       1       1      14      16       4
       1      16       4       1      12      11      12      11       1      12
      11       1       8       7       8       7       8       7       8       7
       8       7       8       7       7       2       6       2       3       6
       3       5       7       2       6       2       7       2       6       2
       7       2       6       2       7       2       6       2       7       1
       1       7       1       1       2       6       1       7       1       1
       7       1       1       7       1       1       4       4       4       4
       4       4       3       3       3       3       3       3       2       1
       1       2       1       1       2       1       1       2       1       1
       2       1       1       2       1       1      11      13       5       8
       7       2       1       1       8       2       7       2       9       1
       1      14      12      11      11       7       8       7      15       2
       7       2       7       2       6       2      10      18       1       7
       1       1      10      13      13      12       4       6       7      10
      11       9       9       3       7       2       9       1      12       2
       5       3      11       4       2       1       1       1      14      16
       4       1      16       4       1      12      11      12      11       1
      12      11       1       8       7       8       7       8       7       8
       7       8       7       8       7       7       2       6       2       3
       6       3       5       7       2       6       2       7       2       6
       2       7       2       6       2       7       2       6       2       7
       1       1       7       1       1       2       6       1       7       1
       1       7       1       1       7       1       1       4       4       4
       4       4       4       3       3       3       3       3       3       2
       1       1       2       1       1       2       1       1       2       1
       1       2       1       1       2       1       1      11      13       5
       8       7       2       1       1       8       2       7       2       9
       1       1      14      12      11      11       7       8       7      15
       2       7       2       7       2       6       2      10      18       1
       7       1       1      10      13      13      12       4       6       7
      10      11       9       9       3       7       2       9       1      12
       2       5       3      11       4       2       1       1       1      14
      16       4       1      16       4       1      12      11      12      11
       1      12      11       1       8       7       8       7       8       7
       8       7       8       7       8       7       7       2       6       2
       3       6       3       5       7       2       6       2       7       2
       6       2       7       2       6       2       7       2       6       2
       7       1       1       7       1       1       2       6       1       7
       1       1       7       1       1       7       1       1       4       4
       4       4       4       4       3       3       3       3       3       3
       2       1       1       2       1       1       2       1       1       2
       1       1       2       1       1       2       1       1      11      13
       5       8       7       2       1       1       8       2       7       2
       9       1       1      14      12      11      11       7       8       7
      15       2       7       2       7       2       6       2      10      18
       1       7       1       1      10      13      13      12       4       6
       7      10      11       9       9       3       7       2       9       1
      12       2       5       3      11       4       2       1       1       1
      14      16       4       1      16       4       1      12      11      12
      11       1      12      11       1       8       7       8       7       8
       7       8       7       8       7       8       7       7       2       6
       2       3       6       3       5       7       2       6       2       7
       2       6       2       7       2       6       2       7       2       6
       2       7       1       1       7       1       1       2       6       1
       7       1       1       7       1       1       7       1       1       4
       4       4       4       4       4       3       3       3       3       3
       3       2       1       1       2       1       1       2       1       1
       2       1       1       2       1       1       2       1       1      11
      13       5       8       7       2       1       1       8       2       7
       2       9       1       1      14      12      11      11       7       8
       7      15       2       7       2       7       2       6       2      10
      18       1       7       1       1      10      13      13      12       4
       6       7      10      11       9       9       3       7       2       9
       1      12       2       5       3      11       4       2       1       1
       1      14      16       4       1      16       4       1      12      11
      12      11       1      12      11       1       8       7       8       7
       8       7       8       7       8       7       8       7       7       2
       6       2       3       6       3       5       7       2       6       2
       7       2       6       2       7       2       6       2       7       2
       6       2       7       1       1       7       1       1       2       6
       1       7       1       1       7       1       1       7       1       1
       4       4       4       4       4       4       3       3       3       3
       3       3       2       1       1       2       1       1       2       1
       1       2       1       1       2       1       1       2       1       1
      11      13       5       8       7       2       1       1       8       2
       7       2       9       1       1      14      12      11      11       7
       8       7      15       2       7       2       7       2       6       2
      10      18       1       7       1       1      10      13      13      12
       4       6       7      10      11       9       9       3       7       2
       9       1      12       2       5       3      11       4       2       1
       1       1      14      16       4       1      16       4       1      12
      11      12      11       1      12      11       1       8       7       8
       7       8       7       8       7       8       7       8       7       7
       2       6       2       3       6       3       5       7       2       6
       2       7       2       6       2       7       2       6       2       7
       2       6       2       7       1       1       7       1       1       2
       6       1       7       1       1       7       1       1       7       1
       1       4       4       4       4       4       4       3       3       3
       3       3       3       2       1       1       2       1       1       2
       1       1       2       1       1       2       1       1       2       1
       1      11      13       5       8       7       2       1       1       8
       2       7       2       9       1       1      14      12      11      11
       7       8       7      15       2       7       2       7       2       6
       2      10      18       1       7       1       1      10      13      13
      12       4       6       7      10      11       9       9       3       7
       2       9       1      12       2       5       3      11       4       2
       1       1       1      14      16       4       1      16       4       1
      12      11      12      11       1      12      11       1       8       7
       8       7       8       7       8       7       8       7       8       7
       7       2       6       2       3       6       3       5       7       2
       6       2       7       2       6       2       7       2       6       2
       7       2       6       2       7       1       1       7       1       1
       2       6       1       7       1       1       7       1       1       7
       1       1       4       4       4       4       4       4       3       3
       3       3       3       3       2       1       1       2       1       1
       2       1       1       2       1       1       2       1       1       2
       1       1      11      13       5       8       7       2       1       1
       8       2       7       2       9       1       1      14      12      11
      11       7       8       7      15       2       7       2       7       2
       6       2      10      18       1       7       1       1      10      13
      13      12       4       6       7      10      11       9       9       3
       7       2       9       1      12       2       5       3      11       4
       2       1       1       1      14      16       4       1      16       4
       1      12      11      12      11       1      12      11       1       8
       7       8       7       8       7       8       7       8       7       8
       7       7       2       6       2       3       6       3       5       7
       2       6       2       7       2       6       2       7       2       6
       2       7       2       6       2       7       1       1       7       1
       1       2       6       1       7       1       1       7       1       1
       7       1       1       4       4       4       4       4       4       3
       3       3       3       3       3       2       1       1       2       1
       1       2       1       1       2       1       1       2       1       1
       2       1       1      11      13       5       8       7       2       1
       1       8       2       7       2       9       1       1      14      12
      11      11       7       8       7      15       2       7       2       7
       2       6       2      10      18       1       7       1       1      10
      13      13      12       4       6       7      10      11       9       9
       3       7       2       9       1      12       2       5       3      11
       4       2       1       1       1      14      16       4       1      16
       4       1      12      11      12      11       1      12      11       1
       8       7       8       7       8       7       8       7       8       7
       8       7       7       2       6       2       3       6       3       5
       7       2       6       2       7       2       6       2       7       2
       6       2       7       2       6       2       7       1       1       7
       1       1       2       6       1       7       1       1       7       1
       1       7       1       1       4       4       4       4       4       4
       3       3       3       3       3       3       2       1       1       2
       1       1       2       1       1       2       1       1       2       1
       1       2       1       1      11      13       5       8       7       2
       1       1       8       2       7       2       9       1       1      14
      12      11      11       7       8       7      15       2       7       2
       7       2       6       2      10      18       1       7       1       1
      10      13      13      12       4       6       7      10      11       9
       9       3       7       2       9       1      12       2       5       3
      11       4       2       1       1       1      14      16       4       1
      16       4       1      12      11      12      11       1      12      11
       1       8       7       8       7       8       7       8       7       8
       7       8       7       7       2       6       2       3       6       3
       5       7       2       6       2       7       2       6       2       7
       2       6       2       7       2       6       2       7       1       1
       7       1       1       2       6       1       7       1       1       7
       1       1       7       1       1       4       4       4       4       4
       4       3       3       3       3       3       3       2       1       1
       2       1       1       2       1       1       2       1       1       2
       1       1       2       1       1      11      13       5       8       7
       2       1       1       8       2       7       2       9       1       1
      14      12      11      11       7       8       7      15       2       7
       2       7       2       6       2      10      18       1       7       1
       1      10      13      13      12       4       6       7      10      11
       9       9       3       7       2       9       1      12       2       5
       3      11       4       2       1       1       1      14      16       4
       1      16       4       1      12      11      12      11       1      12
      11       1       8       7       8       7       8       7       8       7
       8       7       8       7       7       2       6       2       3       6
       3       5       7       2       6       2       7       2       6       2
       7       2       6       2       7       2       6       2       7       1
       1       7       1       1       2       6       1       7       1       1
       7       1       1       7       1       1       4       4       4       4
       4       4       3       3       3       3       3       3       2       1
       1       2       1       1       2       1       1       2       1       1
       2       1       1       2       1       1      11      13       5       8
       7       2       1       1       8       2       7       2       9       1
       1      14      12      11      11       7       8       7      15       2
       7       2       7       2       6       2      10      18       1       7
       1       1      10      13      13      12       4       6       7      10
      11       9       9       3       7       2       9       1      12       2
       5       3      11       4       2       1       1       1      14      16
       4       1      16       4       1      12      11      12      11       1
      12      11       1       8       7       8       7       8       7       8
       7       8       7       8       7       7       2       6       2       3
       6       3       5       7       2       6       2       7       2       6
       2       7       2       6       2       7       2       6       2       7
       1       1       7       1       1       2       6       1       7       1
       1       7       1       1       7       1       1       4       4       4
       4       4       4       3       3       3       3       3       3       2
       1       1       2       1       1       2       1       1       2       1
       1       2       1       1       2       1       1      11      13       5
       8       7       2       1       1       8       2       7       2       9
       1       1      14      12      11      11       7       8       7      15
       2       7       2       7       2       6       2      10      18       1
       7       1       1      10      13      13      12       4       6       7
      10      11       9       9       3       7       2       9       1      12
       2       5       3      11       4       2       1       1       1      14
      16       4       1      16       4       1      12      11      12      11
       1      12      11       1       8       7       8       7       8       7
       8       7       8       7       8       7       7       2       6       2
       3       6       3       5       7       2       6       2       7       2
       6       2       7       2       6       2       7       2       6       2
       7       1       1       7       1       1       2       6       1       7
       1       1       7       1       1       7       1       1       4       4
       4       4       4       4       3       3       3       3       3       3
       2       1       1       2       1       1       2       1       1       2
       1       1       2       1       1       2       1       1      11      13
       5       8       7       2       1       1       8       2       7       2
       9       1       1      14      12      11      11       7       8       7
      15       2       7       2       7       2       6       2      10      18
       1       7       1       1      10      13      13      12       4       6
       7      10      11       9       9       3       7       2       9       1
      12       2       5       3      11       4       2       1       1       1
      14      16       4       1      16       4       1      12      11      12
      11       1      12      11       1       8       7       8       7       8
       7       8       7       8       7       8       7       7       2       6
       2       3       6       3       5       7       2       6       2       7
       2       6       2       7       2       6       2       7       2       6
       2       7       1       1       7       1       1       2       6       1
       7       1       1       7       1       1       7       1       1       4
       4       4       4       4       4       3       3       3       3       3
       3       2       1       1       2       1       1       2       1       1
       2       1       1       2       1       1       2       1       1      11
      13       5       8       7       2       1       1       8       2       7
       2       9       1       1      14      12      11      11       7       8
       7      15       2       7       2       7       2       6       2      10
      18       1       7       1       1      10      13      13      12       4
       6       7      10      11       9       9       3       7       2       9
       1      12       2       5       3      11       4       2       1       1
       1      14      16       4       1      16       4       1      12      11
      12      11       1      12      11       1       8       7       8       7
       8       7       8       7       8       7       8       7       7       2
       6       2       3       6       3       5       7       2       6       2
       7       2       6       2       7       2       6       2       7       2
       6       2       7       1       1       7       1       1       2       6
       1       7       1       1       7       1       1       7       1       1
       4       4       4       4       4       4       3       3       3       3
       3       3       2       1       1       2       1       1       2       1
       1       2       1       1       2       1       1       2       1       1
      11      13       5       8       7       2       1       1       8       2
       7       2       9       1       1      14      12      11      11       7
       8       7      15       2       7       2       7       2       6       2
      10      18       1       7       1       1      10      13      13      12
       4       6       7      10      11       9       9       3       7       2
       9       1      12       2       5       3      11       4       2       1
       1       1      14      16       4       1      16       4       1      12
      11      12      11       1      12      11       1       8       7       8
       7       8       7       8       7       8       7       8       7       7
       2       6       2       3       6       3       5       7       2       6
       2       7       2       6       2       7       2       6       2       7
       2       6       2       7       1       1       7       1       1       2
       6       1       7       1       1       7       1       1       7       1
       1       4       4       4       4       4       4       3       3       3
       3       3       3       2       1       1       2       1       1       2
       1       1       2       1       1       2       1       1       2       1
       1      11      13       5       8       7       2       1       1       8
       2       7       2       9       1       1      14      12      11      11
       7       8       7      15       2       7       2       7       2       6
       2      10      18       1       7       1       1      10      13      13
      12       4       6       7      10      11       9       9       3       7
       2       9       1      12       2       5       3      11       4       2
       1       1       1      14      16       4       1      16       4       1
      12      11      12      11       1      12      11       1       8       7
       8       7       8       7       8       7       8       7       8       7
       7       2       6       2       3       6       3       5       7       2
       6       2       7       2       6       2       7       2       6       2
       7       2       6       2       7       1       1       7       1       1
       2       6       1       7       1       1       7       1       1       7
       1       1       4       4       4       4       4       4       3       3
       3       3       3       3       2       1       1       2       1       1
       2       1       1       2       1       1       2       1       1       2
       1       1      11      13       5       8       7       2       1       1
       8       2       7       2       9       1       1      14      12      11
      11       7       8       7      15       2       7       2       7       2
       6       2      10      18       1       7       1       1      10      13
      13      12       4       6       7      10      11       9       9       3
       7       2       9       1      12       2       5       3      11       4
       2       1       1       1      14      16       4       1      16       4
       1      12      11      12      11       1      12      11       1       8
       7       8       7       8       7       8       7       8       7       8
       7       7       2       6       2       3       6       3       5       7
       2       6       2       7       2       6       2       7       2       6
       2       7       2       6       2       7       1       1       7       1
       1       2       6       1       7       1       1       7       1       1
       7       1       1       4       4       4       4       4       4       3
       3       3       3       3       3       2       1       1       2       1
       1       2       1       1       2       1       1       2       1       1
       2       1       1      11      13       5       8       7       2       1
       1       8       2       7       2       9       1       1      14      12
      11      11       7       8       7      15       2       7       2       7
       2       6       2      10      18       1       7       1       1      10
      13      13      12       4       6       7      10      11       9       9
       3       7       2       9       1      12       2       5       3      11
       4       2       1       1       1      14      16       4       1      16
       4       1      12      11      12      11       1      12      11       1
       8       7       8       7       8       7       8       7       8       7
       8       7       7       2       6       2       3       6       3       5
       7       2       6       2       7       2       6       2       7       2
       6       2       7       2       6       2       7       1       1       7
       1       1       2       6       1       7       1       1       7       1
       1       7       1       1       4       4       4       4       4       4
       3       3       3       3       3       3       2       1       1       2
       1       1       2       1       1       2       1       1       2       1
       1       2       1       1      11      13       5       8       7       2
       1       1       8       2       7       2       9       1       1      14
      12      11      11       7       8       7      15       2       7       2
       7       2       6       2      10      18       1       7       1       1
      10      13      13      12       4       6       7      10      11       9
       9       3       7       2       9       1      12       2       5       3
      11       4       2       1       1       1      14      16       4       1
      16       4       1      12      11      12      11       1      12      11
       1       8       7       8       7       8       7       8       7       8
       7       8       7       7       2       6       2       3       6       3
       5       7       2       6       2       7       2       6       2       7
       2       6       2       7       2       6       2       7       1       1
       7       1       1       2       6       1       7       1       1       7
       1       1       7       1       1       4       4       4       4       4
       4       3       3       3       3       3       3       2       1       1
       2       1       1       2       1       1       2       1       1       2
       1       1       2       1       1      11      13       5       8       7
       2       1       1       8       2       7       2       9       1       1
      14      12      11      11       7       8       7      15       2       7
       2       7       2       6       2      10      18       1       7       1
       1      10      13      13      12       4       6       7      10      11
       9       9       3       7       2       9       1      12       2       5
       3      11       4       2       1       1       1      14      16       4
       1      16       4       1      12      11      12      11       1      12
      11       1       8       7       8       7       8       7       8       7
       8       7       8       7       7       2       6       2       3       6
       3       5       7       2       6       2       7       2       6       2
       7       2       6       2       7       2       6       2       7       1
       1       7       1       1       2       6       1       7       1       1
       7       1       1       7       1       1       4       4       4       4
       4       4       3       3       3       3       3       3       2       1
       1       2       1       1       2       1       1       2       1       1
       2       1       1       2       1       1      11      13       5       8
       7       2       1       1       8       2       7       2       9       1
       1      14      12      11      11       7       8       7      15       2
       7       2       7       2       6       2      10      18       1       7
       1       1      10      13      13      12       4       6       7      10
      11       9       9       3       7       2       9       1      12       2
       5       3      11       4       2       1       1       1      14      16
       4       1      16       4       1      12      11      12      11       1
      12      11       1       8       7       8       7       8       7       8
       7       8       7       8       7       7       2       6       2       3
       6       3       5       7       2       6       2       7       2       6
       2       7       2       6       2       7       2       6       2       7
       1       1       7       1       1       2       6       1       7       1
       1       7       1       1       7       1       1       4       4       4
       4       4       4       3       3       3       3       3       3       2
       1       1       2       1       1       2       1       1       2       1
       1       2       1       1       2       1       1      11      13       5
       8       7       2       1       1       8       2       7       2       9
       1       1      14      12      11      11       7       8       7      15
       2       7       2       7       2       6       2      10      18       1
       7       1       1      10      13      13      12       4       6       7
      10      11       9       9       3       7       2       9       1      12
       2       5       3      11       4       2       1       1       1      14
      16       4       1      16       4       1      12      11      12      11
       1      12      11       1       8       7       8       7       8       7
       8       7       8       7       8       7       7       2       6       2
       3       6       3       5       7       2       6       2       7       2
       6       2       7       2       6       2       7       2       6       2
       7       1       1       7       1       1       2       6       1       7
       1       1       7       1       1       7       1       1       4       4
       4       4       4       4       3       3       3       3       3       3
       2       1       1       2       1       1       2       1       1       2
       1       1       2       1       1       2       1       1      11      13
       5       8       7       2       1       1       8       2       7       2
       9       1       1      14      12      11      11       7       8       7
      15       2       7       2       7       2       6       2      10      18
       1       7       1       1      10      13      13      12       4       6
       7      10      11       9       9       3       7       2       9       1
      12       2       5       3      11       4       2       1       1       1
      14      16       4       1      16       4       1      12      11      12
      11       1      12      11       1       8       7       8       7       8
       7       8       7       8       7       8       7       7       2       6
       2       3       6       3       5       7       2       6       2       7
       2       6       2       7       2       6       2       7       2       6
       2       7       1       1       7       1       1       2       6       1
       7       1       1       7       1       1       7       1       1       4
       4       4       4       4       4       3       3       3       3       3
       3       2       1       1       2       1       1       2       1       1
       2       1       1       2       1       1       2       1       1      11
      13       5       8       7       2       1       1       8       2       7
       2       9       1       1      14      12      11      11       7       8
       7      15       2       7       2       7       2       6       2      10
      18       1       7       1       1      10      13      13      12       4
       6       7      10      11       9       9       3       7       2       9
       1      12       2       5       3      11       4       2       1       1
       1      14      16       4       1      16       4       1      12      11
      12      11       1      12      11       1       8       7       8       7
       8       7       8       7       8       7       8       7       7       2
       6       2       3       6       3       5       7       2       6       2
       7       2       6       2       7       2       6       2       7       2
       6       2       7       1       1       7       1       1       2       6
       1       7       1       1       7       1       1       7       1       1
       4       4       4       4       4       4       3       3       3       3
       3       3       2       1       1       2       1       1       2       1
       1       2       1       1       2       1       1       2       1       1
      11      13       5       8       7       2       1       1       8       2
       7       2       9       1       1      14      12      11      11       7
       8       7      15       2       7       2       7       2       6       2
      10      18       1       7       1       1      10      13      13      12
       4       6       7      10      11       9       9       3       7       2
       9       1      12       2       5       3      11       4       2       1
       1       1      14      16       4       1      16       4       1      12
      11      12      11       1      12      11       1       8       7       8
       7       8       7       8       7       8       7       8       7       7
       2       6       2       3       6       3       5       7       2       6
       2       7       2       6       2       7       2       6       2       7
       2       6       2       7       1       1       7       1       1       2
       6       1       7       1       1       7       1       1       7       1
       1       4       4       4       4       4       4       3       3       3
       3       3       3       2       1       1       2       1       1       2
       1       1       2       1       1       2       1       1       2       1
       1      11      13       5       8       7       2       1       1       8
       2       7       2       9       1       1      14      12      11      11
       7       8       7      15       2       7       2       7       2       6
       2      10      18       1       7       1       1      10      13      13
      12       4       6       7      10      11       9       9       3       7
       2       9       1      12       2       5       3      11       4       2
       1       1       1      14      16       4       1      16       4       1
      12      11      12      11       1      12      11       1       8       7
       8       7       8       7       8       7       8       7       8       7
       7       2       6       2       3       6       3       5       7       2
       6       2       7       2       6       2       7       2       6       2
       7       2       6       2       7       1       1       7       1       1
       2       6       1       7       1       1       7       1       1       7
       1       1       4       4       4       4       4       4       3       3
       3       3       3       3       2       1       1       2       1       1
       2       1       1       2       1       1       2       1       1       2
       1       1      11      13       5       8       7       2       1       1
       8       2       7       2       9       1       1      14      12      11
      11       7       8       7      15       2       7       2       7       2
       6       2      10      18       1       7       1       1      10      13
      13      12       4       6       7      10      11       9       9       3
       7       2       9       1      12       2       5       3      11       4
       2       1       1       1      14      16       4       1      16       4
       1      12      11      12      11       1      12      11       1       8
       7       8       7       8       7       8       7       8       7       8
       7       7       2       6       2       3       6       3       5       7
       2       6       2       7       2       6       2       7       2       6
       2       7       2       6       2       7       1       1       7       1
       1       2       6       1       7       1       1       7       1       1
       7       1       1       4       4       4       4       4       4       3
       3       3       3       3       3       2       1       1       2       1
       1       2       1       1       2       1       1       2       1       1
       2       1       1      11      13       5       8       7       2       1
       1       8       2       7       2       9       1       1      14      12
      11      11       7       8       7      15       2       7       2       7
       2       6       2      10      18       1       7       1       1      10
      13      13      12       4       6       7      10      11       9       9
       3       7       2       9       1      12       2       5       3      11
       4       2       1       1       1      14      16       4       1      16
       4       1      12      11      12      11       1      12      11       1
       8       7       8       7       8       7       8       7       8       7
       8       7       7       2       6       2       3       6       3       5
       7       2       6       2       7       2       6       2       7       2
       6       2       7       2       6       2       7       1       1       7
       1       1       2       6       1       7       1       1       7       1
       1       7       1       1       4       4       4       4       4       4
       3       3       3       3       3       3       2       1       1       2
       1       1       2       1       1       2       1       1       2       1
       1       2       1       1      11      13       5       8       7       2
       1       1       8       2       7       2       9       1       1      14
      12      11      11       7       8       7      15       2       7       2
       7       2       6       2      10      18       1       7       1       1
      10      13      13      12       4       6       7      10      11       9
       9       3       7       2       9       1      12       2       5       3
      11       4       2       1       1       1      14      16       4       1
      16       4       1      12      11      12      11       1      12      11
       1       8       7       8       7       8       7       8       7       8
       7       8       7       7       2       6       2       3       6       3
       5       7       2       6       2       7       2       6       2       7
       2       6       2       7       2       6       2       7       1       1
       7       1       1       2       6       1       7       1       1       7
       1       1       7       1       1       4       4       4       4       4
       4       3       3       3       3       3       3       2       1       1
       2       1       1       2       1       1       2       1       1       2
       1       1       2       1       1      11      13       5       8       7
       2       1       1       8       2       7       2       9       1       1
      14      12      11      11       7       8       7      15       2       7
       2       7       2       6       2      10      18       1       7       1
       1      10      13      13      12       4       6       7      10      11
       9       9       3       7       2       9       1      12       2       5
       3      11       4       2       1       1       1      14      16       4
       1      16       4       1      12      11      12      11       1      12
      11       1       8       7       8       7       8       7       8       7
       8       7       8       7       7       2       6       2       3       6
       3       5       7       2       6       2       7       2       6       2
       7       2       6       2       7       2       6       2       7       1
       1       7       1       1       2       6       1       7       1       1
       7       1       1       7       1       1       4       4       4       4
       4       4       3       3       3       3       3       3       2       1
       1       2       1       1       2       1       1       2       1       1
       2       1       1       2       1       1      11      13       5       8
       7       2       1       1       8       2       7       2       9       1
       1      14      12      11      11       7       8       7      15       2
       7       2       7       2       6       2      10      18       1       7
       1       1      10      13      13      12       4       6       7      10
      11       9       9       3       7       2       9       1      12       2
       5       3      11       4       2       1       1       1      14      16
       4       1      16       4       1      12      11      12      11       1
      12      11       1       8       7       8       7       8       7       8
       7       8       7       8       7       7       2       6       2       3
       6       3       5       7       2       6       2       7       2       6
       2       7       2       6       2       7       2       6       2       7
       1       1       7       1       1       2       6       1       7       1
       1       7       1       1       7       1       1       4       4       4
       4       4       4       3       3       3       3       3       3       2
       1       1       2       1       1       2       1       1       2       1
       1       2       1       1       2       1       1      11      13       5
       8       7       2       1       1       8       2       7       2       9
       1       1      14      12      11      11       7       8       7      15
       2       7       2       7       2       6       2      10      18       1
       7       1       1      10      13      13      12       4       6       7
      10      11       9       9       3       7       2       9       1      12
       2       5       3      11       4       2       1       1       1      14
      16       4       1      16       4       1      12      11      12      11
       1      12      11       1       8       7       8       7       8       7
       8       7       8       7       8       7       7       2       6       2
       3       6       3       5       7       2       6       2       7       2
       6       2       7       2       6       2       7       2       6       2
       7       1       1       7       1       1       2       6       1       7
       1       1       7       1       1       7       1       1       4       4
       4       4       4       4       3       3       3       3       3       3
       2       1       1       2       1       1       2       1       1       2
       1       1       2       1       1       2       1       1      11      13
       5       8       7       2       1       1       8       2       7       2
       9       1       1      14      12      11      11       7       8       7
      15       2       7       2       7       2       6       2      10      18
       1       7       1       1      10      13      13      12       4       6
       7      10      11       9       9       3       7       2       9       1
      12       2       5       3      11       4       2       1       1       1
      14      16       4       1      16       4       1      12      11      12
      11       1      12      11       1       8       7       8       7       8
       7       8       7       8       7       8       7       7       2       6
       2       3       6       3       5       7       2       6       2       7
       2       6       2       7       2       6       2       7       2       6
       2       7       1       1       7       1       1       2       6       1
       7       1       1       7       1       1       7       1       1       4
       4       4       4       4       4       3       3       3       3       3
       3       2       1       1       2       1       1       2       1       1
       2       1       1       2       1       1       2       1       1      11
      13       5       8       7       2       1       1       8       2       7
       2       9       1       1      14      12      11      11       7       8
       7      15       2       7       2       7       2       6       2      10
      18       1       7       1       1      10      13      13      12       4
       6       7      10      11       9       9       3       7       2       9
       1      12       2       5       3      11       4       2       1       1
       1      14      16       4       1      16       4       1      12      11
      12      11       1      12      11       1       8       7       8       7
       8       7       8       7       8       7       8       7       7       2
       6       2       3       6       3       5       7       2       6       2
       7       2       6       2       7       2       6       2       7       2
       6       2       7       1       1       7       1       1       2       6
       1       7       1       1       7       1       1       7       1       1
       4       4       4       4       4       4       3       3       3       3
       3       3       2       1       1       2       1       1       2       1
       1       2       1       1       2       1       1       2       1       1
      11      13       5       8       7       2       1       1       8       2
       7       2       9       1       1      14      12      11      11       7
       8       7      15       2       7       2       7       2       6       2
      10      18       1       7       1       1      10      13      13      12
       4       6       7      10      11       9       9       3       7       2
       9       1      12       2       5       3      11       4       2       1
       1       1      14      16       4       1      16       4       1      12
      11      12      11       1      12      11       1       8       7       8
       7       8       7       8       7       8       7       8       7       7
       2       6       2       3       6       3       5       7       2       6
       2       7       2       6       2       7       2       6       2       7
       2       6       2       7       1       1       7       1       1       2
       6       1       7       1       1       7       1       1       7       1
       1       4       4       4       4       4       4       3       3       3
       3       3       3       2       1       1       2       1       1       2
       1       1       2       1       1       2       1       1       2       1
       1      11      13       5       8       7       2       1       1       8
       2       7       2       9       1       1      14      12      11      11
       7       8       7      15       2       7       2       7       2       6
       2      10      18       1       7       1       1      10      13      13
      12       4       6       7      10      11       9       9       3       7
       2       9       1      12       2       5       3      11       4       2
       1       1       1      14      16       4       1      16       4       1
      12      11      12      11       1      12      11       1       8       7
       8       7       8       7       8       7       8       7       8       7
       7       2       6       2       3       6       3       5       7       2
       6       2       7       2       6       2       7       2       6       2
       7       2       6       2       7       1       1       7       1       1
       2       6       1       7       1       1       7       1       1       7
       1       1       4       4       4       4       4       4       3       3
       3       3       3       3       2       1       1       2       1       1
       2       1       1       2       1       1       2       1       1       2
       1       1      11      13       5       8       7       2       1       1
       8       2       7       2       9       1       1      14      12      11
      11       7       8       7      15       2       7       2       7       2
       6       2      10      18       1       7       1       1      10      13
      13      12       4       6       7      10      11       9       9       3
       7       2       9       1      12       2       5       3      11       4
       2       1       1       1      14      16       4       1      16       4
       1      12      11      12      11       1      12      11       1       8
       7       8       7       8       7       8       7       8       7       8
       7       7       2       6       2       3       6       3       5       7
       2       6       2       7       2       6       2       7       2       6
       2       7       2       6       2       7       1       1       7       1
       1       2       6       1       7       1       1       7       1       1
       7       1       1       4       4       4       4       4       4       3
       3       3       3       3       3       2       1       1       2       1
       1       2       1       1       2       1       1       2       1       1
       2       1       1      11      13       5       8       7       2       1
       1       8       2       7       2       9       1       1      14      12
      11      11       7       8       7      15       2       7       2       7
       2       6       2      10      18       1       7       1       1      10
      13      13      12       4       6       7      10      11       9       9
       3       7       2       9       1      12       2       5       3      11
       4       2       1       1       1      14      16       4       1      16
       4       1      12      11      12      11       1      12      11       1
       8       7       8       7       8       7       8       7       8       7
       8       7       7       2       6       2       3       6       3       5
       7       2       6       2       7       2       6       2       7       2
       6       2       7       2       6       2       7       1       1       7
       1       1       2       6       1       7       1       1       7       1
       1       7       1       1       4       4       4       4       4       4
       3       3       3       3       3       3       2       1       1       2
       1       1       2       1       1       2       1       1       2       1
       1       2       1       1      11      13       5       8       7       2
       1       1       8       2       7       2       9       1       1      14
      12      11      11       7       8       7      15       2       7       2
       7       2       6       2      10      18       1       7       1       1
      10      13      13      12       4       6       7      10      11       9
       9       3       7       2       9       1      12       2       5       3
      11       4       2       1       1       1      14      16       4       1
      16       4       1      12      11      12      11       1      12      11
       1       8       7       8       7       8       7       8       7       8
       7       8       7       7       2       6       2       3       6       3
       5       7       2       6       2       7       2       6       2       7
       2       6       2       7       2       6       2       7       1       1
       7       1       1       2       6       1       7       1       1       7
       1       1       7       1       1       4       4       4       4       4
       4       3       3       3       3       3       3       2       1       1
       2       1       1       2       1       1       2       1       1       2
       1       1       2       1       1      11      13       5       8       7
       2       1       1       8       2       7       2       9       1       1
      14      12      11      11       7       8       7      15       2       7
       2       7       2       6       2      10      18       1       7       1
       1      10      13      13      12       4       6       7      10      11
       9       9       3       7       2       9       1      12       2       5
       3      11       4       2       1       1       1      14      16       4
       1      16       4       1      12      11      12      11       1      12
      11       1       8       7       8       7       8       7       8       7
       8       7       8       7       7       2       6       2       3       6
       3       5       7       2       6       2       7       2       6       2
       7       2       6       2       7       2       6       2       7       1
       1       7       1       1       2       6       1       7       1       1
       7       1       1       7       1       1       4       4       4       4
       4       4       3       3       3       3       3       3       2       1
       1       2       1       1       2       1       1       2       1       1
       2       1       1       2       1       1      11      13       5       8
       7       2       1       1       8       2       7       2       9       1
       1      14      12      11      11       7       8       7      15       2
       7       2       7       2       6       2      10      18       1       7
       1       1      10      13      13      12       4       6       7      10
      11       9       9       3       7       2       9       1      12       2
       5       3      11       4       2       1       1       1      14      16
       4       1      16       4       1      12      11      12      11       1
      12      11       1       8       7       8       7       8       7       8
       7       8       7       8       7       7       2       6       2       3
       6       3       5       7       2       6       2       7       2       6
       2       7       2       6       2       7       2       6       2       7
       1       1       7       1       1       2       6       1       7       1
       1       7       1       1       7       1       1       4       4       4
       4       4       4       3       3       3       3       3       3       2
       1       1       2       1       1       2       1       1       2       1
       1       2       1       1       2       1       1      11      13       5
       8       7       2       1       1       8       2       7       2       9
       1       1      14      12      11      11       7       8       7      15
       2       7       2       7       2       6       2      10      18       1
       7       1       1      10      13      13      12       4       6       7
      10      11       9       9       3       7       2       9       1      12
       2       5       3      11       4       2       1       1       1      14
      16       4       1      16       4       1      12      11      12      11
       1      12      11       1       8       7       8       7       8       7
       8       7       8       7       8       7       7       2       6       2
       3       6       3       5       7       2       6       2       7       2
       6       2       7       2       6       2       7       2       6       2
       7       1       1       7       1       1       2       6       1       7
       1       1       7       1       1       7       1       1       4       4
       4       4       4       4       3       3       3       3       3       3
       2       1       1       2       1       1       2       1       1       2
       1       1       2       1       1       2       1       1      11      13
       5       8       7       2       1       1       8       2       7       2
       9       1       1      14      12      11      11       7       8       7
      15       2       7       2       7       2       6       2      10      18
       1       7       1       1      10      13      13      12       4       6
       7      10      11       9       9       3       7       2       9       1
      12       2       5       3      11       4       2       1       1       1
      14      16       4       1      16       4       1      12      11      12
      11       1      12      11       1       8       7       8       7       8
       7       8       7       8       7       8       7       7       2       6
       2       3       6       3       5       7       2       6       2       7
       2       6       2       7       2       6       2       7       2       6
       2       7       1       1       7       1       1       2       6       1
       7       1       1       7       1       1       7       1       1       4
       4       4       4       4       4       3       3       3       3       3
       3       2       1       1       2       1       1       2       1       1
       2       1       1       2       1       1       2       1       1      11
      13       5       8       7       2       1       1       8       2       7
       2       9       1       1      14      12      11      11       7       8
       7      15       2       7       2       7       2       6       2      10
      18       1       7       1       1      10      13      13      12       4
       6       7      10      11       9       9       3       7       2       9
       1      12       2       5       3      11       4       2       1       1
       1      14      16       4       1      16       4       1      12      11
      12      11       1      12      11       1       8       7       8       7
       8       7       8       7       8       7       8       7       7       2
       6       2       3       6       3       5       7       2       6       2
       7       2       6       2       7       2       6       2       7       2
       6       2       7       1       1       7       1       1       2       6
       1       7       1       1       7       1       1       7       1       1
       4       4       4       4       4       4       3       3       3       3
       3       3       2       1       1       2       1       1       2       1
       1       2       1       1       2       1       1       2       1       1
      11      13       5       8       7       2       1       1       8       2
       7       2       9       1       1      14      12      11      11       7
       8       7      15       2       7       2       7       2       6       2
      10      18       1       7       1       1      10      13      13      12
       4       6       7      10      11       9       9       3       7       2
       9       1      12       2       5       3      11       4       2       1
       1       1      14      16       4       1      16       4       1      12
      11      12      11       1      12      11       1       8       7       8
       7       8       7       8       7       8       7       8       7       7
       2       6       2       3       6       3       5       7       2       6
       2       7       2       6       2       7       2       6       2       7
       2       6       2       7       1       1       7       1       1       2
       6       1       7       1       1       7       1       1       7       1
       1       4       4       4       4       4       4       3       3       3
       3       3       3       2       1       1       2       1       1       2
       1       1       2       1       1       2       1       1       2       1
       1      11      13       5       8       7       2       1       1       8
       2       7       2       9       1       1      14      12      11      11
       7       8       7      15       2       7       2       7       2       6
       2      10      18       1       7       1       1      10      13      13
      12       4       6       7      10      11       9       9       3       7
       2       9       1      12       2       5       3      11       4       2
       1       1       1      14      16       4       1      16       4       1
      12      11      12      11       1      12      11       1       8       7
       8       7       8       7       8       7       8       7       8       7
       7       2       6       2       3       6       3       5       7       2
       6       2       7       2       6       2       7       2       6       2
       7       2       6       2       7       1       1       7       1       1
       2       6       1       7       1       1       7       1       1       7
       1       1       4       4       4       4       4       4       3       3
       3       3       3       3       2       1       1       2       1       1
       2       1       1       2       1       1       2       1       1       2
       1       1      11      13       5       8       7       2       1       1
       8       2       7       2       9       1       1      14      12      11
      11       7       8       7      15       2       7       2       7       2
       6       2      10      18       1       7       1       1      10      13
      13      12       4       6       7      10      11       9       9       3
       7       2       9       1      12       2       5       3      11       4
       2       1       1       1      14      16       4       1      16       4
       1      12      11      12      11       1      12      11       1       8
       7       8       7       8       7       8       7       8       7       8
       7       7       2       6       2       3       6       3       5       7
       2       6       2       7       2       6       2       7       2       6
       2       7       2       6       2       7       1       1       7       1
       1       2       6       1       7       1       1       7       1       1
       7       1       1       4       4       4       4       4       4       3
       3       3       3       3       3       2       1       1       2       1
       1       2       1       1       2       1       1       2       1       1
       2       1       1      11      13       5       8       7       2       1
       1       8       2       7       2       9       1       1      14      12
      11      11       7       8       7      15       2       7       2       7
       2       6       2      10      18       1       7       1       1      10
      13      13      12       4       6       7      10      11       9       9
       3       7       2       9       1      12       2       5       3      11
       4       2       1       1       1      14      16       4       1      16
       4       1      12      11      12      11       1      12      11       1
       8       7       8       7       8       7       8       7       8       7
       8       7       7       2       6       2       3       6       3       5
       7       2       6       2       7       2       6       2       7       2
       6       2       7       2       6       2       7       1       1       7
       1       1       2       6       1       7       1       1       7       1
       1       7       1       1       4       4       4       4       4       4
       3       3       3       3       3       3       2       1       1       2
       1       1       2       1       1       2       1       1       2       1
       1       2       1       1      11      13       5       8       7       2
       1       1       8       2       7       2       9       1       1      14
      12      11      11       7       8       7      15       2       7       2
       7       2       6       2      10      18       1       7       1       1
      10      13      13      12       4       6       7      10      11       9
       9       3       7       2       9       1      12       2       5       3
      11       4       2       1       1       1      14      16       4       1
      16       4       1      12      11      12      11       1      12      11
       1       8       7       8       7       8       7       8       7       8
       7       8       7       7       2       6       2       3       6       3
       5       7       2       6       2       7       2       6       2       7
       2       6       2       7       2       6       2       7       1       1
       7       1       1       2       6       1       7       1       1       7
       1       1       7       1       1       4       4       4       4       4
       4       3       3       3       3       3       3       2       1       1
       2       1       1       2       1       1       2       1       1       2
       1       1       2       1       1      11      13       5       8       7
       2       1       1       8       2       7       2       9       1       1
      14      12      11      11       7       8       7      15       2       7
       2       7       2       6       2      10      18       1       7       1
       1      10      13      13      12       4       6       7      10      11
       9       9       3       7       2       9       1      12       2       5
       3      11       4       2       1       1       1      14      16       4
       1      16       4       1      12      11      12      11       1      12
      11       1       8       7       8       7       8       7       8       7
       8       7       8       7       7       2       6       2       3       6
       3       5       7       2       6       2       7       2       6       2
       7       2       6       2       7       2       6       2       7       1
       1       7       1       1       2       6       1       7       1       1
       7       1       1       7       1       1       4       4       4       4
       4       4       3       3       3       3       3       3       2       1
       1       2       1       1       2       1       1       2       1       1
       2       1       1       2       1       1      11      13       5       8
       7       2       1       1       8       2       7       2       9       1
       1      14      12      11      11       7       8       7      15       2
       7       2       7       2       6       2      10      18       1       7
       1       1      10      13      13      12       4       6       7      10
      11       9       9       3       7       2       9       1      12       2
       5       3      11       4       2       1       1       1      14      16
       4       1      16       4       1      12      11      12      11       1
      12      11       1       8       7       8       7       8       7       8
       7       8       7       8       7       7       2       6       2       3
       6       3       5       7       2       6       2       7       2       6
       2       7       2       6       2       7       2       6       2       7
       1       1       7       1       1       2       6       1       7       1
       1       7       1       1       7       1       1       4       4       4
       4       4       4       3       3       3       3       3       3       2
       1       1       2       1       1       2       1       1       2       1
       1       2       1       1       2       1       1      11      13       5
       8       7       2       1       1       8       2       7       2       9
       1       1      14      12      11      11       7       8       7      15
       2       7       2       7       2       6       2      10      18       1
       7       1       1      10      13      13      12       4       6       7
      10      11       9       9       3       7       2       9       1      12
       2       5       3      11       4       2       1       1       1      14
      16       4       1      16       4       1      12      11      12      11
       1      12      11       1       8       7       8       7       8       7
       8       7       8       7       8       7       7       2       6       2
       3       6       3       5       7       2       6       2       7       2
       6       2       7       2       6       2       7       2       6       2
       7       1       1       7       1       1       2       6       1       7
       1       1       7       1       1       7       1       1       4       4
       4       4       4       4       3       3       3       3       3       3
       2       1       1       2       1       1       2       1       1       2
       1       1       2       1       1       2       1       1      11      13
       5       8       7       2       1       1       8       2       7       2
       9       1       1      14      12      11      11       7       8       7
      15       2       7       2       7       2       6       2      10      18
       1       7       1       1      10      13      13      12       4       6
       7      10      11       9       9       3       7       2       9       1
      12       2       5       3      11       4       2       1       1       1
      14      16       4       1      16       4       1      12      11      12
      11       1      12      11       1       8       7       8       7       8
       7       8       7       8       7       8       7       7       2       6
       2       3       6       3       5       7       2       6       2       7
       2       6       2       7       2       6       2       7       2       6
       2       7       1       1       7       1       1       2       6       1
       7       1       1       7       1       1       7       1       1       4
       4       4       4       4       4       3       3       3       3       3
       3       2       1       1       2       1       1       2       1       1
       2       1       1       2       1       1       2       1       1      11
      13       5       8       7       2       1       1       8       2       7
       2       9       1       1      14      12      11      11       7       8
       7      15       2       7       2       7       2       6       2      10
      18       1       7       1       1      10      13      13      12       4
       6       7      10      11       9       9       3       7       2       9
       1      12       2       5       3      11       4       2       1       1
       1      14      16       4       1      16       4       1      12      11
      12      11       1      12      11       1       8       7       8       7
       8       7       8       7       8       7       8       7       7       2
       6       2       3       6       3       5       7       2       6       2
       7       2       6       2       7       2       6       2       7       2
       6       2       7       1       1       7       1       1       2       6
       1       7       1       1       7       1       1       7       1       1
       4       4       4       4       4       4       3       3       3       3
       3       3       2       1       1       2       1       1       2       1
       1       2       1       1       2       1       1       2       1       1
      11      13       5       8       7       2       1       1       8       2
       7       2       9       1       1      14      12      11      11       7
       8       7      15       2       7       2       7       2       6       2
      10      18       1       7       1       1      10      13      13      12
       4       6       7      10      11       9       9       3       7       2
       9       1      12       2       5       3      11       4       2       1
       1       1      14      16       4       1      16       4       1      12
      11      12      11       1      12      11       1       8       7       8
       7       8       7       8       7       8       7       8       7       7
       2       6       2       3       6       3       5       7       2       6
       2       7       2       6       2       7       2       6       2       7
       2       6       2       7       1       1       7       1       1       2
       6       1       7       1       1       7       1       1       7       1
       1       4       4       4       4       4       4       3       3       3
       3       3       3       2       1       1       2       1       1       2
       1       1       2       1       1       2       1       1       2       1
       1      11      13       5       8       7       2       1       1       8
       2       7       2       9       1       1      14      12      11      11
       7       8       7      15       2       7       2       7       2       6
       2      10      18       1       7       1       1      10      13      13
      12       4       6       7      10      11       9       9       3       7
       2       9       1      12       2       5       3      11       4       2
       1       1       1      14      16       4       1      16       4       1
      12      11      12      11       1      12      11       1       8       7
       8       7       8       7       8       7       8       7       8       7
       7       2       6       2       3       6       3       5       7       2
       6       2       7       2       6       2       7       2       6       2
       7       2       6       2       7       1       1       7       1       1
       2       6       1       7       1       1       7       1       1       7
       1       1       4       4       4       4       4       4       3       3
       3       3       3       3       2       1       1       2       1       1
       2       1       1       2       1       1       2       1       1       2
       1       1      11      13       5       8       7       2       1       1
       8       2       7       2       9       1       1      14      12      11
      11       7       8       7      15       2       7       2       7       2
       6       2      10      18       1       7       1       1      10      13
      13      12       4       6       7      10      11       9       9       3
       7       2       9       1      12       2       5       3      11       4
       2       1       1       1      14      16       4       1      16       4
       1      12      11      12      11       1      12      11       1       8
       7       8       7       8       7       8       7       8       7       8
       7       7       2       6       2       3       6       3       5       7
       2       6       2       7       2       6       2       7       2       6
       2       7       2       6       2       7       1       1       7       1
       1       2       6       1       7       1       1       7       1       1
       7       1       1       4       4       4       4       4       4       3
       3       3       3       3       3       2       1       1       2       1
       1       2       1       1       2       1       1       2       1       1
       2       1       1      11      13       5       8       7       2       1
       1       8       2       7       2       9       1       1      14      12
      11      11       7       8       7      15       2       7       2       7
       2       6       2      10      18       1       7       1       1      10
      13      13      12       4       6       7      10      11       9       9
       3       7       2       9       1      12       2       5       3      11
       4       2       1       1       1      14      16       4       1      16
       4       1      12      11      12      11       1      12      11       1
       8       7       8       7       8       7       8       7       8       7
       8       7       7       2       6       2       3       6       3       5
       7       2       6       2       7       2       6       2       7       2
       6       2       7       2       6       2       7       1       1       7
       1       1       2       6       1       7       1       1       7       1
       1       7       1       1       4       4       4       4       4       4
       3       3       3       3       3       3       2       1       1       2
       1       1       2       1       1       2       1       1       2       1
       1       2       1       1      11      13       5       8       7       2
       1       1       8       2       7       2       9       1       1      14
      12      11      11       7       8       7      15       2       7       2
       7       2       6       2      10      18       1       7       1       1
      10      13      13      12       4       6       7      10      11       9
       9       3       7       2       9       1      12       2       5       3
      11       4       2       1       1       1      14      16       4       1
      16       4       1      12      11      12      11       1      12      11
       1       8       7       8       7       8       7       8       7       8
       7       8       7       7       2       6       2       3       6       3
       5       7       2       6       2       7       2       6       2       7
       2       6       2       7       2       6       2       7       1       1
       7       1       1       2       6       1       7       1       1       7
       1       1       7       1       1       4       4       4       4       4
       4       3       3       3       3       3       3       2       1       1
       2       1       1       2       1       1       2       1       1       2
       1       1       2       1       1      11      13       5       8       7
       2       1       1       8       2       7       2       9       1       1
      14      12      11      11       7       8       7      15       2       7
       2       7       2       6       2      10      18       1       7       1
       1      10      13      13      12       4       6       7      10      11
       9       9       3       7       2       9       1      12       2       5
       3      11       4       2       1       1       1      14      16       4
       1      16       4       1      12      11      12      11       1      12
      11       1       8       7       8       7       8       7       8       7
       8       7       8       7       7       2       6       2       3       6
       3       5       7       2       6       2       7       2       6       2
       7       2       6       2       7       2       6       2       7       1
       1       7       1       1       2       6       1       7       1       1
       7       1       1       7       1       1       4       4       4       4
       4       4       3       3       3       3       3       3       2       1
       1       2       1       1       2       1       1       2       1       1
       2       1       1       2       1       1      11      13       5       8
       7       2       1       1       8       2       7       2       9       1
       1      14      12      11      11       7       8       7      15       2
       7       2       7       2       6       2      10      18       1       7
       1       1      10      13      13      12       4       6       7      10
      11       9       9       3       7       2       9       1      12       2
       5       3      11       4       2       1       1       1      14      16
       4       1      16       4       1      12      11      12      11       1
      12      11       1       8       7       8       7       8       7       8
       7       8       7       8       7       7       2       6       2       3
       6       3       5       7       2       6       2       7       2       6
       2       7       2       6       2       7       2       6       2       7
       1       1       7       1       1       2       6       1       7       1
       1       7       1       1       7       1       1       4       4       4
       4       4       4       3       3       3       3       3       3       2
       1       1       2       1       1       2       1       1       2       1
       1       2       1       1       2       1       1      11      13       5
       8       7       2       1       1       8       2       7       2       9
       1       1      14      12      11      11       7       8       7      15
       2       7       2       7       2       6       2      10      18       1
       7       1       1      10      13      13      12       4       6       7
      10      11       9       9       3       7       2       9       1      12
       2       5       3      11       4       2       1       1       1      14
      16       4       1      16       4       1      12      11      12      11
       1      12      11       1       8       7       8       7       8       7
       8       7       8       7       8       7       7       2       6       2
       3       6       3       5       7       2       6       2       7       2
       6       2       7       2       6       2       7       2       6       2
       7       1       1       7       1       1       2       6       1       7
       1       1       7       1       1       7       1       1       4       4
       4       4       4       4       3       3       3       3       3       3
       2       1       1       2       1       1       2       1       1       2
       1       1       2       1       1       2       1       1      11      13
       5       8       7       2       1       1       8       2       7       2
       9       1       1      14      12      11      11       7       8       7
      15       2       7       2       7       2       6       2      10      18
       1       7       1       1      10      13      13      12       4       6
       7      10      11       9       9       3       7       2       9       1
      12       2       5       3      11       4       2       1       1       1
      14      16       4       1      16       4       1      12      11      12
      11       1      12      11       1       8       7       8       7       8
       7       8       7       8       7       8       7       7       2       6
       2       3       6       3       5       7       2       6       2       7
       2       6       2       7       2       6       2       7       2       6
       2       7       1       1       7       1       1       2       6       1
       7       1       1       7       1       1       7       1       1       4
       4       4       4       4       4       3       3       3       3       3
       3       2       1       1       2       1       1       2       1       1
       2       1       1       2       1       1       2       1       1      11
      13       5       8       7       2       1       1       8       2       7
       2       9       1       1      14      12      11      11       7       8
       7      15       2       7       2       7       2       6       2      10
      18       1       7       1       1      10      13      13      12       4
       6       7      10      11       9       9       3       7       2       9
       1      12       2       5       3      11       4       2       1       1
       1      14      16       4       1      16       4       1      12      11
      12      11       1      12      11       1       8       7       8       7
       8       7       8       7       8       7       8       7       7       2
       6       2       3       6       3       5       7       2       6       2
       7       2       6       2       7       2       6       2       7       2
       6       2       7       1       1       7       1       1       2       6
       1       7       1       1       7       1       1       7       1       1
       4       4       4       4       4       4       3       3       3       3
       3       3       2       1       1       2       1       1       2       1
       1       2       1       1       2       1       1       2       1       1
      11      13       5       8       7       2       1       1       8       2
       7       2       9       1       1      14      12      11      11       7
       8       7      15       2       7       2       7       2       6       2
      10      18       1       7       1       1      10      13      13      12
       4       6       7      10      11       9       9       3       7       2
       9       1      12       2       5       3      11       4       2       1
       1       1      14      16       4       1      16       4       1      12
      11      12      11       1      12      11       1       8       7       8
       7       8       7       8       7       8       7       8       7       7
       2       6       2       3       6       3       5       7       2       6
       2       7       2       6       2       7       2       6       2       7
       2       6       2       7       1       1       7       1       1       2
       6       1       7       1       1       7       1       1       7       1
       1       4       4       4       4       4       4       3       3       3
       3       3       3       2       1       1       2       1       1       2
       1       1       2       1       1       2       1       1       2       1
       1      11      13       5       8       7       2       1       1       8
       2       7       2       9       1       1      14      12      11      11
       7       8       7      15       2       7       2       7       2       6
       2      10      18       1       7       1       1      10      13      13
      12       4       6       7      10      11       9       9       3       7
       2       9       1      12       2       5       3      11       4       2
       1       1       1      14      16       4       1      16       4       1
      12      11      12      11       1      12      11       1       8       7
       8       7       8       7       8       7       8       7       8       7
       7       2       6       2       3       6       3       5       7       2
       6       2       7       2       6       2       7       2       6       2
       7       2       6       2       7       1       1       7       1       1
       2       6       1       7       1       1       7       1       1       7
       1       1       4       4       4       4       4       4       3       3
       3       3       3       3       2       1       1       2       1       1
       2       1       1       2       1       1       2       1       1       2
       1       1      11      13       5       8       7       2       1       1
       8       2       7       2       9       1       1      14      12      11
      11       7       8       7      15       2       7       2       7       2
       6       2      10      18       1       7       1       1      10      13
      13      12       4       6       7      10      11       9       9       3
       7       2       9       1      12       2       5       3      11       4
       2       1       1       1      14      16       4       1      16       4
       1      12      11      12      11       1      12      11       1       8
       7       8       7       8       7       8       7       8       7       8
       7       7       2       6       2       3       6       3       5       7
       2       6       2       7       2       6       2       7       2       6
       2       7       2       6       2       7       1       1       7       1
       1       2       6       1       7       1       1       7       1       1
       7       1       1       4       4       4       4       4       4       3
       3       3       3       3       3       2       1       1       2       1
       1       2       1       1       2       1       1       2       1       1
       2       1       1      11      13       5       8       7       2       1
       1       8       2       7       2       9       1       1      14      12
      11      11       7       8       7      15       2       7       2       7
       2       6       2      10      18       1       7       1       1      10
      13      13      12       4       6       7      10      11       9       9
       3       7       2       9       1      12       2       5       3      11
       4       2       1       1       1      14      16       4       1      16
       4       1      12      11      12      11       1      12      11       1
       8       7       8       7       8       7       8       7       8       7
       8       7       7       2       6       2       3       6       3       5
       7       2       6       2       7       2       6       2       7       2
       6       2       7       2       6       2       7       1       1       7
       1       1       2       6       1       7       1       1       7       1
       1       7       1       1       4       4       4       4       4       4
       3       3       3       3       3       3       2       1       1       2
       1       1       2       1       1       2       1       1       2       1
       1       2       1       1      11      13       5       8       7       2
       1       1       8       2       7       2       9       1       1      14
      12      11      11       7       8       7      15       2       7       2
       7       2       6       2      10      18       1       7       1       1
      10      13      13      12       4       6       7      10      11       9
       9       3       7       2       9       1      12       2       5       3
      11       4       2       1       1       1      14      16       4       1
      16       4       1      12      11      12      11       1      12      11
       1       8       7       8       7       8       7       8       7       8
       7       8       7       7       2       6       2       3       6       3
       5       7       2       6       2       7       2       6       2       7
       2       6       2       7       2       6       2       7       1       1
       7       1       1       2       6       1       7       1       1       7
       1       1       7       1       1       4       4       4       4       4
       4       3       3       3       3       3       3       2       1       1
       2       1       1       2       1       1       2       1       1       2
       1       1       2       1       1      11      13       5       8       7
       2       1       1       8       2       7       2       9       1       1
      14      12      11      11       7       8       7      15       2       7
       2       7       2       6       2      10      18       1       7       1
       1      10      13      13      12       4       6       7      10      11
       9       9       3       7       2       9       1      12       2       5
       3      11       4       2       1       1       1      14      16       4
       1      16       4       1      12      11      12      11       1      12
      11       1       8       7       8       7       8       7       8       7
       8       7       8       7       7       2       6       2       3       6
       3       5       7       2       6       2       7       2       6       2
       7       2       6       2       7       2       6       2       7       1
       1       7       1       1       2       6       1       7       1       1
       7       1       1       7       1       1       4       4       4       4
       4       4       3       3       3       3       3       3       2       1
       1       2       1       1       2       1       1       2       1       1
       2       1       1       2       1       1      11      13       5       8
       7       2       1       1       8       2       7       2       9       1
       1      14      12      11      11       7       8       7      15       2
       7       2       7       2       6       2      10      18       1       7
       1       1      10      13      13      12       4       6       7      10
      11       9       9       3       7       2       9       1      12       2
       5       3      11       4       2       1       1       1      14      16
       4       1      16       4       1      12      11      12      11       1
      12      11       1       8       7       8       7       8       7       8
       7       8       7       8       7       7       2       6       2       3
       6       3       5       7       2       6       2       7       2       6
       2       7       2       6       2       7       2       6       2       7
       1       1       7       1       1       2       6       1       7       1
       1       7       1       1       7       1       1       4       4       4
       4       4       4       3       3       3       3       3       3       2
       1       1       2       1       1       2       1       1       2       1
       1       2       1       1       2       1       1      11      13       5
       8       7       2       1       1       8       2       7       2       9
       1       1      14      12      11      11       7       8       7      15
       2       7       2       7       2       6       2      10      18       1
       7       1       1      10      13      13      12       4       6       7
      10      11       9       9       3       7       2       9       1      12
       2       5       3      11       4       2       1       1       1      14
      16       4       1      16       4       1      12      11      12      11
       1      12      11       1       8       7       8       7       8       7
       8       7       8       7       8       7       7       2       6       2
       3       6       3       5       7       2       6       2       7       2
       6       2       7       2       6       2       7       2       6       2
       7       1       1       7       1       1       2       6       1       7
       1       1       7       1       1       7       1       1       4       4
       4       4       4       4       3       3       3       3       3       3
       2       1       1       2       1       1       2       1       1       2
       1       1       2       1       1       2       1       1      11      13
       5       8       7       2       1       1       8       2       7       2
       9       1       1      14      12      11      11       7       8       7
      15       2       7       2       7       2       6       2      10      18
       1       7       1       1      10      13      13      12       4       6
       7      10      11       9       9       3       7       2       9       1
      12       2       5       3      11       4       2       1       1       1
      14      16       4       1      16       4       1      12      11      12
      11       1      12      11       1       8       7       8       7       8
       7       8       7       8       7       8       7       7       2       6
       2       3       6       3       5       7       2       6       2       7
       2       6       2       7       2       6       2       7       2       6
       2       7       1       1       7       1       1       2       6       1
       7       1       1       7       1       1       7       1       1       4
       4       4       4       4       4       3       3       3       3       3
       3       2       1       1       2       1       1       2       1       1
       2       1       1       2       1       1       2       1       1      11
      13       5       8       7       2       1       1       8       2       7
       2       9       1       1      14      12      11      11       7       8
       7      15       2       7       2       7       2       6       2      10
      18       1       7       1       1      10      13      13      12       4
       6       7      10      11       9       9       3       7       2       9
       1      12       2       5       3      11       4       2       1       1
       1      14      16       4       1      16       4       1      12      11
      12      11       1      12      11       1       8       7       8       7
       8       7       8       7       8       7       8       7       7       2
       6       2       3       6       3       5       7       2       6       2
       7       2       6       2       7       2       6       2       7       2
       6       2       7       1       1       7       1       1       2       6
       1       7       1       1       7       1       1       7       1       1
       4       4       4       4       4       4       3       3       3       3
       3       3       2       1       1       2       1       1       2       1
       1       2       1       1       2       1       1       2       1       1
      11      13       5       8       7       2       1       1       8       2
       7       2       9       1       1      14      12      11      11       7
       8       7      15       2       7       2       7       2       6       2
      10      18       1       7       1       1      10      13      13      12
       4       6       7      10      11       9       9       3       7       2
       9       1      12       2       5       3      11       4       2       1
       1       1      14      16       4       1      16       4       1      12
      11      12      11       1      12      11       1       8       7       8
       7       8       7       8       7       8       7       8       7       7
       2       6       2       3       6       3       5       7       2       6
       2       7       2       6       2       7       2       6       2       7
       2       6       2       7       1       1       7       1       1       2
       6       1       7       1       1       7       1       1       7       1
       1       4       4       4       4       4       4       3       3       3
       3       3       3       2       1       1       2       1       1       2
       1       1       2       1       1       2       1       1       2       1
       1      11      13       5       8       7       2       1       1       8
       2       7       2       9       1       1      14      12      11      11
       7       8       7      15       2       7       2       7       2       6
       2      10      18       1       7       1       1      10      13      13
      12       4       6       7      10      11       9       9       3       7
       2       9       1      12       2       5       3      11       4       2
       1       1       1      14      16       4       1      16       4       1
      12      11      12      11       1      12      11       1       8       7
       8       7       8       7       8       7       8       7       8       7
       7       2       6       2       3       6       3       5       7       2
       6       2       7       2       6       2       7       2       6       2
       7       2       6       2       7       1       1       7       1       1
       2       6       1       7       1       1       7       1       1       7
       1       1       4       4       4       4       4       4       3       3
       3       3       3       3       2       1       1       2       1       1
       2       1       1       2       1       1       2       1       1       2
       1       1      11      13       5       8       7       2       1       1
       8       2       7       2       9       1       1      14      12      11
      11       7       8       7      15       2       7       2       7       2
       6       2      10      18       1       7       1       1      10      13
      13      12       4       6       7      10      11       9       9       3
       7       2       9       1      12       2       5       3      11       4
       2       1       1       1      14      16       4       1      16       4
       1      12      11      12      11       1      12      11       1       8
       7       8       7       8       7       8       7       8       7       8
       7       7       2       6       2       3       6       3       5       7
       2       6       2       7       2       6       2       7       2       6
       2       7       2       6       2       7       1       1       7       1
       1       2       6       1       7       1       1       7       1       1
       7       1       1       4       4       4       4       4       4       3
       3       3       3       3       3       2       1       1       2       1
       1       2       1       1       2       1       1       2       1       1
       2       1       1      11      13       5       8       7       2       1
       1       8       2       7       2       9       1       1      14      12
      11      11       7       8       7      15       2       7       2       7
       2       6       2      10      18       1       7       1       1      10
      13      13      12       4       6       7      10      11       9       9
       3       7       2       9       1      12       2       5       3      11
       4       2       1       1       1      14      16       4       1      16
       4       1      12      11      12      11       1      12      11       1
       8       7       8       7       8       7       8       7       8       7
       8       7       7       2       6       2       3       6       3       5
       7       2       6       2       7       2       6       2       7       2
       6       2       7       2       6       2       7       1       1       7
       1       1       2       6       1       7       1       1       7       1
       1       7       1       1       4       4       4       4       4       4
       3       3       3       3       3       3       2       1       1       2
       1       1       2       1       1       2       1       1       2       1
       1       2       1       1      11      13       5       8       7       2
       1       1       8       2       7       2       9       1       1      14
      12      11      11       7       8       7      15       2       7       2
       7       2       6       2      10      18       1       7       1       1
      10      13      13      12       4       6       7      10      11       9
       9       3       7       2       9       1      12       2       5       3
      11       4       2       1       1       1      14      16       4       1
      16       4       1      12      11      12      11       1      12      11
       1       8       7       8       7       8       7       8       7       8
       7       8       7       7       2       6       2       3       6       3
       5       7       2       6       2       7       2       6       2       7
       2       6       2       7       2       6       2       7       1       1
       7       1       1       2       6       1       7       1       1       7
       1       1       7       1       1       4       4       4       4       4
       4       3       3       3       3       3       3       2       1       1
       2       1       1       2       1       1       2       1       1       2
       1       1       2       1       1      11      13       5       8       7
       2       1       1       8       2       7       2       9       1       1
      14      12      11      11       7       8       7      15       2       7
       2       7       2       6       2      10      18       1       7       1
       1      10      13      13      12       4       6       7      10      11
       9       9       3       7       2       9       1      12       2       5
       3      11       4       2       1       1       1      14      16       4
       1      16       4       1      12      11      12      11       1      12
      11       1       8       7       8       7       8       7       8       7
       8       7       8       7       7       2       6       2       3       6
       3       5       7       2       6       2       7       2       6       2
       7       2       6       2       7       2       6       2       7       1
       1       7       1       1       2       6       1       7       1       1
       7       1       1       7       1       1       4       4       4       4
       4       4       3       3       3       3       3       3       2       1
       1       2       1       1       2       1       1       2       1       1
       2       1       1       2       1       1      11      13       5       8
       7       2       1       1       8       2       7       2       9       1
       1      14      12      11      11       7       8       7      15       2
       7       2       7       2       6       2      10      18       1       7
       1       1      10      13      13      12       4       6       7      10
      11       9       9       3       7       2       9       1      12       2
       5       3      11       4       2       1       1       1      14      16
       4       1      16       4       1      12      11      12      11       1
      12      11       1       8       7       8       7       8       7       8
       7       8       7       8       7       7       2       6       2       3
       6       3       5       7       2       6       2       7       2       6
       2       7       2       6       2       7       2       6       2       7
       1       1       7       1       1       2       6       1       7       1
       1       7       1       1       7       1       1       4       4       4
       4       4       4       3       3       3       3       3       3       2
       1       1       2       1       1       2       1       1       2       1
       1       2       1       1       2       1       1      11      13       5
       8       7       2       1       1       8       2       7       2       9
       1       1      14      12      11      11       7       8       7      15
       2       7       2       7       2       6       2      10      18       1
       7       1       1      10      13      13      12       4       6       7
      10      11       9       9       3       7       2       9       1      12
       2       5       3      11       4       2       1       1       1      14
      16       4       1      16       4       1      12      11      12      11
       1      12      11       1       8       7       8       7       8       7
       8       7       8       7       8       7       7       2       6       2
       3       6       3       5       7       2       6       2       7       2
       6       2       7       2       6       2       7       2       6       2
       7       1       1       7       1       1       2       6       1       7
       1       1       7       1       1       7       1       1       4       4
       4       4       4       4       3       3       3       3       3       3
       2       1       1       2       1       1       2       1       1       2
       1       1       2       1       1       2       1       1      11      13
       5       8       7       2       1       1       8       2       7       2
       9       1       1      14      12      11      11       7       8       7
      15       2       7       2       7       2       6       2      10      18
       1       7       1       1      10      13      13      12       4       6
       7      10      11       9       9       3       7       2       9       1
      12       2       5       3      11       4       2       1       1       1
      14      16       4       1      16       4       1      12      11      12
      11       1      12      11       1       8       7       8       7       8
       7       8       7       8       7       8       7       7       2       6
       2       3       6       3       5       7       2       6       2       7
       2       6       2       7       2       6       2       7       2       6
       2       7       1       1       7       1       1       2       6       1
       7       1       1       7       1       1       7       1       1       4
       4       4       4       4       4       3       3       3       3       3
       3       2       1       1       2       1       1       2       1       1
       2       1       1       2       1       1       2       1       1      11
      13       5       8       7       2       1       1       8       2       7
       2       9       1       1      14      12      11      11       7       8
       7      15       2       7       2       7       2       6       2      10
      18       1       7       1       1      10      13      13      12       4
       6       7      10      11       9       9       3       7       2       9
       1      12       2       5       3      11       4       2       1       1
       1      14      16       4       1      16       4       1      12      11
      12      11       1      12      11       1       8       7       8       7
       8       7       8       7       8       7       8       7       7       2
       6       2       3       6       3       5       7       2       6       2
       7       2       6       2       7       2       6       2       7       2
       6       2       7       1       1       7       1       1       2       6
       1       7       1       1       7       1       1       7       1       1
       4       4       4       4       4       4       3       3       3       3
       3       3       2       1       1       2       1       1       2       1
       1       2       1       1       2       1       1       2       1       1
      11      13       5       8       7       2       1       1       8       2
       7       2       9       1       1      14      12      11      11       7
       8       7      15       2       7       2       7       2       6       2
      10      18       1       7       1       1      10      13      13      12
       4       6       7      10      11       9       9       3       7       2
       9       1      12       2       5       3      11       4       2       1
       1       1      14      16       4       1      16       4       1      12
      11      12      11       1      12      11       1       8       7       8
       7       8       7       8       7       8       7       8       7       7
       2       6       2       3       6       3       5       7       2       6
       2       7       2       6       2       7       2       6       2       7
       2       6       2       7       1       1       7       1       1       2
       6       1       7       1       1       7       1       1       7       1
       1       4       4       4       4       4       4       3       3       3
       3       3       3       2       1       1       2       1       1       2
       1       1       2       1       1       2       1       1       2       1
       1      11      13       5       8       7       2       1       1       8
       2       7       2       9       1       1      14      12      11      11
       7       8       7      15       2       7       2       7       2       6
       2      10      18       1       7       1       1      10      13      13
      12       4       6       7      10      11       9       9       3       7
       2       9       1      12       2       5       3      11       4       2
       1       1       1      14      16       4       1      16       4       1
      12      11      12      11       1      12      11       1       8       7
       8       7       8       7       8       7       8       7       8       7
       7       2       6       2       3       6       3       5       7       2
       6       2       7       2       6       2       7       2       6       2
       7       2       6       2       7       1       1       7       1       1
       2       6       1       7       1       1       7       1       1       7
       1       1       4       4       4       4       4       4       3       3
       3       3       3       3       2       1       1       2       1       1
       2       1       1       2       1       1       2       1       1       2
       1       1      11      13       5       8       7       2       1       1
       8       2       7       2       9       1       1      14      12      11
      11       7       8       7      15       2       7       2       7       2
       6       2      10      18       1       7       1       1      10      13
      13      12       4       6       7      10      11       9       9       3
       7       2       9       1      12       2       5       3      11       4
       2       1       1       1      14      16       4       1      16       4
       1      12      11      12      11       1      12      11       1       8
       7       8       7       8       7       8       7       8       7       8
       7       7       2       6       2       3       6       3       5       7
       2       6       2       7       2       6       2       7       2       6
       2       7       2       6       2       7       1       1       7       1
       1       2       6       1       7       1       1       7       1       1
       7       1       1       4       4       4       4       4       4       3
       3       3       3       3       3       2       1       1       2       1
       1       2       1       1       2       1       1       2       1       1
       2       1       1      11      13       5       8       7       2       1
       1       8       2       7       2       9       1       1      14      12
      11      11       7       8       7      15       2       7       2       7
       2       6       2      10      18       1       7       1       1      10
      13      13      12       4       6       7      10      11       9       9
       3       7       2       9       1      12       2       5       3      11
       4       2       1       1       1      14      16       4       1      16
       4       1      12      11      12      11       1      12      11       1
       8       7       8       7       8       7       8       7       8       7
       8       7       7       2       6       2       3       6       3       5
       7       2       6       2       7       2       6       2       7       2
       6       2       7       2       6       2       7       1       1       7
       1       1       2       6       1       7       1       1       7       1
       1       7       1       1       4       4       4       4       4       4
       3       3       3       3       3       3       2       1       1       2
       1       1       2       1       1       2       1       1       2       1
       1       2       1       1      11      13       5       8       7       2
       1       1       8       2       7       2       9       1       1      14
      12      11      11       7       8       7      15       2       7       2
       7       2       6       2      10      18       1       7       1       1
      10      13      13      12       4       6       7      10      11       9
       9       3       7       2       9       1      12       2       5       3
      11       4       2       1       1       1      14      16       4       1
      16       4       1      12      11      12      11       1      12      11
       1       8       7       8       7       8       7       8       7       8
       7       8       7       7       2       6       2       3       6       3
       5       7       2       6       2       7       2       6       2       7
       2       6       2       7       2       6       2       7       1       1
       7       1       1       2       6       1       7       1       1       7
       1       1       7       1       1       4       4       4       4       4
       4       3       3       3       3       3       3       2       1       1
       2       1       1       2       1       1       2       1       1       2
       1       1       2       1       1      11      13       5       8       7
       2       1       1       8       2       7       2       9       1       1
      14      12      11      11       7       8       7      15       2       7
       2       7       2       6       2      10      18       1       7       1
       1      10      13      13      12       4       6       7      10      11
       9       9       3       7       2       9       1      12       2       5
       3      11       4       2       1       1       1      14      16       4
       1      16       4       1      12      11      12      11       1      12
      11       1       8       7       8       7       8       7       8       7
       8       7       8       7       7       2       6       2       3       6
       3       5       7       2       6       2       7       2       6       2
       7       2       6       2       7       2       6       2       7       1
       1       7       1       1       2       6       1       7       1       1
       7       1       1       7       1       1       4       4       4       4
       4       4       3       3       3       3       3       3       2       1
       1       2       1       1       2       1       1       2       1       1
       2       1       1       2       1       1      11      13       5       8
       7       2       1       1       8       2       7       2       9       1
       1      14      12      11      11       7       8       7      15       2
       7       2       7       2       6       2      10      18       1       7
       1       1      10      13      13      12       4       6       7      10
      11       9       9       3       7       2       9       1      12       2
       5       3      11       4       2       1       1       1      14      16
       4       1      16       4       1      12      11      12      11       1
      12      11       1       8       7       8       7       8       7       8
       7       8       7       8       7       7       2       6       2       3
       6       3       5       7       2       6       2       7       2       6
       2       7       2       6       2       7       2       6       2       7
       1       1       7       1       1       2       6       1       7       1
       1       7       1       1       7       1       1       4       4       4
       4       4       4       3       3       3       3       3       3       2
       1       1       2       1       1       2       1       1       2       1
       1       2       1       1       2       1       1      11      13       5
       8       7       2       1       1       8       2       7       2       9
       1       1      14      12      11      11       7       8       7      15
       2       7       2       7       2       6       2      10      18       1
       7       1       1      10      13      13      12       4       6       7
      10      11       9       9       3       7       2       9       1      12
       2       5       3      11       4       2       1       1       1      14
      16       4       1      16       4       1      12      11      12      11
       1      12      11       1       8       7       8       7       8       7
       8       7       8       7       8       7       7       2       6       2
       3       6       3       5       7       2       6       2       7       2
       6       2       7       2       6       2       7       2       6       2
       7       1       1       7       1       1       2       6       1       7
       1       1       7       1       1       7       1       1       4       4
       4       4       4       4       3       3       3       3       3       3
       2       1       1       2       1       1       2       1       1       2
       1       1       2       1       1       2       1       1      11      13
       5       8       7       2       1       1       8       2       7       2
       9       1       1      14      12      11      11       7       8       7
      15       2       7       2       7       2       6       2      10      18
       1       7       1       1      10      13      13      12       4       6
       7      10      11       9       9       3       7       2       9       1
      12       2       5       3      11       4       2       1       1       1
      14      16       4       1      16       4       1      12      11      12
      11       1      12      11       1       8       7       8       7       8
       7       8       7       8       7       8       7       7       2       6
       2       3       6       3       5       7       2       6       2       7
       2       6       2       7       2       6       2       7       2       6
       2       7       1       1       7       1       1       2       6       1
       7       1       1       7       1       1       7       1       1       4
       4       4       4       4       4       3       3       3       3       3
       3       2       1       1       2       1       1       2       1       1
       2       1       1       2       1       1       2       1       1      11
      13       5       8       7       2       1       1       8       2       7
       2       9       1       1      14      12      11      11       7       8
       7      15       2       7       2       7       2       6       2      10
      18       1       7       1       1      10      13      13      12       4
       6       7      10      11       9       9       3       7       2       9
       1      12       2       5       3      11       4       2       1       1
       1      14      16       4       1      16       4       1      12      11
      12      11       1      12      11       1       8       7       8       7
       8       7       8       7       8       7       8       7       7       2
       6       2       3       6       3       5       7       2       6       2
       7       2       6       2       7       2       6       2       7       2
       6       2       7       1       1       7       1       1       2       6
       1       7       1       1       7       1       1       7       1       1
       4       4       4       4       4       4       3       3       3       3
       3       3       2       1       1       2       1       1       2       1
       1       2       1       1       2       1       1       2       1       1
      11      13       5       8       7       2       1       1       8       2
       7       2       9       1       1      14      12      11      11       7
       8       7      15       2       7       2       7       2       6       2
      10      18       1       7       1       1      10      13      13      12
       4       6       7      10      11       9       9       3       7       2
       9       1      12       2       5       3      11       4       2       1
       1       1      14      16       4       1      16       4       1      12
      11      12      11       1      12      11       1       8       7       8
       7       8       7       8       7       8       7       8       7       7
       2       6       2       3       6       3       5       7       2       6
       2       7       2       6       2       7       2       6       2       7
       2       6       2       7       1       1       7       1       1       2
       6       1       7       1       1       7       1       1       7       1
       1       4       4       4       4       4       4       3       3       3
       3       3       3       2       1       1       2       1       1       2
       1       1       2       1       1       2       1       1       2       1
       1      11      13       5       8       7       2       1       1       8
       2       7       2       9       1       1      14      12      11      11
       7       8       7      15       2       7       2       7       2       6
       2      10      18       1       7       1       1      10      13      13
      12       4       6       7      10      11       9       9       3       7
       2       9       1      12       2       5       3      11       4       2
       1       1       1      14      16       4       1      16       4       1
      12      11      12      11       1      12      11       1       8       7
       8       7       8       7       8       7       8       7       8       7
       7       2       6       2       3       6       3       5       7       2
       6       2       7       2       6       2       7       2       6       2
       7       2       6       2       7       1       1       7       1       1
       2       6       1       7       1       1       7       1       1       7
       1       1       4       4       4       4       4       4       3       3
       3       3       3       3       2       1       1       2       1       1
       2       1       1       2       1       1       2       1       1       2
       1       1      11      13       5       8       7       2       1       1
       8       2       7       2       9       1       1      14      12      11
      11       7       8       7      15       2       7       2       7       2
       6       2      10      18       1       7       1       1      10      13
      13      12       4       6       7      10      11       9       9       3
       7       2       9       1      12       2       5       3      11       4
       2       1       1       1      14      16       4       1      16       4
       1      12      11      12      11       1      12      11       1       8
       7       8       7       8       7       8       7       8       7       8
       7       7       2       6       2       3       6       3       5       7
       2       6       2       7       2       6       2       7       2       6
       2       7       2       6       2       7       1       1       7       1
       1       2       6       1       7       1       1       7       1       1
       7       1       1       4       4       4       4       4       4       3
       3       3       3       3       3       2       1       1       2       1
       1       2       1       1       2       1       1       2       1       1
       2       1       1      11      13       5       8       7       2       1
       1       8       2       7       2       9       1       1      14      12
      11      11       7       8       7      15       2       7       2       7
       2       6       2      10      18       1       7       1       1      10
      13      13      12       4       6       7      10      11       9       9
       3       7       2       9       1      12       2       5       3      11
       4       2       1       1       1      14      16       4       1      16
       4       1      12      11      12      11       1      12      11       1
       8       7       8       7       8       7       8       7       8       7
       8       7       7       2       6       2       3       6       3       5
       7       2       6       2       7       2       6       2       7       2
       6       2       7       2       6       2       7       1       1       7
       1       1       2       6       1       7       1       1       7       1
       1       7       1       1       4       4       4       4       4       4
       3       3       3       3       3       3       2       1       1       2
       1       1       2       1       1       2       1       1       2       1
       1       2       1       1      11      13       5       8       7       2
       1       1       8       2       7       2       9       1       1      14
      12      11      11       7       8       7      15       2       7       2
       7       2       6       2      10      18       1       7       1       1
      10      13      13      12       4       6       7      10      11       9
       9       3       7       2       9       1      12       2       5       3
      11       4       2       1       1       1      14      16       4       1
      16       4       1      12      11      12      11       1      12      11
       1       8       7       8       7       8       7       8       7       8
       7       8       7       7       2       6       2       3       6       3
       5       7       2       6       2       7       2       6       2       7
       2       6       2       7       2       6       2       7       1       1
       7       1       1       2       6       1       7       1       1       7
       1       1       7       1       1       4       4       4       4       4
       4       3       3       3       3       3       3       2       1       1
       2       1       1       2       1       1       2       1       1       2
       1       1       2       1       1      11      13       5       8       7
       2       1       1       8       2       7       2       9       1       1
      14      12      11      11       7       8       7      15       2       7
       2       7       2       6       2      10      18       1       7       1
       1      10      13      13      12       4       6       7      10      11
       9       9       3       7       2       9       1      12       2       5
       3      11       4       2       1       1       1      14      16       4
       1      16       4       1      12      11      12      11       1      12
      11       1       8       7       8       7       8       7       8       7
       8       7       8       7       7       2       6       2       3       6
       3       5       7       2       6       2       7       2       6       2
       7       2       6       2       7       2       6       2       7       1
       1       7       1       1       2       6       1       7       1       1
       7       1       1       7       1       1       4       4       4       4
       4       4       3       3       3       3       3       3       2       1
       1       2       1       1       2       1       1       2       1       1
       2       1       1       2       1       1      11      13       5       8
       7       2       1       1       8       2       7       2       9       1
       1      14      12      11      11       7       8       7      15       2
       7       2       7       2       6       2      10      18       1       7
       1       1      10      13      13      12       4       6       7      10
      11       9       9       3       7       2       9       1      12       2
       5       3      11       4       2       1       1       1      14      16
       4       1      16       4       1      12      11      12      11       1
      12      11       1       8       7       8       7       8       7       8
       7       8       7       8       7       7       2       6       2       3
       6       3       5       7       2       6       2       7       2       6
       2       7       2       6       2       7       2       6       2       7
       1       1       7       1       1       2       6       1       7       1
       1       7       1       1       7       1       1       4       4       4
       4       4       4       3       3       3       3       3       3       2
       1       1       2       1       1       2       1       1       2       1
       1       2       1       1       2       1       1      11      13       5
       8       7       2       1       1       8       2       7       2       9
       1       1      14      12      11      11       7       8       7      15
       2       7       2       7       2       6       2      10      18       1
       7       1       1      10      13      13      12       4       6       7
      10      11       9       9       3       7       2       9       1      12
       2       5       3      11       4       2       1       1       1      14
      16       4       1      16       4       1      12      11      12      11
       1      12      11       1       8       7       8       7       8       7
       8       7       8       7       8       7       7       2       6       2
       3       6       3       5       7       2       6       2       7       2
       6       2       7       2       6       2       7       2       6       2
       7       1       1       7       1       1       2       6       1       7
       1       1       7       1       1       7       1       1       4       4
       4       4       4       4       3       3       3       3       3       3
       2       1       1       2       1       1       2       1       1       2
       1       1       2       1       1       2       1       1      11      13
       5       8       7       2       1       1       8       2       7       2
       9       1       1      14      12      11      11       7       8       7
      15       2       7       2       7       2       6       2      10      18
       1       7       1       1      10      13      13      12       4       6
       7      10      11       9       9       3       7       2       9       1
      12       2       5       3      11       4       2       1       1       1
      14      16       4       1      16       4       1      12      11      12
      11       1      12      11       1       8       7       8       7       8
       7       8       7       8       7       8       7       7       2       6
       2       3       6       3       5       7       2       6       2       7
       2       6       2       7       2       6       2       7       2       6
       2       7       1       1       7       1       1       2       6       1
       7       1       1       7       1       1       7       1       1       4
       4       4       4       4       4       3       3       3       3       3
       3       2       1       1       2       1       1       2       1       1
       2       1       1       2       1       1       2       1       1      11
      13       5       8       7       2       1       1       8       2       7
       2       9       1       1      14      12      11      11       7       8
       7      15       2       7       2       7       2       6       2      10
      18       1       7       1       1      10      13      13      12       4
       6       7      10      11       9       9       3       7       2       9
       1      12       2       5       3      11       4       2       1       1
       1      14      16       4       1      16       4       1      12      11
      12      11       1      12      11       1       8       7       8       7
       8       7       8       7       8       7       8       7       7       2
       6       2       3       6       3       5       7       2       6       2
       7       2       6       2       7       2       6       2       7       2
       6       2       7       1       1       7       1       1       2       6
       1       7       1       1       7       1       1       7       1       1
       4       4       4       4       4       4       3       3       3       3
       3       3       2       1       1       2       1       1       2       1
       1       2       1       1       2       1       1       2       1       1
      11      13       5       8       7       2       1       1       8       2
       7       2       9       1       1      14      12      11      11       7
       8       7      15       2       7       2       7       2       6       2
      10      18       1       7       1       1      10      13      13      12
       4       6       7      10      11       9       9       3       7       2
       9       1      12       2       5       3      11       4       2       1
       1       1      14      16       4       1      16       4       1      12
      11      12      11       1      12      11       1       8       7       8
       7       8       7       8       7       8       7       8       7       7
       2       6       2       3       6       3       5       7       2       6
       2       7       2       6       2       7       2       6       2       7
       2       6       2       7       1       1       7       1       1       2
       6       1       7       1       1       7       1       1       7       1
       1       4       4       4       4       4       4       3       3       3
       3       3       3       2       1       1       2       1       1       2
       1       1       2       1       1       2       1       1       2       1
       1      11      13       5       8       7       2       1       1       8
       2       7       2       9       1       1      14      12      11      11
       7       8       7      15       2       7       2       7       2       6
       2      10      18       1       7       1       1      10      13      13
      12       4       6       7      10      11       9       9       3       7
       2       9       1      12       2       5       3      11       4       2
       1       1       1      14      16       4       1      16       4       1
      12      11      12      11       1      12      11       1       8       7
       8       7       8       7       8       7       8       7       8       7
       7       2       6       2       3       6       3       5       7       2
       6       2       7       2       6       2       7       2       6       2
       7       2       6       2       7       1       1       7       1       1
       2       6       1       7       1       1       7       1       1       7
       1       1       4       4       4       4       4       4       3       3
       3       3       3       3       2       1       1       2       1       1
       2       1       1       2       1       1       2       1       1       2
       1       1      11      13       5       8       7       2       1       1
       8       2       7       2       9       1       1      14      12      11
      11       7       8       7      15       2       7       2       7       2
       6       2      10      18       1       7       1       1      10      13
      13      12       4       6       7      10      11       9       9       3
       7       2       9       1      12       2       5       3      11       4
       2       1       1       1      14      16       4       1      16       4
       1      12      11      12      11       1      12      11       1       8
       7       8       7       8       7       8       7       8       7       8
       7       7       2       6       2       3       6       3       5       7
       2       6       2       7       2       6       2       7       2       6
       2       7       2       6       2       7       1       1       7       1
       1       2       6       1       7       1       1       7       1       1
       7       1       1       4       4       4       4       4       4       3
       3       3       3       3       3       2       1       1       2       1
       1       2       1       1       2       1       1       2       1       1
       2       1       1      11      13       5       8       7       2       1
       1       8       2       7       2       9       1       1      14      12
      11      11       7       8       7      15       2       7       2       7
       2       6       2      10      18       1       7       1       1      10
      13      13      12       4       6       7      10      11       9       9
       3       7       2       9       1      12       2       5       3      11
       4       2       1       1       1      14      16       4       1      16
       4       1      12      11      12      11       1      12      11       1
       8       7       8       7       8       7       8       7       8       7
       8       7       7       2       6       2       3       6       3       5
       7       2       6       2       7       2       6       2       7       2
       6       2       7       2       6       2       7       1       1       7
       1       1       2       6       1       7       1       1       7       1
       1       7       1       1       4       4       4       4       4       4
       3       3       3       3       3       3       2       1       1       2
       1       1       2       1       1       2       1       1       2       1
       1       2       1       1      11      13       5       8       7       2
       1       1       8       2       7       2       9       1       1      14
      12      11      11       7       8       7      15       2       7       2
       7       2       6       2      10      18       1       7       1       1
      10      13      13      12       4       6       7      10      11       9
       9       3       7       2       9       1      12       2       5       3
      11       4       2       1       1       1      14      16       4       1
      16       4       1      12      11      12      11       1      12      11
       1       8       7       8       7       8       7       8       7       8
       7       8       7       7       2       6       2       3       6       3
       5       7       2       6       2       7       2       6       2       7
       2       6       2       7       2       6       2       7       1       1
       7       1       1       2       6       1       7       1       1       7
       1       1       7       1       1       4       4       4       4       4
       4       3       3       3       3       3       3       2       1       1
       2       1       1       2       1       1       2       1       1       2
       1       1       2       1       1      11      13       5       8       7
       2       1       1       8       2       7       2       9       1       1
      14      12      11      11       7       8       7      15       2       7
       2       7       2       6       2      10      18       1       7       1
       1      10      13      13      12       4       6       7      10      11
       9       9       3       7       2       9       1      12       2       5
       3      11       4       2       1       1       1      14      16       4
       1      16       4       1      12      11      12      11       1      12
      11       1       8       7       8       7       8       7       8       7
       8       7       8       7       7       2       6       2       3       6
       3       5       7       2       6       2       7       2       6       2
       7       2       6       2       7       2       6       2       7       1
       1       7       1       1       2       6       1       7       1       1
       7       1       1       7       1       1       4       4       4       4
       4       4       3       3       3       3       3       3       2       1
       1       2       1       1       2       1       1       2       1       1
       2       1       1       2       1       1      11      13       5       8
       7       2       1       1       8       2       7       2       9       1
       1      14      12      11      11       7       8       7      15       2
       7       2       7       2       6       2      10      18       1       7
       1       1      10      13      13      12       4       6       7      10
      11       9       9       3       7       2       9       1      12       2
       5       3      11       4       2       1       1       1      14      16
       4       1      16       4       1      12      11      12      11       1
      12      11       1       8       7       8       7       8       7       8
       7       8       7       8       7       7       2       6       2       3
       6       3       5       7       2       6       2       7       2       6
       2       7       2       6       2       7       2       6       2       7
       1       1       7       1       1       2       6       1       7       1
       1       7       1       1       7       1       1       4       4       4
       4       4       4       3       3       3       3       3       3       2
       1       1       2       1       1       2       1       1       2       1
       1       2       1       1       2       1       1      11      13       5
       8       7       2       1       1       8       2       7       2       9
       1       1      14      12      11      11       7       8       7      15
       2       7       2       7       2       6       2      10      18       1
       7       1       1      10      13      13      12       4       6       7
      10      11       9       9       3       7       2       9       1      12
       2       5       3      11       4       2       1       1       1      14
      16       4       1      16       4       1      12      11      12      11
       1      12      11       1       8       7       8       7       8       7
       8       7       8       7       8       7       7       2       6       2
       3       6       3       5       7       2       6       2       7       2
       6       2       7       2       6       2       7       2       6       2
       7       1       1       7       1       1       2       6       1       7
       1       1       7       1       1       7       1       1       4       4
       4       4       4       4       3       3       3       3       3       3
       2       1       1       2       1       1       2       1       1       2
       1       1       2       1       1       2       1       1      11      13
       5       8       7       2       1       1       8       2       7       2
       9       1       1      14      12      11      11       7       8       7
      15       2       7       2       7       2       6       2      10      18
       1       7       1       1      10      13      13      12       4       6
       7      10      11       9       9       3       7       2       9       1
      12       2       5       3      11       4       2       1       1       1
      14      16       4       1      16       4       1      12      11      12
      11       1      12      11       1       8       7       8       7       8
       7       8       7       8       7       8       7       7       2       6
       2       3       6       3       5       7       2       6       2       7
       2       6       2       7       2       6       2       7       2       6
       2       7       1       1       7       1       1       2       6       1
       7       1       1       7       1       1       7       1       1       4
       4       4       4       4       4       3       3       3       3       3
       3       2       1       1       2       1       1       2       1       1
       2       1       1       2       1       1       2       1       1      11
      13       5       8       7       2       1       1       8       2       7
       2       9       1       1      14      12      11      11       7       8
       7      15       2       7       2       7       2       6       2      10
      18       1       7       1       1      10      13      13      12       4
       6       7      10      11       9       9       3       7       2       9
       1      12       2       5       3      11       4       2       1       1
       1      14      16       4       1      16       4       1      12      11
      12      11       1      12      11       1       8       7       8       7
       8       7       8       7       8       7       8       7       7       2
       6       2       3       6       3       5       7       2       6       2
       7       2       6       2       7       2       6       2       7       2
       6       2       7       1       1       7       1       1       2       6
       1       7       1       1       7       1       1       7       1       1
       4       4       4       4       4       4       3       3       3       3
       3       3       2       1       1       2       1       1       2       1
       1       2       1       1       2       1       1       2       1       1
%FLAG NONBONDED_PARM_INDEX                                                      
%FORMAT(10I8)                                                                   
       1       2       4       7      11      16       2       3       5       8
      12      17       4       5       6       9      13      18       7       8
       9      10      14      19      11      12      13      14      15      20
      16      17      18      19      20      21
%FLAG RESIDUE_LABEL                                                             
%FORMAT(20a4)                                                                   
SPO SPO SPO SPO SPO SPO SPO SPO SPO SPO SPO SPO SPO SPO SPO SPO SPO SPO SPO SPO 
SPO SPO SPO SPO SPO SPO SPO SPO SPO SPO SPO SPO SPO SPO SPO SPO SPO SPO SPO SPO 
SPO SPO SPO SPO SPO SPO SPO SPO SPO SPO SPO SPO SPO SPO SPO SPO SPO SPO SPO SPO 
SPO SPO SPO SPO SPO SPO SPO SPO SPO SPO SPO SPO SPO SPO SPO SPO SPO SPO SPO SPO 
SPO SPO SPO SPO SPO SPO SPO SPO SPO SPO SPO SPO SPO SPO SPO SPO SPO SPO SPO SPO 
SPO SPO SPO SPO SPO SPO SPO SPO SPO SPO SPO SPO SPO SPO SPO SPO SPO SPO SPO SPO 
SPO SPO SPO SPO SPO SPO SPO SPO SPO SPO SPO SPO SPO SPO SPO SPO SPO SPO SPO SPO 
SPO SPO SPO SPO SPO SPO SPO SPO SPO SPO 
%FLAG RESIDUE_POINTER                                                           
%FORMAT(10I8)                                                                   
       1     162     323     484     645     806     967    1128    1289    1450
    1611    1772    1933    2094    2255    2416    2577    2738    2899    3060
    3221    3382    3543    3704    3865    4026    4187    4348    4509    4670
    4831    4992    5153    5314    5475    5636    5797    5958    6119    6280
    6441    6602    6763    6924    7085    7246    7407    7568    7729    7890
    8051    8212    8373    8534    8695    8856    9017    9178    9339    9500
    9661    9822    9983   10144   10305   10466   10627   10788   10949   11110
   11271   11432   11593   11754   11915   12076   12237   12398   12559   12720
   12881   13042   13203   13364   13525   13686   13847   14008   14169   14330
   14491   14652   14813   14974   15135   15296   15457   15618   15779   15940
   16101   16262   16423   16584   16745   16906   17067   17228   17389   17550
   17711   17872   18033   18194   18355   18516   18677   18838   18999   19160
   19321   19482   19643   19804   19965   20126   20287   20448   20609   20770
   20931   21092   21253   21414   21575   21736   21897   22058   22219   22380
   22541   22702   22863   23024   23185   23346   23507   23668   23829   23990
%FLAG BOND_FORCE_CONSTANT                                                       
%FORMAT(5E16.8)                                                                 
  3.44220000E+02  2.82270000E+02  3.43340000E+02  3.54250000E+02  3.60690000E+02
  3.10840000E+02  3.46070000E+02  2.69370000E+02  2.43600000E+02
%FLAG BOND_EQUIL_VALUE                                                          
%FORMAT(5E16.8)                                                                 
  1.09690000E+00  1.42730000E+00  1.36880000E+00  1.39860000E+00  1.08600000E+00
  1.40300000E+00  1.40560000E+00  1.48290000E+00  1.51510000E+00
%FLAG ANGLE_FORCE_CONSTANT                                                      
%FORMAT(5E16.8)                                                                 
  3.56400000E+01  5.62000000E+01  4.49000000E+01  8.82600000E+01  7.90000000E+01
  6.36700000E+01  7.79900000E+01  6.71800000E+01  6.13000000E+01  6.33300000E+01
  4.47300000E+01  6.37900000E+01  6.07100000E+01  6.34600000E+01  6.04700000E+01
%FLAG ANGLE_EQUIL_VALUE                                                         
%FORMAT(5E16.8)                                                                 
  1.89455572E+00  1.92579712E+00  2.09230160E+00  2.06629619E+00  2.07886256E+00
  2.09474507E+00  2.11900515E+00  2.11411823E+00  2.11359463E+00  2.10713691E+00
  2.09125441E+00  2.06664525E+00  1.96384532E+00  1.92352819E+00  2.12703367E+00
%FLAG DIHEDRAL_FORCE_CONSTANT                                                   
%FORMAT(5E16.8)                                                                 
  3.62500000E+00  3.83333333E-01  1.66000000E+00  1.05000000E+00  7.65000000E-01
  0.00000000E+00  0.00000000E+00  1.10000000E+00
%FLAG DIHEDRAL_PERIODICITY                                                      
%FORMAT(5E16.8)                                                                 
  2.00000000E+00  3.00000000E+00  2.00000000E+00  2.00000000E+00  2.00000000E+00
  2.00000000E+00  2.00000000E+00  2.00000000E+00
%FLAG DIHEDRAL_PHASE                                                            
%FORMAT(5E16.8)                                                                 
  3.14159400E+00  0.00000000E+00  3.14159400E+00  3.14159400E+00  3.14159400E+00
  3.14159400E+00  0.00000000E+00  3.14159400E+00
%FLAG SCEE_SCALE_FACTOR                                                         
%FORMAT(5E16.8)                                                                 
  1.20000000E+00  1.20000000E+00  1.20000000E+00  1.20000000E+00  1.20000000E+00
  1.20000000E+00  1.20000000E+00  0.00000000E+00
%FLAG SCNB_SCALE_FACTOR                                                         
%FORMAT(5E16.8)                                                                 
  2.00000000E+00  2.00000000E+00  2.00000000E+00  2.00000000E+00  2.00000000E+00
  2.00000000E+00  2.00000000E+00  0.00000000E+00
%FLAG SOLTY                                                                     
%FORMAT(5E16.8)                                                                 
  0.00000000E+00  0.00000000E+00  0.00000000E+00  0.00000000E+00  0.00000000E+00
  0.00000000E+00  0.00000000E+00  0.00000000E+00
%FLAG LENNARD_JONES_ACOEF                                                       
%FORMAT(5E16.8)                                                                 
  2.83662575E+05  4.46121722E+05  6.96551276E+05  5.42502534E+05  8.43969952E+05
  1.02073671E+06  3.44374471E+04  5.63013422E+04  6.97998263E+04  3.39005767E+03
  4.65732396E+04  7.52549148E+04  9.27554496E+04  4.88692384E+03  6.90855956E+03
  5.20510209E+05  8.17329084E+05  9.93125065E+05  6.37258620E+04  8.59636060E+04
  9.54790629E+05
%FLAG LENNARD_JONES_BCOEF                                                       
%FORMAT(5E16.8)                                                                 
  2.87011518E+02  3.88758656E+02  5.24668528E+02  4.38146883E+02  5.90251928E+02
  6.63431737E+02  7.31636661E+01  1.01040256E+02  1.14981426E+02  1.67944276E+01
  7.98066064E+01  1.09570372E+02  1.24325688E+02  1.89134207E+01  2.10929191E+01
  5.10021392E+02  6.90283231E+02  7.77671659E+02  1.30560951E+02  1.42233990E+02
  9.06156687E+02
%FLAG BONDS_INC_HYDROGEN                                                        
%FORMAT(10I8)                                                                   
     426     474       1     426     477       1     426     480       1     423
     465       1     423     468       1     423     471       1     420     456
       1     420     459       1     420     462       1     417     447       1
     417     450       1     417     453       1     414     438       1     414
     441       1     414     444       1     411     429       1     411     432
       1     411     435       1     333     390       5     327     387       5
     321     381       5     315     378       5     309     372       5     303
     369       5     297     363       5     291     357       5     288     354
       5     282     351       5     273     345       5     267     342       5
     264     336       5     261     330       5     258     324       5     255
     318       5     252     312       5     249     306       5     246     300
       5     243     294       5     240     285       5     237     279       5
     234     276       5     231     270       5     201     228       5     192
     219       5     171     204       5     162     195       5     144     183
       5     141     174       1     141     177       1     141     180       1
     135     165       5     129     159       5     126     153       5     123
     147       5      84     105       5      78     102       5      72      96
       5      63      87       5      60      81       5      57      75       5
      54      69       5      30      42       5      24      39       5      12
      33       5       9      27       5       6      15       1       6      18
       1       6      21       1     909     957       1     909     960       1
     909     963       1     906     948       1     906     951       1     906
     954       1     903     939       1     903     942       1     903     945
       1     900     930       1     900     933       1     900     936       1
     897     921       1     897     924       1     897     927       1     894
     912       1     894     915       1     894     918       1     816     873
       5     810     870       5     804     864       5     798     861       5
     792     855       5     786     852       5     780     846       5     774
     840       5     771     837       5     765     834       5     756     828
       5     750     825       5     747     819       5     744     813       5
     741     807       5     738     801       5     735     795       5     732
     789       5     729     783       5     726     777       5     723     768
       5     720     762       5     717     759       5     714     753       5
     684     711       5     675     702       5     654     687       5     645
     678       5     627     666       5     624     657       1     624     660
       1     624     663       1     618     648       5     612     642       5
     609     636       5     606     630       5     567     588       5     561
     585       5     555     579       5     546     570       5     543     564
       5     540     558       5     537     552       5     513     525       5
     507     522       5     495     516       5     492     510       5     489
     498       1     489     501       1     489     504       1    1392    1440
       1    1392    1443       1    1392    1446       1    1389    1431       1
    1389    1434       1    1389    1437       1    1386    1422       1    1386
    1425       1    1386    1428       1    1383    1413       1    1383    1416
       1    1383    1419       1    1380    1404       1    1380    1407       1
    1380    1410       1    1377    1395       1    1377    1398       1    1377
    1401       1    1299    1356       5    1293    1353       5    1287    1347
       5    1281    1344       5    1275    1338       5    1269    1335       5
    1263    1329       5    1257    1323       5    1254    1320       5    1248
    1317       5    1239    1311       5    1233    1308       5    1230    1302
       5    1227    1296       5    1224    1290       5    1221    1284       5
    1218    1278       5    1215    1272       5    1212    1266       5    1209
    1260       5    1206    1251       5    1203    1245       5    1200    1242
       5    1197    1236       5    1167    1194       5    1158    1185       5
    1137    1170       5    1128    1161       5    1110    1149       5    1107
    1140       1    1107    1143       1    1107    1146       1    1101    1131
       5    1095    1125       5    1092    1119       5    1089    1113       5
    1050    1071       5    1044    1068       5    1038    1062       5    1029
    1053       5    1026    1047       5    1023    1041       5    1020    1035
       5     996    1008       5     990    1005       5     978     999       5
     975     993       5     972     981       1     972     984       1     972
     987       1    1875    1923       1    1875    1926       1    1875    1929
       1    1872    1914       1    1872    1917       1    1872    1920       1
    1869    1905       1    1869    1908       1    1869    1911       1    1866
    1896       1    1866    1899       1    1866    1902       1    1863    1887
       1    1863    1890       1    1863    1893       1    1860    1878       1
    1860    1881       1    1860    1884       1    1782    1839       5    1776
    1836       5    1770    1830       5    1764    1827       5    1758    1821
       5    1752    1818       5    1746    1812       5    1740    1806       5
    1737    1803       5    1731    1800       5    1722    1794       5    1716
    1791       5    1713    1785       5    1710    1779       5    1707    1773
       5    1704    1767       5    1701    1761       5    1698    1755       5
    1695    1749       5    1692    1743       5    1689    1734       5    1686
    1728       5    1683    1725       5    1680    1719       5    1650    1677
       5    1641    1668       5    1620    1653       5    1611    1644       5
    1593    1632       5    1590    1623       1    1590    1626       1    1590
    1629       1    1584    1614       5    1578    1608       5    1575    1602
       5    1572    1596       5    1533    1554       5    1527    1551       5
    1521    1545       5    1512    1536       5    1509    1530       5    1506
    1524       5    1503    1518       5    1479    1491       5    1473    1488
       5    1461    1482       5    1458    1476       5    1455    1464       1
    1455    1467       1    1455    1470       1    2358    2406       1    2358
    2409       1    2358    2412       1    2355    2397       1    2355    2400
       1    2355    2403       1    2352    2388       1    2352    2391       1
    2352    2394       1    2349    2379       1    2349    2382       1    2349
    2385       1    2346    2370       1    2346    2373       1    2346    2376
       1    2343    2361       1    2343    2364       1    2343    2367       1
    2265    2322       5    2259    2319       5    2253    2313       5    2247
    2310       5    2241    2304       5    2235    2301       5    2229    2295
       5    2223    2289       5    2220    2286       5    2214    2283       5
    2205    2277       5    2199    2274       5    2196    2268       5    2193
    2262       5    2190    2256       5    2187    2250       5    2184    2244
       5    2181    2238       5    2178    2232       5    2175    2226       5
    2172    2217       5    2169    2211       5    2166    2208       5    2163
    2202       5    2133    2160       5    2124    2151       5    2103    2136
       5    2094    2127       5    2076    2115       5    2073    2106       1
    2073    2109       1    2073    2112       1    2067    2097       5    2061
    2091       5    2058    2085       5    2055    2079       5    2016    2037
       5    2010    2034       5    2004    2028       5    1995    2019       5
    1992    2013       5    1989    2007       5    1986    2001       5    1962
    1974       5    1956    1971       5    1944    1965       5    1941    1959
       5    1938    1947       1    1938    1950       1    1938    1953       1
    2841    2889       1    2841    2892       1    2841    2895       1    2838
    2880       1    2838    2883       1    2838    2886       1    2835    2871
       1    2835    2874       1    2835    2877       1    2832    2862       1
    2832    2865       1    2832    2868       1    2829    2853       1    2829
    2856       1    2829    2859       1    2826    2844       1    2826    2847
       1    2826    2850       1    2748    2805       5    2742    2802       5
    2736    2796       5    2730    2793       5    2724    2787       5    2718
    2784       5    2712    2778       5    2706    2772       5    2703    2769
       5    2697    2766       5    2688    2760       5    2682    2757       5
    2679    2751       5    2676    2745       5    2673    2739       5    2670
    2733       5    2667    2727       5    2664    2721       5    2661    2715
       5    2658    2709       5    2655    2700       5    2652    2694       5
    2649    2691       5    2646    2685       5    2616    2643       5    2607
    2634       5    2586    2619       5    2577    2610       5    2559    2598
       5    2556    2589       1    2556    2592       1    2556    2595       1
    2550    2580       5    2544    2574       5    2541    2568       5    2538
    2562       5    2499    2520       5    2493    2517       5    2487    2511
       5    2478    2502       5    2475    2496       5    2472    2490       5
    2469    2484       5    2445    2457       5    2439    2454       5    2427
    2448       5    2424    2442       5    2421    2430       1    2421    2433
       1    2421    2436       1    3324    3372       1    3324    3375       1
    3324    3378       1    3321    3363       1    3321    3366       1    3321
    3369       1    3318    3354       1    3318    3357       1    3318    3360
       1    3315    3345       1    3315    3348       1    3315    3351       1
    3312    3336       1    3312    3339       1    3312    3342       1    3309
    3327       1    3309    3330       1    3309    3333       1    3231    3288
       5    3225    3285       5    3219    3279       5    3213    3276       5
    3207    3270       5    3201    3267       5    3195    3261       5    3189
    3255       5    3186    3252       5    3180    3249       5    3171    3243
       5    3165    3240       5    3162    3234       5    3159    3228       5
    3156    3222       5    3153    3216       5    3150    3210       5    3147
    3204       5    3144    3198       5    3141    3192       5    3138    3183
       5    3135    3177       5    3132    3174       5    3129    3168       5
    3099    3126       5    3090    3117       5    3069    3102       5    3060
    3093       5    3042    3081       5    3039    3072       1    3039    3075
       1    3039    3078       1    3033    3063       5    3027    3057       5
    3024    3051       5    3021    3045       5    2982    3003       5    2976
    3000       5    2970    2994       5    2961    2985       5    2958    2979
       5    2955    2973       5    2952    2967       5    2928    2940       5
    2922    2937       5    2910    2931       5    2907    2925       5    2904
    2913       1    2904    2916       1    2904    2919       1    3807    3855
       1    3807    3858       1    3807    3861       1    3804    3846       1
    3804    3849       1    3804    3852       1    3801    3837       1    3801
    3840       1    3801    3843       1    3798    3828       1    3798    3831
       1    3798    3834       1    3795    3819       1    3795    3822       1
    3795    3825       1    3792    3810       1    3792    3813       1    3792
    3816       1    3714    3771       5    3708    3768       5    3702    3762
       5    3696    3759       5    3690    3753       5    3684    3750       5
    3678    3744       5    3672    3738       5    3669    3735       5    3663
    3732       5    3654    3726       5    3648    3723       5    3645    3717
       5    3642    3711       5    3639    3705       5    3636    3699       5
    3633    3693       5    3630    3687       5    3627    3681       5    3624
    3675       5    3621    3666       5    3618    3660       5    3615    3657
       5    3612    3651       5    3582    3609       5    3573    3600       5
    3552    3585       5    3543    3576       5    3525    3564       5    3522
    3555       1    3522    3558       1    3522    3561       1    3516    3546
       5    3510    3540       5    3507    3534       5    3504    3528       5
    3465    3486       5    3459    3483       5    3453    3477       5    3444
    3468       5    3441    3462       5    3438    3456       5    3435    3450
       5    3411    3423       5    3405    3420       5    3393    3414       5
    3390    3408       5    3387    3396       1    3387    3399       1    3387
    3402       1    4290    4338       1    4290    4341       1    4290    4344
       1    4287    4329       1    4287    4332       1    4287    4335       1
    4284    4320       1    4284    4323       1    4284    4326       1    4281
    4311       1    4281    4314       1    4281    4317       1    4278    4302
       1    4278    4305       1    4278    4308       1    4275    4293       1
    4275    4296       1    4275    4299       1    4197    4254       5    4191
    4251       5    4185    4245       5    4179    4242       5    4173    4236
       5    4167    4233       5    4161    4227       5    4155    4221       5
    4152    4218       5    4146    4215       5    4137    4209       5    4131
    4206       5    4128    4200       5    4125    4194       5    4122    4188
       5    4119    4182       5    4116    4176       5    4113    4170       5
    4110    4164       5    4107    4158       5    4104    4149       5    4101
    4143       5    4098    4140       5    4095    4134       5    4065    4092
       5    4056    4083       5    4035    4068       5    4026    4059       5
    4008    4047       5    4005    4038       1    4005    4041       1    4005
    4044       1    3999    4029       5    3993    4023       5    3990    4017
       5    3987    4011       5    3948    3969       5    3942    3966       5
    3936    3960       5    3927    3951       5    3924    3945       5    3921
    3939       5    3918    3933       5    3894    3906       5    3888    3903
       5    3876    3897       5    3873    3891       5    3870    3879       1
    3870    3882       1    3870    3885       1    4773    4821       1    4773
    4824       1    4773    4827       1    4770    4812       1    4770    4815
       1    4770    4818       1    4767    4803       1    4767    4806       1
    4767    4809       1    4764    4794       1    4764    4797       1    4764
    4800       1    4761    4785       1    4761    4788       1    4761    4791
       1    4758    4776       1    4758    4779       1    4758    4782       1
    4680    4737       5    4674    4734       5    4668    4728       5    4662
    4725       5    4656    4719       5    4650    4716       5    4644    4710
       5    4638    4704       5    4635    4701       5    4629    4698       5
    4620    4692       5    4614    4689       5    4611    4683       5    4608
    4677       5    4605    4671       5    4602    4665       5    4599    4659
       5    4596    4653       5    4593    4647       5    4590    4641       5
    4587    4632       5    4584    4626       5    4581    4623       5    4578
    4617       5    4548    4575       5    4539    4566       5    4518    4551
       5    4509    4542       5    4491    4530       5    4488    4521       1
    4488    4524       1    4488    4527       1    4482    4512       5    4476
    4506       5    4473    4500       5    4470    4494       5    4431    4452
       5    4425    4449       5    4419    4443       5    4410    4434       5
    4407    4428       5    4404    4422       5    4401    4416       5    4377
    4389       5    4371    4386       5    4359    4380       5    4356    4374
       5    4353    4362       1    4353    4365       1    4353    4368       1
    5256    5304       1    5256    5307       1    5256    5310       1    5253
    5295       1    5253    5298       1    5253    5301       1    5250    5286
       1    5250    5289       1    5250    5292       1    5247    5277       1
    5247    5280       1    5247    5283       1    5244    5268       1    5244
    5271       1    5244    5274       1    5241    5259       1    5241    5262
       1    5241    5265       1    5163    5220       5    5157    5217       5
    5151    5211       5    5145    5208       5    5139    5202       5    5133
    5199       5    5127    5193       5    5121    5187       5    5118    5184
       5    5112    5181       5    5103    5175       5    5097    5172       5
    5094    5166       5    5091    5160       5    5088    5154       5    5085
    5148       5    5082    5142       5    5079    5136       5    5076    5130
       5    5073    5124       5    5070    5115       5    5067    5109       5
    5064    5106       5    5061    5100       5    5031    5058       5    5022
    5049       5    5001    5034       5    4992    5025       5    4974    5013
       5    4971    5004       1    4971    5007       1    4971    5010       1
    4965    4995       5    4959    4989       5    4956    4983       5    4953
    4977       5    4914    4935       5    4908    4932       5    4902    4926
       5    4893    4917       5    4890    4911       5    4887    4905       5
    4884    4899       5    4860    4872       5    4854    4869       5    4842
    4863       5    4839    4857       5    4836    4845       1    4836    4848
       1    4836    4851       1    5739    5787       1    5739    5790       1
    5739    5793       1    5736    5778       1    5736    5781       1    5736
    5784       1    5733    5769       1    5733    5772       1    5733    5775
       1    5730    5760       1    5730    5763       1    5730    5766       1
    5727    5751       1    5727    5754       1    5727    5757       1    5724
    5742       1    5724    5745       1    5724    5748       1    5646    5703
       5    5640    5700       5    5634    5694       5    5628    5691       5
    5622    5685       5    5616    5682       5    5610    5676       5    5604
    5670       5    5601    5667       5    5595    5664       5    5586    5658
       5    5580    5655       5    5577    5649       5    5574    5643       5
    5571    5637       5    5568    5631       5    5565    5625       5    5562
    5619       5    5559    5613       5    5556    5607       5    5553    5598
       5    5550    5592       5    5547    5589       5    5544    5583       5
    5514    5541       5    5505    5532       5    5484    5517       5    5475
    5508       5    5457    5496       5    5454    5487       1    5454    5490
       1    5454    5493       1    5448    5478       5    5442    5472       5
    5439    5466       5    5436    5460       5    5397    5418       5    5391
    5415       5    5385    5409       5    5376    5400       5    5373    5394
       5    5370    5388       5    5367    5382       5    5343    5355       5
    5337    5352       5    5325    5346       5    5322    5340       5    5319
    5328       1    5319    5331       1    5319    5334       1    6222    6270
       1    6222    6273       1    6222    6276       1    6219    6261       1
    6219    6264       1    6219    6267       1    6216    6252       1    6216
    6255       1    6216    6258       1    6213    6243       1    6213    6246
       1    6213    6249       1    6210    6234       1    6210    6237       1
    6210    6240       1    6207    6225       1    6207    6228       1    6207
    6231       1    6129    6186       5    6123    6183       5    6117    6177
       5    6111    6174       5    6105    6168       5    6099    6165       5
    6093    6159       5    6087    6153       5    6084    6150       5    6078
    6147       5    6069    6141       5    6063    6138       5    6060    6132
       5    6057    6126       5    6054    6120       5    6051    6114       5
    6048    6108       5    6045    6102       5    6042    6096       5    6039
    6090       5    6036    6081       5    6033    6075       5    6030    6072
       5    6027    6066       5    5997    6024       5    5988    6015       5
    5967    6000       5    5958    5991       5    5940    5979       5    5937
    5970       1    5937    5973       1    5937    5976       1    5931    5961
       5    5925    5955       5    5922    5949       5    5919    5943       5
    5880    5901       5    5874    5898       5    5868    5892       5    5859
    5883       5    5856    5877       5    5853    5871       5    5850    5865
       5    5826    5838       5    5820    5835       5    5808    5829       5
    5805    5823       5    5802    5811       1    5802    5814       1    5802
    5817       1    6705    6753       1    6705    6756       1    6705    6759
       1    6702    6744       1    6702    6747       1    6702    6750       1
    6699    6735       1    6699    6738       1    6699    6741       1    6696
    6726       1    6696    6729       1    6696    6732       1    6693    6717
       1    6693    6720       1    6693    6723       1    6690    6708       1
    6690    6711       1    6690    6714       1    6612    6669       5    6606
    6666       5    6600    6660       5    6594    6657       5    6588    6651
       5    6582    6648       5    6576    6642       5    6570    6636       5
    6567    6633       5    6561    6630       5    6552    6624       5    6546
    6621       5    6543    6615       5    6540    6609       5    6537    6603
       5    6534    6597       5    6531    6591       5    6528    6585       5
    6525    6579       5    6522    6573       5    6519    6564       5    6516
    6558       5    6513    6555       5    6510    6549       5    6480    6507
       5    6471    6498       5    6450    6483       5    6441    6474       5
    6423    6462       5    6420    6453       1    6420    6456       1    6420
    6459       1    6414    6444       5    6408    6438       5    6405    6432
       5    6402    6426       5    6363    6384       5    6357    6381       5
    6351    6375       5    6342    6366       5    6339    6360       5    6336
    6354       5    6333    6348       5    6309    6321       5    6303    6318
       5    6291    6312       5    6288    6306       5    6285    6294       1
    6285    6297       1    6285    6300       1    7188    7236       1    7188
    7239       1    7188    7242       1    7185    7227       1    7185    7230
       1    7185    7233       1    7182    7218       1    7182    7221       1
    7182    7224       1    7179    7209       1    7179    7212       1    7179
    7215       1    7176    7200       1    7176    7203       1    7176    7206
       1    7173    7191       1    7173    7194       1    7173    7197       1
    7095    7152       5    7089    7149       5    7083    7143       5    7077
    7140       5    7071    7134       5    7065    7131       5    7059    7125
       5    7053    7119       5    7050    7116       5    7044    7113       5
    7035    7107       5    7029    7104       5    7026    7098       5    7023
    7092       5    7020    7086       5    7017    7080       5    7014    7074
       5    7011    7068       5    7008    7062       5    7005    7056       5
    7002    7047       5    6999    7041       5    6996    7038       5    6993
    7032       5    6963    6990       5    6954    6981       5    6933    6966
       5    6924    6957       5    6906    6945       5    6903    6936       1
    6903    6939       1    6903    6942       1    6897    6927       5    6891
    6921       5    6888    6915       5    6885    6909       5    6846    6867
       5    6840    6864       5    6834    6858       5    6825    6849       5
    6822    6843       5    6819    6837       5    6816    6831       5    6792
    6804       5    6786    6801       5    6774    6795       5    6771    6789
       5    6768    6777       1    6768    6780       1    6768    6783       1
    7671    7719       1    7671    7722       1    7671    7725       1    7668
    7710       1    7668    7713       1    7668    7716       1    7665    7701
       1    7665    7704       1    7665    7707       1    7662    7692       1
    7662    7695       1    7662    7698       1    7659    7683       1    7659
    7686       1    7659    7689       1    7656    7674       1    7656    7677
       1    7656    7680       1    7578    7635       5    7572    7632       5
    7566    7626       5    7560    7623       5    7554    7617       5    7548
    7614       5    7542    7608       5    7536    7602       5    7533    7599
       5    7527    7596       5    7518    7590       5    7512    7587       5
    7509    7581       5    7506    7575       5    7503    7569       5    7500
    7563       5    7497    7557       5    7494    7551       5    7491    7545
       5    7488    7539       5    7485    7530       5    7482    7524       5
    7479    7521       5    7476    7515       5    7446    7473       5    7437
    7464       5    7416    7449       5    7407    7440       5    7389    7428
       5    7386    7419       1    7386    7422       1    7386    7425       1
    7380    7410       5    7374    7404       5    7371    7398       5    7368
    7392       5    7329    7350       5    7323    7347       5    7317    7341
       5    7308    7332       5    7305    7326       5    7302    7320       5
    7299    7314       5    7275    7287       5    7269    7284       5    7257
    7278       5    7254    7272       5    7251    7260       1    7251    7263
       1    7251    7266       1    8154    8202       1    8154    8205       1
    8154    8208       1    8151    8193       1    8151    8196       1    8151
    8199       1    8148    8184       1    8148    8187       1    8148    8190
       1    8145    8175       1    8145    8178       1    8145    8181       1
    8142    8166       1    8142    8169       1    8142    8172       1    8139
    8157       1    8139    8160       1    8139    8163       1    8061    8118
       5    8055    8115       5    8049    8109       5    8043    8106       5
    8037    8100       5    8031    8097       5    8025    8091       5    8019
    8085       5    8016    8082       5    8010    8079       5    8001    8073
       5    7995    8070       5    7992    8064       5    7989    8058       5
    7986    8052       5    7983    8046       5    7980    8040       5    7977
    8034       5    7974    8028       5    7971    8022       5    7968    8013
       5    7965    8007       5    7962    8004       5    7959    7998       5
    7929    7956       5    7920    7947       5    7899    7932       5    7890
    7923       5    7872    7911       5    7869    7902       1    7869    7905
       1    7869    7908       1    7863    7893       5    7857    7887       5
    7854    7881       5    7851    7875       5    7812    7833       5    7806
    7830       5    7800    7824       5    7791    7815       5    7788    7809
       5    7785    7803       5    7782    7797       5    7758    7770       5
    7752    7767       5    7740    7761       5    7737    7755       5    7734
    7743       1    7734    7746       1    7734    7749       1    8637    8685
       1    8637    8688       1    8637    8691       1    8634    8676       1
    8634    8679       1    8634    8682       1    8631    8667       1    8631
    8670       1    8631    8673       1    8628    8658       1    8628    8661
       1    8628    8664       1    8625    8649       1    8625    8652       1
    8625    8655       1    8622    8640       1    8622    8643       1    8622
    8646       1    8544    8601       5    8538    8598       5    8532    8592
       5    8526    8589       5    8520    8583       5    8514    8580       5
    8508    8574       5    8502    8568       5    8499    8565       5    8493
    8562       5    8484    8556       5    8478    8553       5    8475    8547
       5    8472    8541       5    8469    8535       5    8466    8529       5
    8463    8523       5    8460    8517       5    8457    8511       5    8454
    8505       5    8451    8496       5    8448    8490       5    8445    8487
       5    8442    8481       5    8412    8439       5    8403    8430       5
    8382    8415       5    8373    8406       5    8355    8394       5    8352
    8385       1    8352    8388       1    8352    8391       1    8346    8376
       5    8340    8370       5    8337    8364       5    8334    8358       5
    8295    8316       5    8289    8313       5    8283    8307       5    8274
    8298       5    8271    8292       5    8268    8286       5    8265    8280
       5    8241    8253       5    8235    8250       5    8223    8244       5
    8220    8238       5    8217    8226       1    8217    8229       1    8217
    8232       1    9120    9168       1    9120    9171       1    9120    9174
       1    9117    9159       1    9117    9162       1    9117    9165       1
    9114    9150       1    9114    9153       1    9114    9156       1    9111
    9141       1    9111    9144       1    9111    9147       1    9108    9132
       1    9108    9135       1    9108    9138       1    9105    9123       1
    9105    9126       1    9105    9129       1    9027    9084       5    9021
    9081       5    9015    9075       5    9009    9072       5    9003    9066
       5    8997    9063       5    8991    9057       5    8985    9051       5
    8982    9048       5    8976    9045       5    8967    9039       5    8961
    9036       5    8958    9030       5    8955    9024       5    8952    9018
       5    8949    9012       5    8946    9006       5    8943    9000       5
    8940    8994       5    8937    8988       5    8934    8979       5    8931
    8973       5    8928    8970       5    8925    8964       5    8895    8922
       5    8886    8913       5    8865    8898       5    8856    8889       5
    8838    8877       5    8835    8868       1    8835    8871       1    8835
    8874       1    8829    8859       5    8823    8853       5    8820    8847
       5    8817    8841       5    8778    8799       5    8772    8796       5
    8766    8790       5    8757    8781       5    8754    8775       5    8751
    8769       5    8748    8763       5    8724    8736       5    8718    8733
       5    8706    8727       5    8703    8721       5    8700    8709       1
    8700    8712       1    8700    8715       1    9603    9651       1    9603
    9654       1    9603    9657       1    9600    9642       1    9600    9645
       1    9600    9648       1    9597    9633       1    9597    9636       1
    9597    9639       1    9594    9624       1    9594    9627       1    9594
    9630       1    9591    9615       1    9591    9618       1    9591    9621
       1    9588    9606       1    9588    9609       1    9588    9612       1
    9510    9567       5    9504    9564       5    9498    9558       5    9492
    9555       5    9486    9549       5    9480    9546       5    9474    9540
       5    9468    9534       5    9465    9531       5    9459    9528       5
    9450    9522       5    9444    9519       5    9441    9513       5    9438
    9507       5    9435    9501       5    9432    9495       5    9429    9489
       5    9426    9483       5    9423    9477       5    9420    9471       5
    9417    9462       5    9414    9456       5    9411    9453       5    9408
    9447       5    9378    9405       5    9369    9396       5    9348    9381
       5    9339    9372       5    9321    9360       5    9318    9351       1
    9318    9354       1    9318    9357       1    9312    9342       5    9306
    9336       5    9303    9330       5    9300    9324       5    9261    9282
       5    9255    9279       5    9249    9273       5    9240    9264       5
    9237    9258       5    9234    9252       5    9231    9246       5    9207
    9219       5    9201    9216       5    9189    9210       5    9186    9204
       5    9183    9192       1    9183    9195       1    9183    9198       1
   10086   10134       1   10086   10137       1   10086   10140       1   10083
   10125       1   10083   10128       1   10083   10131       1   10080   10116
       1   10080   10119       1   10080   10122       1   10077   10107       1
   10077   10110       1   10077   10113       1   10074   10098       1   10074
   10101       1   10074   10104       1   10071   10089       1   10071   10092
       1   10071   10095       1    9993   10050       5    9987   10047       5
    9981   10041       5    9975   10038       5    9969   10032       5    9963
   10029       5    9957   10023       5    9951   10017       5    9948   10014
       5    9942   10011       5    9933   10005       5    9927   10002       5
    9924    9996       5    9921    9990       5    9918    9984       5    9915
    9978       5    9912    9972       5    9909    9966       5    9906    9960
       5    9903    9954       5    9900    9945       5    9897    9939       5
    9894    9936       5    9891    9930       5    9861    9888       5    9852
    9879       5    9831    9864       5    9822    9855       5    9804    9843
       5    9801    9834       1    9801    9837       1    9801    9840       1
    9795    9825       5    9789    9819       5    9786    9813       5    9783
    9807       5    9744    9765       5    9738    9762       5    9732    9756
       5    9723    9747       5    9720    9741       5    9717    9735       5
    9714    9729       5    9690    9702       5    9684    9699       5    9672
    9693       5    9669    9687       5    9666    9675       1    9666    9678
       1    9666    9681       1   10569   10617       1   10569   10620       1
   10569   10623       1   10566   10608       1   10566   10611       1   10566
   10614       1   10563   10599       1   10563   10602       1   10563   10605
       1   10560   10590       1   10560   10593       1   10560   10596       1
   10557   10581       1   10557   10584       1   10557   10587       1   10554
   10572       1   10554   10575       1   10554   10578       1   10476   10533
       5   10470   10530       5   10464   10524       5   10458   10521       5
   10452   10515       5   10446   10512       5   10440   10506       5   10434
   10500       5   10431   10497       5   10425   10494       5   10416   10488
       5   10410   10485       5   10407   10479       5   10404   10473       5
   10401   10467       5   10398   10461       5   10395   10455       5   10392
   10449       5   10389   10443       5   10386   10437       5   10383   10428
       5   10380   10422       5   10377   10419       5   10374   10413       5
   10344   10371       5   10335   10362       5   10314   10347       5   10305
   10338       5   10287   10326       5   10284   10317       1   10284   10320
       1   10284   10323       1   10278   10308       5   10272   10302       5
   10269   10296       5   10266   10290       5   10227   10248       5   10221
   10245       5   10215   10239       5   10206   10230       5   10203   10224
       5   10200   10218       5   10197   10212       5   10173   10185       5
   10167   10182       5   10155   10176       5   10152   10170       5   10149
   10158       1   10149   10161       1   10149   10164       1   11052   11100
       1   11052   11103       1   11052   11106       1   11049   11091       1
   11049   11094       1   11049   11097       1   11046   11082       1   11046
   11085       1   11046   11088       1   11043   11073       1   11043   11076
       1   11043   11079       1   11040   11064       1   11040   11067       1
   11040   11070       1   11037   11055       1   11037   11058       1   11037
   11061       1   10959   11016       5   10953   11013       5   10947   11007
       5   10941   11004       5   10935   10998       5   10929   10995       5
   10923   10989       5   10917   10983       5   10914   10980       5   10908
   10977       5   10899   10971       5   10893   10968       5   10890   10962
       5   10887   10956       5   10884   10950       5   10881   10944       5
   10878   10938       5   10875   10932       5   10872   10926       5   10869
   10920       5   10866   10911       5   10863   10905       5   10860   10902
       5   10857   10896       5   10827   10854       5   10818   10845       5
   10797   10830       5   10788   10821       5   10770   10809       5   10767
   10800       1   10767   10803       1   10767   10806       1   10761   10791
       5   10755   10785       5   10752   10779       5   10749   10773       5
   10710   10731       5   10704   10728       5   10698   10722       5   10689
   10713       5   10686   10707       5   10683   10701       5   10680   10695
       5   10656   10668       5   10650   10665       5   10638   10659       5
   10635   10653       5   10632   10641       1   10632   10644       1   10632
   10647       1   11535   11583       1   11535   11586       1   11535   11589
       1   11532   11574       1   11532   11577       1   11532   11580       1
   11529   11565       1   11529   11568       1   11529   11571       1   11526
   11556       1   11526   11559       1   11526   11562       1   11523   11547
       1   11523   11550       1   11523   11553       1   11520   11538       1
   11520   11541       1   11520   11544       1   11442   11499       5   11436
   11496       5   11430   11490       5   11424   11487       5   11418   11481
       5   11412   11478       5   11406   11472       5   11400   11466       5
   11397   11463       5   11391   11460       5   11382   11454       5   11376
   11451       5   11373   11445       5   11370   11439       5   11367   11433
       5   11364   11427       5   11361   11421       5   11358   11415       5
   11355   11409       5   11352   11403       5   11349   11394       5   11346
   11388       5   11343   11385       5   11340   11379       5   11310   11337
       5   11301   11328       5   11280   11313       5   11271   11304       5
   11253   11292       5   11250   11283       1   11250   11286       1   11250
   11289       1   11244   11274       5   11238   11268       5   11235   11262
       5   11232   11256       5   11193   11214       5   11187   11211       5
   11181   11205       5   11172   11196       5   11169   11190       5   11166
   11184       5   11163   11178       5   11139   11151       5   11133   11148
       5   11121   11142       5   11118   11136       5   11115   11124       1
   11115   11127       1   11115   11130       1   12018   12066       1   12018
   12069       1   12018   12072       1   12015   12057       1   12015   12060
       1   12015   12063       1   12012   12048       1   12012   12051       1
   12012   12054       1   12009   12039       1   12009   12042       1   12009
   12045       1   12006   12030       1   12006   12033       1   12006   12036
       1   12003   12021       1   12003   12024       1   12003   12027       1
   11925   11982       5   11919   11979       5   11913   11973       5   11907
   11970       5   11901   11964       5   11895   11961       5   11889   11955
       5   11883   11949       5   11880   11946       5   11874   11943       5
   11865   11937       5   11859   11934       5   11856   11928       5   11853
   11922       5   11850   11916       5   11847   11910       5   11844   11904
       5   11841   11898       5   11838   11892       5   11835   11886       5
   11832   11877       5   11829   11871       5   11826   11868       5   11823
   11862       5   11793   11820       5   11784   11811       5   11763   11796
       5   11754   11787       5   11736   11775       5   11733   11766       1
   11733   11769       1   11733   11772       1   11727   11757       5   11721
   11751       5   11718   11745       5   11715   11739       5   11676   11697
       5   11670   11694       5   11664   11688       5   11655   11679       5
   11652   11673       5   11649   11667       5   11646   11661       5   11622
   11634       5   11616   11631       5   11604   11625       5   11601   11619
       5   11598   11607       1   11598   11610       1   11598   11613       1
   12501   12549       1   12501   12552       1   12501   12555       1   12498
   12540       1   12498   12543       1   12498   12546       1   12495   12531
       1   12495   12534       1   12495   12537       1   12492   12522       1
   12492   12525       1   12492   12528       1   12489   12513       1   12489
   12516       1   12489   12519       1   12486   12504       1   12486   12507
       1   12486   12510       1   12408   12465       5   12402   12462       5
   12396   12456       5   12390   12453       5   12384   12447       5   12378
   12444       5   12372   12438       5   12366   12432       5   12363   12429
       5   12357   12426       5   12348   12420       5   12342   12417       5
   12339   12411       5   12336   12405       5   12333   12399       5   12330
   12393       5   12327   12387       5   12324   12381       5   12321   12375
       5   12318   12369       5   12315   12360       5   12312   12354       5
   12309   12351       5   12306   12345       5   12276   12303       5   12267
   12294       5   12246   12279       5   12237   12270       5   12219   12258
       5   12216   12249       1   12216   12252       1   12216   12255       1
   12210   12240       5   12204   12234       5   12201   12228       5   12198
   12222       5   12159   12180       5   12153   12177       5   12147   12171
       5   12138   12162       5   12135   12156       5   12132   12150       5
   12129   12144       5   12105   12117       5   12099   12114       5   12087
   12108       5   12084   12102       5   12081   12090       1   12081   12093
       1   12081   12096       1   12984   13032       1   12984   13035       1
   12984   13038       1   12981   13023       1   12981   13026       1   12981
   13029       1   12978   13014       1   12978   13017       1   12978   13020
       1   12975   13005       1   12975   13008       1   12975   13011       1
   12972   12996       1   12972   12999       1   12972   13002       1   12969
   12987       1   12969   12990       1   12969   12993       1   12891   12948
       5   12885   12945       5   12879   12939       5   12873   12936       5
   12867   12930       5   12861   12927       5   12855   12921       5   12849
   12915       5   12846   12912       5   12840   12909       5   12831   12903
       5   12825   12900       5   12822   12894       5   12819   12888       5
   12816   12882       5   12813   12876       5   12810   12870       5   12807
   12864       5   12804   12858       5   12801   12852       5   12798   12843
       5   12795   12837       5   12792   12834       5   12789   12828       5
   12759   12786       5   12750   12777       5   12729   12762       5   12720
   12753       5   12702   12741       5   12699   12732       1   12699   12735
       1   12699   12738       1   12693   12723       5   12687   12717       5
   12684   12711       5   12681   12705       5   12642   12663       5   12636
   12660       5   12630   12654       5   12621   12645       5   12618   12639
       5   12615   12633       5   12612   12627       5   12588   12600       5
   12582   12597       5   12570   12591       5   12567   12585       5   12564
   12573       1   12564   12576       1   12564   12579       1   13467   13515
       1   13467   13518       1   13467   13521       1   13464   13506       1
   13464   13509       1   13464   13512       1   13461   13497       1   13461
   13500       1   13461   13503       1   13458   13488       1   13458   13491
       1   13458   13494       1   13455   13479       1   13455   13482       1
   13455   13485       1   13452   13470       1   13452   13473       1   13452
   13476       1   13374   13431       5   13368   13428       5   13362   13422
       5   13356   13419       5   13350   13413       5   13344   13410       5
   13338   13404       5   13332   13398       5   13329   13395       5   13323
   13392       5   13314   13386       5   13308   13383       5   13305   13377
       5   13302   13371       5   13299   13365       5   13296   13359       5
   13293   13353       5   13290   13347       5   13287   13341       5   13284
   13335       5   13281   13326       5   13278   13320       5   13275   13317
       5   13272   13311       5   13242   13269       5   13233   13260       5
   13212   13245       5   13203   13236       5   13185   13224       5   13182
   13215       1   13182   13218       1   13182   13221       1   13176   13206
       5   13170   13200       5   13167   13194       5   13164   13188       5
   13125   13146       5   13119   13143       5   13113   13137       5   13104
   13128       5   13101   13122       5   13098   13116       5   13095   13110
       5   13071   13083       5   13065   13080       5   13053   13074       5
   13050   13068       5   13047   13056       1   13047   13059       1   13047
   13062       1   13950   13998       1   13950   14001       1   13950   14004
       1   13947   13989       1   13947   13992       1   13947   13995       1
   13944   13980       1   13944   13983       1   13944   13986       1   13941
   13971       1   13941   13974       1   13941   13977       1   13938   13962
       1   13938   13965       1   13938   13968       1   13935   13953       1
   13935   13956       1   13935   13959       1   13857   13914       5   13851
   13911       5   13845   13905       5   13839   13902       5   13833   13896
       5   13827   13893       5   13821   13887       5   13815   13881       5
   13812   13878       5   13806   13875       5   13797   13869       5   13791
   13866       5   13788   13860       5   13785   13854       5   13782   13848
       5   13779   13842       5   13776   13836       5   13773   13830       5
   13770   13824       5   13767   13818       5   13764   13809       5   13761
   13803       5   13758   13800       5   13755   13794       5   13725   13752
       5   13716   13743       5   13695   13728       5   13686   13719       5
   13668   13707       5   13665   13698       1   13665   13701       1   13665
   13704       1   13659   13689       5   13653   13683       5   13650   13677
       5   13647   13671       5   13608   13629       5   13602   13626       5
   13596   13620       5   13587   13611       5   13584   13605       5   13581
   13599       5   13578   13593       5   13554   13566       5   13548   13563
       5   13536   13557       5   13533   13551       5   13530   13539       1
   13530   13542       1   13530   13545       1   14433   14481       1   14433
   14484       1   14433   14487       1   14430   14472       1   14430   14475
       1   14430   14478       1   14427   14463       1   14427   14466       1
   14427   14469       1   14424   14454       1   14424   14457       1   14424
   14460       1   14421   14445       1   14421   14448       1   14421   14451
       1   14418   14436       1   14418   14439       1   14418   14442       1
   14340   14397       5   14334   14394       5   14328   14388       5   14322
   14385       5   14316   14379       5   14310   14376       5   14304   14370
       5   14298   14364       5   14295   14361       5   14289   14358       5
   14280   14352       5   14274   14349       5   14271   14343       5   14268
   14337       5   14265   14331       5   14262   14325       5   14259   14319
       5   14256   14313       5   14253   14307       5   14250   14301       5
   14247   14292       5   14244   14286       5   14241   14283       5   14238
   14277       5   14208   14235       5   14199   14226       5   14178   14211
       5   14169   14202       5   14151   14190       5   14148   14181       1
   14148   14184       1   14148   14187       1   14142   14172       5   14136
   14166       5   14133   14160       5   14130   14154       5   14091   14112
       5   14085   14109       5   14079   14103       5   14070   14094       5
   14067   14088       5   14064   14082       5   14061   14076       5   14037
   14049       5   14031   14046       5   14019   14040       5   14016   14034
       5   14013   14022       1   14013   14025       1   14013   14028       1
   14916   14964       1   14916   14967       1   14916   14970       1   14913
   14955       1   14913   14958       1   14913   14961       1   14910   14946
       1   14910   14949       1   14910   14952       1   14907   14937       1
   14907   14940       1   14907   14943       1   14904   14928       1   14904
   14931       1   14904   14934       1   14901   14919       1   14901   14922
       1   14901   14925       1   14823   14880       5   14817   14877       5
   14811   14871       5   14805   14868       5   14799   14862       5   14793
   14859       5   14787   14853       5   14781   14847       5   14778   14844
       5   14772   14841       5   14763   14835       5   14757   14832       5
   14754   14826       5   14751   14820       5   14748   14814       5   14745
   14808       5   14742   14802       5   14739   14796       5   14736   14790
       5   14733   14784       5   14730   14775       5   14727   14769       5
   14724   14766       5   14721   14760       5   14691   14718       5   14682
   14709       5   14661   14694       5   14652   14685       5   14634   14673
       5   14631   14664       1   14631   14667       1   14631   14670       1
   14625   14655       5   14619   14649       5   14616   14643       5   14613
   14637       5   14574   14595       5   14568   14592       5   14562   14586
       5   14553   14577       5   14550   14571       5   14547   14565       5
   14544   14559       5   14520   14532       5   14514   14529       5   14502
   14523       5   14499   14517       5   14496   14505       1   14496   14508
       1   14496   14511       1   15399   15447       1   15399   15450       1
   15399   15453       1   15396   15438       1   15396   15441       1   15396
   15444       1   15393   15429       1   15393   15432       1   15393   15435
       1   15390   15420       1   15390   15423       1   15390   15426       1
   15387   15411       1   15387   15414       1   15387   15417       1   15384
   15402       1   15384   15405       1   15384   15408       1   15306   15363
       5   15300   15360       5   15294   15354       5   15288   15351       5
   15282   15345       5   15276   15342       5   15270   15336       5   15264
   15330       5   15261   15327       5   15255   15324       5   15246   15318
       5   15240   15315       5   15237   15309       5   15234   15303       5
   15231   15297       5   15228   15291       5   15225   15285       5   15222
   15279       5   15219   15273       5   15216   15267       5   15213   15258
       5   15210   15252       5   15207   15249       5   15204   15243       5
   15174   15201       5   15165   15192       5   15144   15177       5   15135
   15168       5   15117   15156       5   15114   15147       1   15114   15150
       1   15114   15153       1   15108   15138       5   15102   15132       5
   15099   15126       5   15096   15120       5   15057   15078       5   15051
   15075       5   15045   15069       5   15036   15060       5   15033   15054
       5   15030   15048       5   15027   15042       5   15003   15015       5
   14997   15012       5   14985   15006       5   14982   15000       5   14979
   14988       1   14979   14991       1   14979   14994       1   15882   15930
       1   15882   15933       1   15882   15936       1   15879   15921       1
   15879   15924       1   15879   15927       1   15876   15912       1   15876
   15915       1   15876   15918       1   15873   15903       1   15873   15906
       1   15873   15909       1   15870   15894       1   15870   15897       1
   15870   15900       1   15867   15885       1   15867   15888       1   15867
   15891       1   15789   15846       5   15783   15843       5   15777   15837
       5   15771   15834       5   15765   15828       5   15759   15825       5
   15753   15819       5   15747   15813       5   15744   15810       5   15738
   15807       5   15729   15801       5   15723   15798       5   15720   15792
       5   15717   15786       5   15714   15780       5   15711   15774       5
   15708   15768       5   15705   15762       5   15702   15756       5   15699
   15750       5   15696   15741       5   15693   15735       5   15690   15732
       5   15687   15726       5   15657   15684       5   15648   15675       5
   15627   15660       5   15618   15651       5   15600   15639       5   15597
   15630       1   15597   15633       1   15597   15636       1   15591   15621
       5   15585   15615       5   15582   15609       5   15579   15603       5
   15540   15561       5   15534   15558       5   15528   15552       5   15519
   15543       5   15516   15537       5   15513   15531       5   15510   15525
       5   15486   15498       5   15480   15495       5   15468   15489       5
   15465   15483       5   15462   15471       1   15462   15474       1   15462
   15477       1   16365   16413       1   16365   16416       1   16365   16419
       1   16362   16404       1   16362   16407       1   16362   16410       1
   16359   16395       1   16359   16398       1   16359   16401       1   16356
   16386       1   16356   16389       1   16356   16392       1   16353   16377
       1   16353   16380       1   16353   16383       1   16350   16368       1
   16350   16371       1   16350   16374       1   16272   16329       5   16266
   16326       5   16260   16320       5   16254   16317       5   16248   16311
       5   16242   16308       5   16236   16302       5   16230   16296       5
   16227   16293       5   16221   16290       5   16212   16284       5   16206
   16281       5   16203   16275       5   16200   16269       5   16197   16263
       5   16194   16257       5   16191   16251       5   16188   16245       5
   16185   16239       5   16182   16233       5   16179   16224       5   16176
   16218       5   16173   16215       5   16170   16209       5   16140   16167
       5   16131   16158       5   16110   16143       5   16101   16134       5
   16083   16122       5   16080   16113       1   16080   16116       1   16080
   16119       1   16074   16104       5   16068   16098       5   16065   16092
       5   16062   16086       5   16023   16044       5   16017   16041       5
   16011   16035       5   16002   16026       5   15999   16020       5   15996
   16014       5   15993   16008       5   15969   15981       5   15963   15978
       5   15951   15972       5   15948   15966       5   15945   15954       1
   15945   15957       1   15945   15960       1   16848   16896       1   16848
   16899       1   16848   16902       1   16845   16887       1   16845   16890
       1   16845   16893       1   16842   16878       1   16842   16881       1
   16842   16884       1   16839   16869       1   16839   16872       1   16839
   16875       1   16836   16860       1   16836   16863       1   16836   16866
       1   16833   16851       1   16833   16854       1   16833   16857       1
   16755   16812       5   16749   16809       5   16743   16803       5   16737
   16800       5   16731   16794       5   16725   16791       5   16719   16785
       5   16713   16779       5   16710   16776       5   16704   16773       5
   16695   16767       5   16689   16764       5   16686   16758       5   16683
   16752       5   16680   16746       5   16677   16740       5   16674   16734
       5   16671   16728       5   16668   16722       5   16665   16716       5
   16662   16707       5   16659   16701       5   16656   16698       5   16653
   16692       5   16623   16650       5   16614   16641       5   16593   16626
       5   16584   16617       5   16566   16605       5   16563   16596       1
   16563   16599       1   16563   16602       1   16557   16587       5   16551
   16581       5   16548   16575       5   16545   16569       5   16506   16527
       5   16500   16524       5   16494   16518       5   16485   16509       5
   16482   16503       5   16479   16497       5   16476   16491       5   16452
   16464       5   16446   16461       5   16434   16455       5   16431   16449
       5   16428   16437       1   16428   16440       1   16428   16443       1
   17331   17379       1   17331   17382       1   17331   17385       1   17328
   17370       1   17328   17373       1   17328   17376       1   17325   17361
       1   17325   17364       1   17325   17367       1   17322   17352       1
   17322   17355       1   17322   17358       1   17319   17343       1   17319
   17346       1   17319   17349       1   17316   17334       1   17316   17337
       1   17316   17340       1   17238   17295       5   17232   17292       5
   17226   17286       5   17220   17283       5   17214   17277       5   17208
   17274       5   17202   17268       5   17196   17262       5   17193   17259
       5   17187   17256       5   17178   17250       5   17172   17247       5
   17169   17241       5   17166   17235       5   17163   17229       5   17160
   17223       5   17157   17217       5   17154   17211       5   17151   17205
       5   17148   17199       5   17145   17190       5   17142   17184       5
   17139   17181       5   17136   17175       5   17106   17133       5   17097
   17124       5   17076   17109       5   17067   17100       5   17049   17088
       5   17046   17079       1   17046   17082       1   17046   17085       1
   17040   17070       5   17034   17064       5   17031   17058       5   17028
   17052       5   16989   17010       5   16983   17007       5   16977   17001
       5   16968   16992       5   16965   16986       5   16962   16980       5
   16959   16974       5   16935   16947       5   16929   16944       5   16917
   16938       5   16914   16932       5   16911   16920       1   16911   16923
       1   16911   16926       1   17814   17862       1   17814   17865       1
   17814   17868       1   17811   17853       1   17811   17856       1   17811
   17859       1   17808   17844       1   17808   17847       1   17808   17850
       1   17805   17835       1   17805   17838       1   17805   17841       1
   17802   17826       1   17802   17829       1   17802   17832       1   17799
   17817       1   17799   17820       1   17799   17823       1   17721   17778
       5   17715   17775       5   17709   17769       5   17703   17766       5
   17697   17760       5   17691   17757       5   17685   17751       5   17679
   17745       5   17676   17742       5   17670   17739       5   17661   17733
       5   17655   17730       5   17652   17724       5   17649   17718       5
   17646   17712       5   17643   17706       5   17640   17700       5   17637
   17694       5   17634   17688       5   17631   17682       5   17628   17673
       5   17625   17667       5   17622   17664       5   17619   17658       5
   17589   17616       5   17580   17607       5   17559   17592       5   17550
   17583       5   17532   17571       5   17529   17562       1   17529   17565
       1   17529   17568       1   17523   17553       5   17517   17547       5
   17514   17541       5   17511   17535       5   17472   17493       5   17466
   17490       5   17460   17484       5   17451   17475       5   17448   17469
       5   17445   17463       5   17442   17457       5   17418   17430       5
   17412   17427       5   17400   17421       5   17397   17415       5   17394
   17403       1   17394   17406       1   17394   17409       1   18297   18345
       1   18297   18348       1   18297   18351       1   18294   18336       1
   18294   18339       1   18294   18342       1   18291   18327       1   18291
   18330       1   18291   18333       1   18288   18318       1   18288   18321
       1   18288   18324       1   18285   18309       1   18285   18312       1
   18285   18315       1   18282   18300       1   18282   18303       1   18282
   18306       1   18204   18261       5   18198   18258       5   18192   18252
       5   18186   18249       5   18180   18243       5   18174   18240       5
   18168   18234       5   18162   18228       5   18159   18225       5   18153
   18222       5   18144   18216       5   18138   18213       5   18135   18207
       5   18132   18201       5   18129   18195       5   18126   18189       5
   18123   18183       5   18120   18177       5   18117   18171       5   18114
   18165       5   18111   18156       5   18108   18150       5   18105   18147
       5   18102   18141       5   18072   18099       5   18063   18090       5
   18042   18075       5   18033   18066       5   18015   18054       5   18012
   18045       1   18012   18048       1   18012   18051       1   18006   18036
       5   18000   18030       5   17997   18024       5   17994   18018       5
   17955   17976       5   17949   17973       5   17943   17967       5   17934
   17958       5   17931   17952       5   17928   17946       5   17925   17940
       5   17901   17913       5   17895   17910       5   17883   17904       5
   17880   17898       5   17877   17886       1   17877   17889       1   17877
   17892       1   18780   18828       1   18780   18831       1   18780   18834
       1   18777   18819       1   18777   18822       1   18777   18825       1
   18774   18810       1   18774   18813       1   18774   18816       1   18771
   18801       1   18771   18804       1   18771   18807       1   18768   18792
       1   18768   18795       1   18768   18798       1   18765   18783       1
   18765   18786       1   18765   18789       1   18687   18744       5   18681
   18741       5   18675   18735       5   18669   18732       5   18663   18726
       5   18657   18723       5   18651   18717       5   18645   18711       5
   18642   18708       5   18636   18705       5   18627   18699       5   18621
   18696       5   18618   18690       5   18615   18684       5   18612   18678
       5   18609   18672       5   18606   18666       5   18603   18660       5
   18600   18654       5   18597   18648       5   18594   18639       5   18591
   18633       5   18588   18630       5   18585   18624       5   18555   18582
       5   18546   18573       5   18525   18558       5   18516   18549       5
   18498   18537       5   18495   18528       1   18495   18531       1   18495
   18534       1   18489   18519       5   18483   18513       5   18480   18507
       5   18477   18501       5   18438   18459       5   18432   18456       5
   18426   18450       5   18417   18441       5   18414   18435       5   18411
   18429       5   18408   18423       5   18384   18396       5   18378   18393
       5   18366   18387       5   18363   18381       5   18360   18369       1
   18360   18372       1   18360   18375       1   19263   19311       1   19263
   19314       1   19263   19317       1   19260   19302       1   19260   19305
       1   19260   19308       1   19257   19293       1   19257   19296       1
   19257   19299       1   19254   19284       1   19254   19287       1   19254
   19290       1   19251   19275       1   19251   19278       1   19251   19281
       1   19248   19266       1   19248   19269       1   19248   19272       1
   19170   19227       5   19164   19224       5   19158   19218       5   19152
   19215       5   19146   19209       5   19140   19206       5   19134   19200
       5   19128   19194       5   19125   19191       5   19119   19188       5
   19110   19182       5   19104   19179       5   19101   19173       5   19098
   19167       5   19095   19161       5   19092   19155       5   19089   19149
       5   19086   19143       5   19083   19137       5   19080   19131       5
   19077   19122       5   19074   19116       5   19071   19113       5   19068
   19107       5   19038   19065       5   19029   19056       5   19008   19041
       5   18999   19032       5   18981   19020       5   18978   19011       1
   18978   19014       1   18978   19017       1   18972   19002       5   18966
   18996       5   18963   18990       5   18960   18984       5   18921   18942
       5   18915   18939       5   18909   18933       5   18900   18924       5
   18897   18918       5   18894   18912       5   18891   18906       5   18867
   18879       5   18861   18876       5   18849   18870       5   18846   18864
       5   18843   18852       1   18843   18855       1   18843   18858       1
   19746   19794       1   19746   19797       1   19746   19800       1   19743
   19785       1   19743   19788       1   19743   19791       1   19740   19776
       1   19740   19779       1   19740   19782       1   19737   19767       1
   19737   19770       1   19737   19773       1   19734   19758       1   19734
   19761       1   19734   19764       1   19731   19749       1   19731   19752
       1   19731   19755       1   19653   19710       5   19647   19707       5
   19641   19701       5   19635   19698       5   19629   19692       5   19623
   19689       5   19617   19683       5   19611   19677       5   19608   19674
       5   19602   19671       5   19593   19665       5   19587   19662       5
   19584   19656       5   19581   19650       5   19578   19644       5   19575
   19638       5   19572   19632       5   19569   19626       5   19566   19620
       5   19563   19614       5   19560   19605       5   19557   19599       5
   19554   19596       5   19551   19590       5   19521   19548       5   19512
   19539       5   19491   19524       5   19482   19515       5   19464   19503
       5   19461   19494       1   19461   19497       1   19461   19500       1
   19455   19485       5   19449   19479       5   19446   19473       5   19443
   19467       5   19404   19425       5   19398   19422       5   19392   19416
       5   19383   19407       5   19380   19401       5   19377   19395       5
   19374   19389       5   19350   19362       5   19344   19359       5   19332
   19353       5   19329   19347       5   19326   19335       1   19326   19338
       1   19326   19341       1   20229   20277       1   20229   20280       1
   20229   20283       1   20226   20268       1   20226   20271       1   20226
   20274       1   20223   20259       1   20223   20262       1   20223   20265
       1   20220   20250       1   20220   20253       1   20220   20256       1
   20217   20241       1   20217   20244       1   20217   20247       1   20214
   20232       1   20214   20235       1   20214   20238       1   20136   20193
       5   20130   20190       5   20124   20184       5   20118   20181       5
   20112   20175       5   20106   20172       5   20100   20166       5   20094
   20160       5   20091   20157       5   20085   20154       5   20076   20148
       5   20070   20145       5   20067   20139       5   20064   20133       5
   20061   20127       5   20058   20121       5   20055   20115       5   20052
   20109       5   20049   20103       5   20046   20097       5   20043   20088
       5   20040   20082       5   20037   20079       5   20034   20073       5
   20004   20031       5   19995   20022       5   19974   20007       5   19965
   19998       5   19947   19986       5   19944   19977       1   19944   19980
       1   19944   19983       1   19938   19968       5   19932   19962       5
   19929   19956       5   19926   19950       5   19887   19908       5   19881
   19905       5   19875   19899       5   19866   19890       5   19863   19884
       5   19860   19878       5   19857   19872       5   19833   19845       5
   19827   19842       5   19815   19836       5   19812   19830       5   19809
   19818       1   19809   19821       1   19809   19824       1   20712   20760
       1   20712   20763       1   20712   20766       1   20709   20751       1
   20709   20754       1   20709   20757       1   20706   20742       1   20706
   20745       1   20706   20748       1   20703   20733       1   20703   20736
       1   20703   20739       1   20700   20724       1   20700   20727       1
   20700   20730       1   20697   20715       1   20697   20718       1   20697
   20721       1   20619   20676       5   20613   20673       5   20607   20667
       5   20601   20664       5   20595   20658       5   20589   20655       5
   20583   20649       5   20577   20643       5   20574   20640       5   20568
   20637       5   20559   20631       5   20553   20628       5   20550   20622
       5   20547   20616       5   20544   20610       5   20541   20604       5
   20538   20598       5   20535   20592       5   20532   20586       5   20529
   20580       5   20526   20571       5   20523   20565       5   20520   20562
       5   20517   20556       5   20487   20514       5   20478   20505       5
   20457   20490       5   20448   20481       5   20430   20469       5   20427
   20460       1   20427   20463       1   20427   20466       1   20421   20451
       5   20415   20445       5   20412   20439       5   20409   20433       5
   20370   20391       5   20364   20388       5   20358   20382       5   20349
   20373       5   20346   20367       5   20343   20361       5   20340   20355
       5   20316   20328       5   20310   20325       5   20298   20319       5
   20295   20313       5   20292   20301       1   20292   20304       1   20292
   20307       1   21195   21243       1   21195   21246       1   21195   21249
       1   21192   21234       1   21192   21237       1   21192   21240       1
   21189   21225       1   21189   21228       1   21189   21231       1   21186
   21216       1   21186   21219       1   21186   21222       1   21183   21207
       1   21183   21210       1   21183   21213       1   21180   21198       1
   21180   21201       1   21180   21204       1   21102   21159       5   21096
   21156       5   21090   21150       5   21084   21147       5   21078   21141
       5   21072   21138       5   21066   21132       5   21060   21126       5
   21057   21123       5   21051   21120       5   21042   21114       5   21036
   21111       5   21033   21105       5   21030   21099       5   21027   21093
       5   21024   21087       5   21021   21081       5   21018   21075       5
   21015   21069       5   21012   21063       5   21009   21054       5   21006
   21048       5   21003   21045       5   21000   21039       5   20970   20997
       5   20961   20988       5   20940   20973       5   20931   20964       5
   20913   20952       5   20910   20943       1   20910   20946       1   20910
   20949       1   20904   20934       5   20898   20928       5   20895   20922
       5   20892   20916       5   20853   20874       5   20847   20871       5
   20841   20865       5   20832   20856       5   20829   20850       5   20826
   20844       5   20823   20838       5   20799   20811       5   20793   20808
       5   20781   20802       5   20778   20796       5   20775   20784       1
   20775   20787       1   20775   20790       1   21678   21726       1   21678
   21729       1   21678   21732       1   21675   21717       1   21675   21720
       1   21675   21723       1   21672   21708       1   21672   21711       1
   21672   21714       1   21669   21699       1   21669   21702       1   21669
   21705       1   21666   21690       1   21666   21693       1   21666   21696
       1   21663   21681       1   21663   21684       1   21663   21687       1
   21585   21642       5   21579   21639       5   21573   21633       5   21567
   21630       5   21561   21624       5   21555   21621       5   21549   21615
       5   21543   21609       5   21540   21606       5   21534   21603       5
   21525   21597       5   21519   21594       5   21516   21588       5   21513
   21582       5   21510   21576       5   21507   21570       5   21504   21564
       5   21501   21558       5   21498   21552       5   21495   21546       5
   21492   21537       5   21489   21531       5   21486   21528       5   21483
   21522       5   21453   21480       5   21444   21471       5   21423   21456
       5   21414   21447       5   21396   21435       5   21393   21426       1
   21393   21429       1   21393   21432       1   21387   21417       5   21381
   21411       5   21378   21405       5   21375   21399       5   21336   21357
       5   21330   21354       5   21324   21348       5   21315   21339       5
   21312   21333       5   21309   21327       5   21306   21321       5   21282
   21294       5   21276   21291       5   21264   21285       5   21261   21279
       5   21258   21267       1   21258   21270       1   21258   21273       1
   22161   22209       1   22161   22212       1   22161   22215       1   22158
   22200       1   22158   22203       1   22158   22206       1   22155   22191
       1   22155   22194       1   22155   22197       1   22152   22182       1
   22152   22185       1   22152   22188       1   22149   22173       1   22149
   22176       1   22149   22179       1   22146   22164       1   22146   22167
       1   22146   22170       1   22068   22125       5   22062   22122       5
   22056   22116       5   22050   22113       5   22044   22107       5   22038
   22104       5   22032   22098       5   22026   22092       5   22023   22089
       5   22017   22086       5   22008   22080       5   22002   22077       5
   21999   22071       5   21996   22065       5   21993   22059       5   21990
   22053       5   21987   22047       5   21984   22041       5   21981   22035
       5   21978   22029       5   21975   22020       5   21972   22014       5
   21969   22011       5   21966   22005       5   21936   21963       5   21927
   21954       5   21906   21939       5   21897   21930       5   21879   21918
       5   21876   21909       1   21876   21912       1   21876   21915       1
   21870   21900       5   21864   21894       5   21861   21888       5   21858
   21882       5   21819   21840       5   21813   21837       5   21807   21831
       5   21798   21822       5   21795   21816       5   21792   21810       5
   21789   21804       5   21765   21777       5   21759   21774       5   21747
   21768       5   21744   21762       5   21741   21750       1   21741   21753
       1   21741   21756       1   22644   22692       1   22644   22695       1
   22644   22698       1   22641   22683       1   22641   22686       1   22641
   22689       1   22638   22674       1   22638   22677       1   22638   22680
       1   22635   22665       1   22635   22668       1   22635   22671       1
   22632   22656       1   22632   22659       1   22632   22662       1   22629
   22647       1   22629   22650       1   22629   22653       1   22551   22608
       5   22545   22605       5   22539   22599       5   22533   22596       5
   22527   22590       5   22521   22587       5   22515   22581       5   22509
   22575       5   22506   22572       5   22500   22569       5   22491   22563
       5   22485   22560       5   22482   22554       5   22479   22548       5
   22476   22542       5   22473   22536       5   22470   22530       5   22467
   22524       5   22464   22518       5   22461   22512       5   22458   22503
       5   22455   22497       5   22452   22494       5   22449   22488       5
   22419   22446       5   22410   22437       5   22389   22422       5   22380
   22413       5   22362   22401       5   22359   22392       1   22359   22395
       1   22359   22398       1   22353   22383       5   22347   22377       5
   22344   22371       5   22341   22365       5   22302   22323       5   22296
   22320       5   22290   22314       5   22281   22305       5   22278   22299
       5   22275   22293       5   22272   22287       5   22248   22260       5
   22242   22257       5   22230   22251       5   22227   22245       5   22224
   22233       1   22224   22236       1   22224   22239       1   23127   23175
       1   23127   23178       1   23127   23181       1   23124   23166       1
   23124   23169       1   23124   23172       1   23121   23157       1   23121
   23160       1   23121   23163       1   23118   23148       1   23118   23151
       1   23118   23154       1   23115   23139       1   23115   23142       1
   23115   23145       1   23112   23130       1   23112   23133       1   23112
   23136       1   23034   23091       5   23028   23088       5   23022   23082
       5   23016   23079       5   23010   23073       5   23004   23070       5
   22998   23064       5   22992   23058       5   22989   23055       5   22983
   23052       5   22974   23046       5   22968   23043       5   22965   23037
       5   22962   23031       5   22959   23025       5   22956   23019       5
   22953   23013       5   22950   23007       5   22947   23001       5   22944
   22995       5   22941   22986       5   22938   22980       5   22935   22977
       5   22932   22971       5   22902   22929       5   22893   22920       5
   22872   22905       5   22863   22896       5   22845   22884       5   22842
   22875       1   22842   22878       1   22842   22881       1   22836   22866
       5   22830   22860       5   22827   22854       5   22824   22848       5
   22785   22806       5   22779   22803       5   22773   22797       5   22764
   22788       5   22761   22782       5   22758   22776       5   22755   22770
       5   22731   22743       5   22725   22740       5   22713   22734       5
   22710   22728       5   22707   22716       1   22707   22719       1   22707
   22722       1   23610   23658       1   23610   23661       1   23610   23664
       1   23607   23649       1   23607   23652       1   23607   23655       1
   23604   23640       1   23604   23643       1   23604   23646       1   23601
   23631       1   23601   23634       1   23601   23637       1   23598   23622
       1   23598   23625       1   23598   23628       1   23595   23613       1
   23595   23616       1   23595   23619       1   23517   23574       5   23511
   23571       5   23505   23565       5   23499   23562       5   23493   23556
       5   23487   23553       5   23481   23547       5   23475   23541       5
   23472   23538       5   23466   23535       5   23457   23529       5   23451
   23526       5   23448   23520       5   23445   23514       5   23442   23508
       5   23439   23502       5   23436   23496       5   23433   23490       5
   23430   23484       5   23427   23478       5   23424   23469       5   23421
   23463       5   23418   23460       5   23415   23454       5   23385   23412
       5   23376   23403       5   23355   23388       5   23346   23379       5
   23328   23367       5   23325   23358       1   23325   23361       1   23325
   23364       1   23319   23349       5   23313   23343       5   23310   23337
       5   23307   23331       5   23268   23289       5   23262   23286       5
   23256   23280       5   23247   23271       5   23244   23265       5   23241
   23259       5   23238   23253       5   23214   23226       5   23208   23223
       5   23196   23217       5   23193   23211       5   23190   23199       1
   23190   23202       1   23190   23205       1   24093   24141       1   24093
   24144       1   24093   24147       1   24090   24132       1   24090   24135
       1   24090   24138       1   24087   24123       1   24087   24126       1
   24087   24129       1   24084   24114       1   24084   24117       1   24084
   24120       1   24081   24105       1   24081   24108       1   24081   24111
       1   24078   24096       1   24078   24099       1   24078   24102       1
   24000   24057       5   23994   24054       5   23988   24048       5   23982
   24045       5   23976   24039       5   23970   24036       5   23964   24030
       5   23958   24024       5   23955   24021       5   23949   24018       5
   23940   24012       5   23934   24009       5   23931   24003       5   23928
   23997       5   23925   23991       5   23922   23985       5   23919   23979
       5   23916   23973       5   23913   23967       5   23910   23961       5
   23907   23952       5   23904   23946       5   23901   23943       5   23898
   23937       5   23868   23895       5   23859   23886       5   23838   23871
       5   23829   23862       5   23811   23850       5   23808   23841       1
   23808   23844       1   23808   23847       1   23802   23832       5   23796
   23826       5   23793   23820       5   23790   23814       5   23751   23772
       5   23745   23769       5   23739   23763       5   23730   23754       5
   23727   23748       5   23724   23742       5   23721   23736       5   23697
   23709       5   23691   23706       5   23679   23700       5   23676   23694
       5   23673   23682       1   23673   23685       1   23673   23688       1
   24576   24624       1   24576   24627       1   24576   24630       1   24573
   24615       1   24573   24618       1   24573   24621       1   24570   24606
       1   24570   24609       1   24570   24612       1   24567   24597       1
   24567   24600       1   24567   24603       1   24564   24588       1   24564
   24591       1   24564   24594       1   24561   24579       1   24561   24582
       1   24561   24585       1   24483   24540       5   24477   24537       5
   24471   24531       5   24465   24528       5   24459   24522       5   24453
   24519       5   24447   24513       5   24441   24507       5   24438   24504
       5   24432   24501       5   24423   24495       5   24417   24492       5
   24414   24486       5   24411   24480       5   24408   24474       5   24405
   24468       5   24402   24462       5   24399   24456       5   24396   24450
       5   24393   24444       5   24390   24435       5   24387   24429       5
   24384   24426       5   24381   24420       5   24351   24378       5   24342
   24369       5   24321   24354       5   24312   24345       5   24294   24333
       5   24291   24324       1   24291   24327       1   24291   24330       1
   24285   24315       5   24279   24309       5   24276   24303       5   24273
   24297       5   24234   24255       5   24228   24252       5   24222   24246
       5   24213   24237       5   24210   24231       5   24207   24225       5
   24204   24219       5   24180   24192       5   24174   24189       5   24162
   24183       5   24159   24177       5   24156   24165       1   24156   24168
       1   24156   24171       1   25059   25107       1   25059   25110       1
   25059   25113       1   25056   25098       1   25056   25101       1   25056
   25104       1   25053   25089       1   25053   25092       1   25053   25095
       1   25050   25080       1   25050   25083       1   25050   25086       1
   25047   25071       1   25047   25074       1   25047   25077       1   25044
   25062       1   25044   25065       1   25044   25068       1   24966   25023
       5   24960   25020       5   24954   25014       5   24948   25011       5
   24942   25005       5   24936   25002       5   24930   24996       5   24924
   24990       5   24921   24987       5   24915   24984       5   24906   24978
       5   24900   24975       5   24897   24969       5   24894   24963       5
   24891   24957       5   24888   24951       5   24885   24945       5   24882
   24939       5   24879   24933       5   24876   24927       5   24873   24918
       5   24870   24912       5   24867   24909       5   24864   24903       5
   24834   24861       5   24825   24852       5   24804   24837       5   24795
   24828       5   24777   24816       5   24774   24807       1   24774   24810
       1   24774   24813       1   24768   24798       5   24762   24792       5
   24759   24786       5   24756   24780       5   24717   24738       5   24711
   24735       5   24705   24729       5   24696   24720       5   24693   24714
       5   24690   24708       5   24687   24702       5   24663   24675       5
   24657   24672       5   24645   24666       5   24642   24660       5   24639
   24648       1   24639   24651       1   24639   24654       1   25542   25590
       1   25542   25593       1   25542   25596       1   25539   25581       1
   25539   25584       1   25539   25587       1   25536   25572       1   25536
   25575       1   25536   25578       1   25533   25563       1   25533   25566
       1   25533   25569       1   25530   25554       1   25530   25557       1
   25530   25560       1   25527   25545       1   25527   25548       1   25527
   25551       1   25449   25506       5   25443   25503       5   25437   25497
       5   25431   25494       5   25425   25488       5   25419   25485       5
   25413   25479       5   25407   25473       5   25404   25470       5   25398
   25467       5   25389   25461       5   25383   25458       5   25380   25452
       5   25377   25446       5   25374   25440       5   25371   25434       5
   25368   25428       5   25365   25422       5   25362   25416       5   25359
   25410       5   25356   25401       5   25353   25395       5   25350   25392
       5   25347   25386       5   25317   25344       5   25308   25335       5
   25287   25320       5   25278   25311       5   25260   25299       5   25257
   25290       1   25257   25293       1   25257   25296       1   25251   25281
       5   25245   25275       5   25242   25269       5   25239   25263       5
   25200   25221       5   25194   25218       5   25188   25212       5   25179
   25203       5   25176   25197       5   25173   25191       5   25170   25185
       5   25146   25158       5   25140   25155       5   25128   25149       5
   25125   25143       5   25122   25131       1   25122   25134       1   25122
   25137       1   26025   26073       1   26025   26076       1   26025   26079
       1   26022   26064       1   26022   26067       1   26022   26070       1
   26019   26055       1   26019   26058       1   26019   26061       1   26016
   26046       1   26016   26049       1   26016   26052       1   26013   26037
       1   26013   26040       1   26013   26043       1   26010   26028       1
   26010   26031       1   26010   26034       1   25932   25989       5   25926
   25986       5   25920   25980       5   25914   25977       5   25908   25971
       5   25902   25968       5   25896   25962       5   25890   25956       5
   25887   25953       5   25881   25950       5   25872   25944       5   25866
   25941       5   25863   25935       5   25860   25929       5   25857   25923
       5   25854   25917       5   25851   25911       5   25848   25905       5
   25845   25899       5   25842   25893       5   25839   25884       5   25836
   25878       5   25833   25875       5   25830   25869       5   25800   25827
       5   25791   25818       5   25770   25803       5   25761   25794       5
   25743   25782       5   25740   25773       1   25740   25776       1   25740
   25779       1   25734   25764       5   25728   25758       5   25725   25752
       5   25722   25746       5   25683   25704       5   25677   25701       5
   25671   25695       5   25662   25686       5   25659   25680       5   25656
   25674       5   25653   25668       5   25629   25641       5   25623   25638
       5   25611   25632       5   25608   25626       5   25605   25614       1
   25605   25617       1   25605   25620       1   26508   26556       1   26508
   26559       1   26508   26562       1   26505   26547       1   26505   26550
       1   26505   26553       1   26502   26538       1   26502   26541       1
   26502   26544       1   26499   26529       1   26499   26532       1   26499
   26535       1   26496   26520       1   26496   26523       1   26496   26526
       1   26493   26511       1   26493   26514       1   26493   26517       1
   26415   26472       5   26409   26469       5   26403   26463       5   26397
   26460       5   26391   26454       5   26385   26451       5   26379   26445
       5   26373   26439       5   26370   26436       5   26364   26433       5
   26355   26427       5   26349   26424       5   26346   26418       5   26343
   26412       5   26340   26406       5   26337   26400       5   26334   26394
       5   26331   26388       5   26328   26382       5   26325   26376       5
   26322   26367       5   26319   26361       5   26316   26358       5   26313
   26352       5   26283   26310       5   26274   26301       5   26253   26286
       5   26244   26277       5   26226   26265       5   26223   26256       1
   26223   26259       1   26223   26262       1   26217   26247       5   26211
   26241       5   26208   26235       5   26205   26229       5   26166   26187
       5   26160   26184       5   26154   26178       5   26145   26169       5
   26142   26163       5   26139   26157       5   26136   26151       5   26112
   26124       5   26106   26121       5   26094   26115       5   26091   26109
       5   26088   26097       1   26088   26100       1   26088   26103       1
   26991   27039       1   26991   27042       1   26991   27045       1   26988
   27030       1   26988   27033       1   26988   27036       1   26985   27021
       1   26985   27024       1   26985   27027       1   26982   27012       1
   26982   27015       1   26982   27018       1   26979   27003       1   26979
   27006       1   26979   27009       1   26976   26994       1   26976   26997
       1   26976   27000       1   26898   26955       5   26892   26952       5
   26886   26946       5   26880   26943       5   26874   26937       5   26868
   26934       5   26862   26928       5   26856   26922       5   26853   26919
       5   26847   26916       5   26838   26910       5   26832   26907       5
   26829   26901       5   26826   26895       5   26823   26889       5   26820
   26883       5   26817   26877       5   26814   26871       5   26811   26865
       5   26808   26859       5   26805   26850       5   26802   26844       5
   26799   26841       5   26796   26835       5   26766   26793       5   26757
   26784       5   26736   26769       5   26727   26760       5   26709   26748
       5   26706   26739       1   26706   26742       1   26706   26745       1
   26700   26730       5   26694   26724       5   26691   26718       5   26688
   26712       5   26649   26670       5   26643   26667       5   26637   26661
       5   26628   26652       5   26625   26646       5   26622   26640       5
   26619   26634       5   26595   26607       5   26589   26604       5   26577
   26598       5   26574   26592       5   26571   26580       1   26571   26583
       1   26571   26586       1   27474   27522       1   27474   27525       1
   27474   27528       1   27471   27513       1   27471   27516       1   27471
   27519       1   27468   27504       1   27468   27507       1   27468   27510
       1   27465   27495       1   27465   27498       1   27465   27501       1
   27462   27486       1   27462   27489       1   27462   27492       1   27459
   27477       1   27459   27480       1   27459   27483       1   27381   27438
       5   27375   27435       5   27369   27429       5   27363   27426       5
   27357   27420       5   27351   27417       5   27345   27411       5   27339
   27405       5   27336   27402       5   27330   27399       5   27321   27393
       5   27315   27390       5   27312   27384       5   27309   27378       5
   27306   27372       5   27303   27366       5   27300   27360       5   27297
   27354       5   27294   27348       5   27291   27342       5   27288   27333
       5   27285   27327       5   27282   27324       5   27279   27318       5
   27249   27276       5   27240   27267       5   27219   27252       5   27210
   27243       5   27192   27231       5   27189   27222       1   27189   27225
       1   27189   27228       1   27183   27213       5   27177   27207       5
   27174   27201       5   27171   27195       5   27132   27153       5   27126
   27150       5   27120   27144       5   27111   27135       5   27108   27129
       5   27105   27123       5   27102   27117       5   27078   27090       5
   27072   27087       5   27060   27081       5   27057   27075       5   27054
   27063       1   27054   27066       1   27054   27069       1   27957   28005
       1   27957   28008       1   27957   28011       1   27954   27996       1
   27954   27999       1   27954   28002       1   27951   27987       1   27951
   27990       1   27951   27993       1   27948   27978       1   27948   27981
       1   27948   27984       1   27945   27969       1   27945   27972       1
   27945   27975       1   27942   27960       1   27942   27963       1   27942
   27966       1   27864   27921       5   27858   27918       5   27852   27912
       5   27846   27909       5   27840   27903       5   27834   27900       5
   27828   27894       5   27822   27888       5   27819   27885       5   27813
   27882       5   27804   27876       5   27798   27873       5   27795   27867
       5   27792   27861       5   27789   27855       5   27786   27849       5
   27783   27843       5   27780   27837       5   27777   27831       5   27774
   27825       5   27771   27816       5   27768   27810       5   27765   27807
       5   27762   27801       5   27732   27759       5   27723   27750       5
   27702   27735       5   27693   27726       5   27675   27714       5   27672
   27705       1   27672   27708       1   27672   27711       1   27666   27696
       5   27660   27690       5   27657   27684       5   27654   27678       5
   27615   27636       5   27609   27633       5   27603   27627       5   27594
   27618       5   27591   27612       5   27588   27606       5   27585   27600
       5   27561   27573       5   27555   27570       5   27543   27564       5
   27540   27558       5   27537   27546       1   27537   27549       1   27537
   27552       1   28440   28488       1   28440   28491       1   28440   28494
       1   28437   28479       1   28437   28482       1   28437   28485       1
   28434   28470       1   28434   28473       1   28434   28476       1   28431
   28461       1   28431   28464       1   28431   28467       1   28428   28452
       1   28428   28455       1   28428   28458       1   28425   28443       1
   28425   28446       1   28425   28449       1   28347   28404       5   28341
   28401       5   28335   28395       5   28329   28392       5   28323   28386
       5   28317   28383       5   28311   28377       5   28305   28371       5
   28302   28368       5   28296   28365       5   28287   28359       5   28281
   28356       5   28278   28350       5   28275   28344       5   28272   28338
       5   28269   28332       5   28266   28326       5   28263   28320       5
   28260   28314       5   28257   28308       5   28254   28299       5   28251
   28293       5   28248   28290       5   28245   28284       5   28215   28242
       5   28206   28233       5   28185   28218       5   28176   28209       5
   28158   28197       5   28155   28188       1   28155   28191       1   28155
   28194       1   28149   28179       5   28143   28173       5   28140   28167
       5   28137   28161       5   28098   28119       5   28092   28116       5
   28086   28110       5   28077   28101       5   28074   28095       5   28071
   28089       5   28068   28083       5   28044   28056       5   28038   28053
       5   28026   28047       5   28023   28041       5   28020   28029       1
   28020   28032       1   28020   28035       1   28923   28971       1   28923
   28974       1   28923   28977       1   28920   28962       1   28920   28965
       1   28920   28968       1   28917   28953       1   28917   28956       1
   28917   28959       1   28914   28944       1   28914   28947       1   28914
   28950       1   28911   28935       1   28911   28938       1   28911   28941
       1   28908   28926       1   28908   28929       1   28908   28932       1
   28830   28887       5   28824   28884       5   28818   28878       5   28812
   28875       5   28806   28869       5   28800   28866       5   28794   28860
       5   28788   28854       5   28785   28851       5   28779   28848       5
   28770   28842       5   28764   28839       5   28761   28833       5   28758
   28827       5   28755   28821       5   28752   28815       5   28749   28809
       5   28746   28803       5   28743   28797       5   28740   28791       5
   28737   28782       5   28734   28776       5   28731   28773       5   28728
   28767       5   28698   28725       5   28689   28716       5   28668   28701
       5   28659   28692       5   28641   28680       5   28638   28671       1
   28638   28674       1   28638   28677       1   28632   28662       5   28626
   28656       5   28623   28650       5   28620   28644       5   28581   28602
       5   28575   28599       5   28569   28593       5   28560   28584       5
   28557   28578       5   28554   28572       5   28551   28566       5   28527
   28539       5   28521   28536       5   28509   28530       5   28506   28524
       5   28503   28512       1   28503   28515       1   28503   28518       1
   29406   29454       1   29406   29457       1   29406   29460       1   29403
   29445       1   29403   29448       1   29403   29451       1   29400   29436
       1   29400   29439       1   29400   29442       1   29397   29427       1
   29397   29430       1   29397   29433       1   29394   29418       1   29394
   29421       1   29394   29424       1   29391   29409       1   29391   29412
       1   29391   29415       1   29313   29370       5   29307   29367       5
   29301   29361       5   29295   29358       5   29289   29352       5   29283
   29349       5   29277   29343       5   29271   29337       5   29268   29334
       5   29262   29331       5   29253   29325       5   29247   29322       5
   29244   29316       5   29241   29310       5   29238   29304       5   29235
   29298       5   29232   29292       5   29229   29286       5   29226   29280
       5   29223   29274       5   29220   29265       5   29217   29259       5
   29214   29256       5   29211   29250       5   29181   29208       5   29172
   29199       5   29151   29184       5   29142   29175       5   29124   29163
       5   29121   29154       1   29121   29157       1   29121   29160       1
   29115   29145       5   29109   29139       5   29106   29133       5   29103
   29127       5   29064   29085       5   29058   29082       5   29052   29076
       5   29043   29067       5   29040   29061       5   29037   29055       5
   29034   29049       5   29010   29022       5   29004   29019       5   28992
   29013       5   28989   29007       5   28986   28995       1   28986   28998
       1   28986   29001       1   29889   29937       1   29889   29940       1
   29889   29943       1   29886   29928       1   29886   29931       1   29886
   29934       1   29883   29919       1   29883   29922       1   29883   29925
       1   29880   29910       1   29880   29913       1   29880   29916       1
   29877   29901       1   29877   29904       1   29877   29907       1   29874
   29892       1   29874   29895       1   29874   29898       1   29796   29853
       5   29790   29850       5   29784   29844       5   29778   29841       5
   29772   29835       5   29766   29832       5   29760   29826       5   29754
   29820       5   29751   29817       5   29745   29814       5   29736   29808
       5   29730   29805       5   29727   29799       5   29724   29793       5
   29721   29787       5   29718   29781       5   29715   29775       5   29712
   29769       5   29709   29763       5   29706   29757       5   29703   29748
       5   29700   29742       5   29697   29739       5   29694   29733       5
   29664   29691       5   29655   29682       5   29634   29667       5   29625
   29658       5   29607   29646       5   29604   29637       1   29604   29640
       1   29604   29643       1   29598   29628       5   29592   29622       5
   29589   29616       5   29586   29610       5   29547   29568       5   29541
   29565       5   29535   29559       5   29526   29550       5   29523   29544
       5   29520   29538       5   29517   29532       5   29493   29505       5
   29487   29502       5   29475   29496       5   29472   29490       5   29469
   29478       1   29469   29481       1   29469   29484       1   30372   30420
       1   30372   30423       1   30372   30426       1   30369   30411       1
   30369   30414       1   30369   30417       1   30366   30402       1   30366
   30405       1   30366   30408       1   30363   30393       1   30363   30396
       1   30363   30399       1   30360   30384       1   30360   30387       1
   30360   30390       1   30357   30375       1   30357   30378       1   30357
   30381       1   30279   30336       5   30273   30333       5   30267   30327
       5   30261   30324       5   30255   30318       5   30249   30315       5
   30243   30309       5   30237   30303       5   30234   30300       5   30228
   30297       5   30219   30291       5   30213   30288       5   30210   30282
       5   30207   30276       5   30204   30270       5   30201   30264       5
   30198   30258       5   30195   30252       5   30192   30246       5   30189
   30240       5   30186   30231       5   30183   30225       5   30180   30222
       5   30177   30216       5   30147   30174       5   30138   30165       5
   30117   30150       5   30108   30141       5   30090   30129       5   30087
   30120       1   30087   30123       1   30087   30126       1   30081   30111
       5   30075   30105       5   30072   30099       5   30069   30093       5
   30030   30051       5   30024   30048       5   30018   30042       5   30009
   30033       5   30006   30027       5   30003   30021       5   30000   30015
       5   29976   29988       5   29970   29985       5   29958   29979       5
   29955   29973       5   29952   29961       1   29952   29964       1   29952
   29967       1   30855   30903       1   30855   30906       1   30855   30909
       1   30852   30894       1   30852   30897       1   30852   30900       1
   30849   30885       1   30849   30888       1   30849   30891       1   30846
   30876       1   30846   30879       1   30846   30882       1   30843   30867
       1   30843   30870       1   30843   30873       1   30840   30858       1
   30840   30861       1   30840   30864       1   30762   30819       5   30756
   30816       5   30750   30810       5   30744   30807       5   30738   30801
       5   30732   30798       5   30726   30792       5   30720   30786       5
   30717   30783       5   30711   30780       5   30702   30774       5   30696
   30771       5   30693   30765       5   30690   30759       5   30687   30753
       5   30684   30747       5   30681   30741       5   30678   30735       5
   30675   30729       5   30672   30723       5   30669   30714       5   30666
   30708       5   30663   30705       5   30660   30699       5   30630   30657
       5   30621   30648       5   30600   30633       5   30591   30624       5
   30573   30612       5   30570   30603       1   30570   30606       1   30570
   30609       1   30564   30594       5   30558   30588       5   30555   30582
       5   30552   30576       5   30513   30534       5   30507   30531       5
   30501   30525       5   30492   30516       5   30489   30510       5   30486
   30504       5   30483   30498       5   30459   30471       5   30453   30468
       5   30441   30462       5   30438   30456       5   30435   30444       1
   30435   30447       1   30435   30450       1   31338   31386       1   31338
   31389       1   31338   31392       1   31335   31377       1   31335   31380
       1   31335   31383       1   31332   31368       1   31332   31371       1
   31332   31374       1   31329   31359       1   31329   31362       1   31329
   31365       1   31326   31350       1   31326   31353       1   31326   31356
       1   31323   31341       1   31323   31344       1   31323   31347       1
   31245   31302       5   31239   31299       5   31233   31293       5   31227
   31290       5   31221   31284       5   31215   31281       5   31209   31275
       5   31203   31269       5   31200   31266       5   31194   31263       5
   31185   31257       5   31179   31254       5   31176   31248       5   31173
   31242       5   31170   31236       5   31167   31230       5   31164   31224
       5   31161   31218       5   31158   31212       5   31155   31206       5
   31152   31197       5   31149   31191       5   31146   31188       5   31143
   31182       5   31113   31140       5   31104   31131       5   31083   31116
       5   31074   31107       5   31056   31095       5   31053   31086       1
   31053   31089       1   31053   31092       1   31047   31077       5   31041
   31071       5   31038   31065       5   31035   31059       5   30996   31017
       5   30990   31014       5   30984   31008       5   30975   30999       5
   30972   30993       5   30969   30987       5   30966   30981       5   30942
   30954       5   30936   30951       5   30924   30945       5   30921   30939
       5   30918   30927       1   30918   30930       1   30918   30933       1
   31821   31869       1   31821   31872       1   31821   31875       1   31818
   31860       1   31818   31863       1   31818   31866       1   31815   31851
       1   31815   31854       1   31815   31857       1   31812   31842       1
   31812   31845       1   31812   31848       1   31809   31833       1   31809
   31836       1   31809   31839       1   31806   31824       1   31806   31827
       1   31806   31830       1   31728   31785       5   31722   31782       5
   31716   31776       5   31710   31773       5   31704   31767       5   31698
   31764       5   31692   31758       5   31686   31752       5   31683   31749
       5   31677   31746       5   31668   31740       5   31662   31737       5
   31659   31731       5   31656   31725       5   31653   31719       5   31650
   31713       5   31647   31707       5   31644   31701       5   31641   31695
       5   31638   31689       5   31635   31680       5   31632   31674       5
   31629   31671       5   31626   31665       5   31596   31623       5   31587
   31614       5   31566   31599       5   31557   31590       5   31539   31578
       5   31536   31569       1   31536   31572       1   31536   31575       1
   31530   31560       5   31524   31554       5   31521   31548       5   31518
   31542       5   31479   31500       5   31473   31497       5   31467   31491
       5   31458   31482       5   31455   31476       5   31452   31470       5
   31449   31464       5   31425   31437       5   31419   31434       5   31407
   31428       5   31404   31422       5   31401   31410       1   31401   31413
       1   31401   31416       1   32304   32352       1   32304   32355       1
   32304   32358       1   32301   32343       1   32301   32346       1   32301
   32349       1   32298   32334       1   32298   32337       1   32298   32340
       1   32295   32325       1   32295   32328       1   32295   32331       1
   32292   32316       1   32292   32319       1   32292   32322       1   32289
   32307       1   32289   32310       1   32289   32313       1   32211   32268
       5   32205   32265       5   32199   32259       5   32193   32256       5
   32187   32250       5   32181   32247       5   32175   32241       5   32169
   32235       5   32166   32232       5   32160   32229       5   32151   32223
       5   32145   32220       5   32142   32214       5   32139   32208       5
   32136   32202       5   32133   32196       5   32130   32190       5   32127
   32184       5   32124   32178       5   32121   32172       5   32118   32163
       5   32115   32157       5   32112   32154       5   32109   32148       5
   32079   32106       5   32070   32097       5   32049   32082       5   32040
   32073       5   32022   32061       5   32019   32052       1   32019   32055
       1   32019   32058       1   32013   32043       5   32007   32037       5
   32004   32031       5   32001   32025       5   31962   31983       5   31956
   31980       5   31950   31974       5   31941   31965       5   31938   31959
       5   31935   31953       5   31932   31947       5   31908   31920       5
   31902   31917       5   31890   31911       5   31887   31905       5   31884
   31893       1   31884   31896       1   31884   31899       1   32787   32835
       1   32787   32838       1   32787   32841       1   32784   32826       1
   32784   32829       1   32784   32832       1   32781   32817       1   32781
   32820       1   32781   32823       1   32778   32808       1   32778   32811
       1   32778   32814       1   32775   32799       1   32775   32802       1
   32775   32805       1   32772   32790       1   32772   32793       1   32772
   32796       1   32694   32751       5   32688   32748       5   32682   32742
       5   32676   32739       5   32670   32733       5   32664   32730       5
   32658   32724       5   32652   32718       5   32649   32715       5   32643
   32712       5   32634   32706       5   32628   32703       5   32625   32697
       5   32622   32691       5   32619   32685       5   32616   32679       5
   32613   32673       5   32610   32667       5   32607   32661       5   32604
   32655       5   32601   32646       5   32598   32640       5   32595   32637
       5   32592   32631       5   32562   32589       5   32553   32580       5
   32532   32565       5   32523   32556       5   32505   32544       5   32502
   32535       1   32502   32538       1   32502   32541       1   32496   32526
       5   32490   32520       5   32487   32514       5   32484   32508       5
   32445   32466       5   32439   32463       5   32433   32457       5   32424
   32448       5   32421   32442       5   32418   32436       5   32415   32430
       5   32391   32403       5   32385   32400       5   32373   32394       5
   32370   32388       5   32367   32376       1   32367   32379       1   32367
   32382       1   33270   33318       1   33270   33321       1   33270   33324
       1   33267   33309       1   33267   33312       1   33267   33315       1
   33264   33300       1   33264   33303       1   33264   33306       1   33261
   33291       1   33261   33294       1   33261   33297       1   33258   33282
       1   33258   33285       1   33258   33288       1   33255   33273       1
   33255   33276       1   33255   33279       1   33177   33234       5   33171
   33231       5   33165   33225       5   33159   33222       5   33153   33216
       5   33147   33213       5   33141   33207       5   33135   33201       5
   33132   33198       5   33126   33195       5   33117   33189       5   33111
   33186       5   33108   33180       5   33105   33174       5   33102   33168
       5   33099   33162       5   33096   33156       5   33093   33150       5
   33090   33144       5   33087   33138       5   33084   33129       5   33081
   33123       5   33078   33120       5   33075   33114       5   33045   33072
       5   33036   33063       5   33015   33048       5   33006   33039       5
   32988   33027       5   32985   33018       1   32985   33021       1   32985
   33024       1   32979   33009       5   32973   33003       5   32970   32997
       5   32967   32991       5   32928   32949       5   32922   32946       5
   32916   32940       5   32907   32931       5   32904   32925       5   32901
   32919       5   32898   32913       5   32874   32886       5   32868   32883
       5   32856   32877       5   32853   32871       5   32850   32859       1
   32850   32862       1   32850   32865       1   33753   33801       1   33753
   33804       1   33753   33807       1   33750   33792       1   33750   33795
       1   33750   33798       1   33747   33783       1   33747   33786       1
   33747   33789       1   33744   33774       1   33744   33777       1   33744
   33780       1   33741   33765       1   33741   33768       1   33741   33771
       1   33738   33756       1   33738   33759       1   33738   33762       1
   33660   33717       5   33654   33714       5   33648   33708       5   33642
   33705       5   33636   33699       5   33630   33696       5   33624   33690
       5   33618   33684       5   33615   33681       5   33609   33678       5
   33600   33672       5   33594   33669       5   33591   33663       5   33588
   33657       5   33585   33651       5   33582   33645       5   33579   33639
       5   33576   33633       5   33573   33627       5   33570   33621       5
   33567   33612       5   33564   33606       5   33561   33603       5   33558
   33597       5   33528   33555       5   33519   33546       5   33498   33531
       5   33489   33522       5   33471   33510       5   33468   33501       1
   33468   33504       1   33468   33507       1   33462   33492       5   33456
   33486       5   33453   33480       5   33450   33474       5   33411   33432
       5   33405   33429       5   33399   33423       5   33390   33414       5
   33387   33408       5   33384   33402       5   33381   33396       5   33357
   33369       5   33351   33366       5   33339   33360       5   33336   33354
       5   33333   33342       1   33333   33345       1   33333   33348       1
   34236   34284       1   34236   34287       1   34236   34290       1   34233
   34275       1   34233   34278       1   34233   34281       1   34230   34266
       1   34230   34269       1   34230   34272       1   34227   34257       1
   34227   34260       1   34227   34263       1   34224   34248       1   34224
   34251       1   34224   34254       1   34221   34239       1   34221   34242
       1   34221   34245       1   34143   34200       5   34137   34197       5
   34131   34191       5   34125   34188       5   34119   34182       5   34113
   34179       5   34107   34173       5   34101   34167       5   34098   34164
       5   34092   34161       5   34083   34155       5   34077   34152       5
   34074   34146       5   34071   34140       5   34068   34134       5   34065
   34128       5   34062   34122       5   34059   34116       5   34056   34110
       5   34053   34104       5   34050   34095       5   34047   34089       5
   34044   34086       5   34041   34080       5   34011   34038       5   34002
   34029       5   33981   34014       5   33972   34005       5   33954   33993
       5   33951   33984       1   33951   33987       1   33951   33990       1
   33945   33975       5   33939   33969       5   33936   33963       5   33933
   33957       5   33894   33915       5   33888   33912       5   33882   33906
       5   33873   33897       5   33870   33891       5   33867   33885       5
   33864   33879       5   33840   33852       5   33834   33849       5   33822
   33843       5   33819   33837       5   33816   33825       1   33816   33828
       1   33816   33831       1   34719   34767       1   34719   34770       1
   34719   34773       1   34716   34758       1   34716   34761       1   34716
   34764       1   34713   34749       1   34713   34752       1   34713   34755
       1   34710   34740       1   34710   34743       1   34710   34746       1
   34707   34731       1   34707   34734       1   34707   34737       1   34704
   34722       1   34704   34725       1   34704   34728       1   34626   34683
       5   34620   34680       5   34614   34674       5   34608   34671       5
   34602   34665       5   34596   34662       5   34590   34656       5   34584
   34650       5   34581   34647       5   34575   34644       5   34566   34638
       5   34560   34635       5   34557   34629       5   34554   34623       5
   34551   34617       5   34548   34611       5   34545   34605       5   34542
   34599       5   34539   34593       5   34536   34587       5   34533   34578
       5   34530   34572       5   34527   34569       5   34524   34563       5
   34494   34521       5   34485   34512       5   34464   34497       5   34455
   34488       5   34437   34476       5   34434   34467       1   34434   34470
       1   34434   34473       1   34428   34458       5   34422   34452       5
   34419   34446       5   34416   34440       5   34377   34398       5   34371
   34395       5   34365   34389       5   34356   34380       5   34353   34374
       5   34350   34368       5   34347   34362       5   34323   34335       5
   34317   34332       5   34305   34326       5   34302   34320       5   34299
   34308       1   34299   34311       1   34299   34314       1   35202   35250
       1   35202   35253       1   35202   35256       1   35199   35241       1
   35199   35244       1   35199   35247       1   35196   35232       1   35196
   35235       1   35196   35238       1   35193   35223       1   35193   35226
       1   35193   35229       1   35190   35214       1   35190   35217       1
   35190   35220       1   35187   35205       1   35187   35208       1   35187
   35211       1   35109   35166       5   35103   35163       5   35097   35157
       5   35091   35154       5   35085   35148       5   35079   35145       5
   35073   35139       5   35067   35133       5   35064   35130       5   35058
   35127       5   35049   35121       5   35043   35118       5   35040   35112
       5   35037   35106       5   35034   35100       5   35031   35094       5
   35028   35088       5   35025   35082       5   35022   35076       5   35019
   35070       5   35016   35061       5   35013   35055       5   35010   35052
       5   35007   35046       5   34977   35004       5   34968   34995       5
   34947   34980       5   34938   34971       5   34920   34959       5   34917
   34950       1   34917   34953       1   34917   34956       1   34911   34941
       5   34905   34935       5   34902   34929       5   34899   34923       5
   34860   34881       5   34854   34878       5   34848   34872       5   34839
   34863       5   34836   34857       5   34833   34851       5   34830   34845
       5   34806   34818       5   34800   34815       5   34788   34809       5
   34785   34803       5   34782   34791       1   34782   34794       1   34782
   34797       1   35685   35733       1   35685   35736       1   35685   35739
       1   35682   35724       1   35682   35727       1   35682   35730       1
   35679   35715       1   35679   35718       1   35679   35721       1   35676
   35706       1   35676   35709       1   35676   35712       1   35673   35697
       1   35673   35700       1   35673   35703       1   35670   35688       1
   35670   35691       1   35670   35694       1   35592   35649       5   35586
   35646       5   35580   35640       5   35574   35637       5   35568   35631
       5   35562   35628       5   35556   35622       5   35550   35616       5
   35547   35613       5   35541   35610       5   35532   35604       5   35526
   35601       5   35523   35595       5   35520   35589       5   35517   35583
       5   35514   35577       5   35511   35571       5   35508   35565       5
   35505   35559       5   35502   35553       5   35499   35544       5   35496
   35538       5   35493   35535       5   35490   35529       5   35460   35487
       5   35451   35478       5   35430   35463       5   35421   35454       5
   35403   35442       5   35400   35433       1   35400   35436       1   35400
   35439       1   35394   35424       5   35388   35418       5   35385   35412
       5   35382   35406       5   35343   35364       5   35337   35361       5
   35331   35355       5   35322   35346       5   35319   35340       5   35316
   35334       5   35313   35328       5   35289   35301       5   35283   35298
       5   35271   35292       5   35268   35286       5   35265   35274       1
   35265   35277       1   35265   35280       1   36168   36216       1   36168
   36219       1   36168   36222       1   36165   36207       1   36165   36210
       1   36165   36213       1   36162   36198       1   36162   36201       1
   36162   36204       1   36159   36189       1   36159   36192       1   36159
   36195       1   36156   36180       1   36156   36183       1   36156   36186
       1   36153   36171       1   36153   36174       1   36153   36177       1
   36075   36132       5   36069   36129       5   36063   36123       5   36057
   36120       5   36051   36114       5   36045   36111       5   36039   36105
       5   36033   36099       5   36030   36096       5   36024   36093       5
   36015   36087       5   36009   36084       5   36006   36078       5   36003
   36072       5   36000   36066       5   35997   36060       5   35994   36054
       5   35991   36048       5   35988   36042       5   35985   36036       5
   35982   36027       5   35979   36021       5   35976   36018       5   35973
   36012       5   35943   35970       5   35934   35961       5   35913   35946
       5   35904   35937       5   35886   35925       5   35883   35916       1
   35883   35919       1   35883   35922       1   35877   35907       5   35871
   35901       5   35868   35895       5   35865   35889       5   35826   35847
       5   35820   35844       5   35814   35838       5   35805   35829       5
   35802   35823       5   35799   35817       5   35796   35811       5   35772
   35784       5   35766   35781       5   35754   35775       5   35751   35769
       5   35748   35757       1   35748   35760       1   35748   35763       1
   36651   36699       1   36651   36702       1   36651   36705       1   36648
   36690       1   36648   36693       1   36648   36696       1   36645   36681
       1   36645   36684       1   36645   36687       1   36642   36672       1
   36642   36675       1   36642   36678       1   36639   36663       1   36639
   36666       1   36639   36669       1   36636   36654       1   36636   36657
       1   36636   36660       1   36558   36615       5   36552   36612       5
   36546   36606       5   36540   36603       5   36534   36597       5   36528
   36594       5   36522   36588       5   36516   36582       5   36513   36579
       5   36507   36576       5   36498   36570       5   36492   36567       5
   36489   36561       5   36486   36555       5   36483   36549       5   36480
   36543       5   36477   36537       5   36474   36531       5   36471   36525
       5   36468   36519       5   36465   36510       5   36462   36504       5
   36459   36501       5   36456   36495       5   36426   36453       5   36417
   36444       5   36396   36429       5   36387   36420       5   36369   36408
       5   36366   36399       1   36366   36402       1   36366   36405       1
   36360   36390       5   36354   36384       5   36351   36378       5   36348
   36372       5   36309   36330       5   36303   36327       5   36297   36321
       5   36288   36312       5   36285   36306       5   36282   36300       5
   36279   36294       5   36255   36267       5   36249   36264       5   36237
   36258       5   36234   36252       5   36231   36240       1   36231   36243
       1   36231   36246       1   37134   37182       1   37134   37185       1
   37134   37188       1   37131   37173       1   37131   37176       1   37131
   37179       1   37128   37164       1   37128   37167       1   37128   37170
       1   37125   37155       1   37125   37158       1   37125   37161       1
   37122   37146       1   37122   37149       1   37122   37152       1   37119
   37137       1   37119   37140       1   37119   37143       1   37041   37098
       5   37035   37095       5   37029   37089       5   37023   37086       5
   37017   37080       5   37011   37077       5   37005   37071       5   36999
   37065       5   36996   37062       5   36990   37059       5   36981   37053
       5   36975   37050       5   36972   37044       5   36969   37038       5
   36966   37032       5   36963   37026       5   36960   37020       5   36957
   37014       5   36954   37008       5   36951   37002       5   36948   36993
       5   36945   36987       5   36942   36984       5   36939   36978       5
   36909   36936       5   36900   36927       5   36879   36912       5   36870
   36903       5   36852   36891       5   36849   36882       1   36849   36885
       1   36849   36888       1   36843   36873       5   36837   36867       5
   36834   36861       5   36831   36855       5   36792   36813       5   36786
   36810       5   36780   36804       5   36771   36795       5   36768   36789
       5   36765   36783       5   36762   36777       5   36738   36750       5
   36732   36747       5   36720   36741       5   36717   36735       5   36714
   36723       1   36714   36726       1   36714   36729       1   37617   37665
       1   37617   37668       1   37617   37671       1   37614   37656       1
   37614   37659       1   37614   37662       1   37611   37647       1   37611
   37650       1   37611   37653       1   37608   37638       1   37608   37641
       1   37608   37644       1   37605   37629       1   37605   37632       1
   37605   37635       1   37602   37620       1   37602   37623       1   37602
   37626       1   37524   37581       5   37518   37578       5   37512   37572
       5   37506   37569       5   37500   37563       5   37494   37560       5
   37488   37554       5   37482   37548       5   37479   37545       5   37473
   37542       5   37464   37536       5   37458   37533       5   37455   37527
       5   37452   37521       5   37449   37515       5   37446   37509       5
   37443   37503       5   37440   37497       5   37437   37491       5   37434
   37485       5   37431   37476       5   37428   37470       5   37425   37467
       5   37422   37461       5   37392   37419       5   37383   37410       5
   37362   37395       5   37353   37386       5   37335   37374       5   37332
   37365       1   37332   37368       1   37332   37371       1   37326   37356
       5   37320   37350       5   37317   37344       5   37314   37338       5
   37275   37296       5   37269   37293       5   37263   37287       5   37254
   37278       5   37251   37272       5   37248   37266       5   37245   37260
       5   37221   37233       5   37215   37230       5   37203   37224       5
   37200   37218       5   37197   37206       1   37197   37209       1   37197
   37212       1   38100   38148       1   38100   38151       1   38100   38154
       1   38097   38139       1   38097   38142       1   38097   38145       1
   38094   38130       1   38094   38133       1   38094   38136       1   38091
   38121       1   38091   38124       1   38091   38127       1   38088   38112
       1   38088   38115       1   38088   38118       1   38085   38103       1
   38085   38106       1   38085   38109       1   38007   38064       5   38001
   38061       5   37995   38055       5   37989   38052       5   37983   38046
       5   37977   38043       5   37971   38037       5   37965   38031       5
   37962   38028       5   37956   38025       5   37947   38019       5   37941
   38016       5   37938   38010       5   37935   38004       5   37932   37998
       5   37929   37992       5   37926   37986       5   37923   37980       5
   37920   37974       5   37917   37968       5   37914   37959       5   37911
   37953       5   37908   37950       5   37905   37944       5   37875   37902
       5   37866   37893       5   37845   37878       5   37836   37869       5
   37818   37857       5   37815   37848       1   37815   37851       1   37815
   37854       1   37809   37839       5   37803   37833       5   37800   37827
       5   37797   37821       5   37758   37779       5   37752   37776       5
   37746   37770       5   37737   37761       5   37734   37755       5   37731
   37749       5   37728   37743       5   37704   37716       5   37698   37713
       5   37686   37707       5   37683   37701       5   37680   37689       1
   37680   37692       1   37680   37695       1   38583   38631       1   38583
   38634       1   38583   38637       1   38580   38622       1   38580   38625
       1   38580   38628       1   38577   38613       1   38577   38616       1
   38577   38619       1   38574   38604       1   38574   38607       1   38574
   38610       1   38571   38595       1   38571   38598       1   38571   38601
       1   38568   38586       1   38568   38589       1   38568   38592       1
   38490   38547       5   38484   38544       5   38478   38538       5   38472
   38535       5   38466   38529       5   38460   38526       5   38454   38520
       5   38448   38514       5   38445   38511       5   38439   38508       5
   38430   38502       5   38424   38499       5   38421   38493       5   38418
   38487       5   38415   38481       5   38412   38475       5   38409   38469
       5   38406   38463       5   38403   38457       5   38400   38451       5
   38397   38442       5   38394   38436       5   38391   38433       5   38388
   38427       5   38358   38385       5   38349   38376       5   38328   38361
       5   38319   38352       5   38301   38340       5   38298   38331       1
   38298   38334       1   38298   38337       1   38292   38322       5   38286
   38316       5   38283   38310       5   38280   38304       5   38241   38262
       5   38235   38259       5   38229   38253       5   38220   38244       5
   38217   38238       5   38214   38232       5   38211   38226       5   38187
   38199       5   38181   38196       5   38169   38190       5   38166   38184
       5   38163   38172       1   38163   38175       1   38163   38178       1
   39066   39114       1   39066   39117       1   39066   39120       1   39063
   39105       1   39063   39108       1   39063   39111       1   39060   39096
       1   39060   39099       1   39060   39102       1   39057   39087       1
   39057   39090       1   39057   39093       1   39054   39078       1   39054
   39081       1   39054   39084       1   39051   39069       1   39051   39072
       1   39051   39075       1   38973   39030       5   38967   39027       5
   38961   39021       5   38955   39018       5   38949   39012       5   38943
   39009       5   38937   39003       5   38931   38997       5   38928   38994
       5   38922   38991       5   38913   38985       5   38907   38982       5
   38904   38976       5   38901   38970       5   38898   38964       5   38895
   38958       5   38892   38952       5   38889   38946       5   38886   38940
       5   38883   38934       5   38880   38925       5   38877   38919       5
   38874   38916       5   38871   38910       5   38841   38868       5   38832
   38859       5   38811   38844       5   38802   38835       5   38784   38823
       5   38781   38814       1   38781   38817       1   38781   38820       1
   38775   38805       5   38769   38799       5   38766   38793       5   38763
   38787       5   38724   38745       5   38718   38742       5   38712   38736
       5   38703   38727       5   38700   38721       5   38697   38715       5
   38694   38709       5   38670   38682       5   38664   38679       5   38652
   38673       5   38649   38667       5   38646   38655       1   38646   38658
       1   38646   38661       1   39549   39597       1   39549   39600       1
   39549   39603       1   39546   39588       1   39546   39591       1   39546
   39594       1   39543   39579       1   39543   39582       1   39543   39585
       1   39540   39570       1   39540   39573       1   39540   39576       1
   39537   39561       1   39537   39564       1   39537   39567       1   39534
   39552       1   39534   39555       1   39534   39558       1   39456   39513
       5   39450   39510       5   39444   39504       5   39438   39501       5
   39432   39495       5   39426   39492       5   39420   39486       5   39414
   39480       5   39411   39477       5   39405   39474       5   39396   39468
       5   39390   39465       5   39387   39459       5   39384   39453       5
   39381   39447       5   39378   39441       5   39375   39435       5   39372
   39429       5   39369   39423       5   39366   39417       5   39363   39408
       5   39360   39402       5   39357   39399       5   39354   39393       5
   39324   39351       5   39315   39342       5   39294   39327       5   39285
   39318       5   39267   39306       5   39264   39297       1   39264   39300
       1   39264   39303       1   39258   39288       5   39252   39282       5
   39249   39276       5   39246   39270       5   39207   39228       5   39201
   39225       5   39195   39219       5   39186   39210       5   39183   39204
       5   39180   39198       5   39177   39192       5   39153   39165       5
   39147   39162       5   39135   39156       5   39132   39150       5   39129
   39138       1   39129   39141       1   39129   39144       1   40032   40080
       1   40032   40083       1   40032   40086       1   40029   40071       1
   40029   40074       1   40029   40077       1   40026   40062       1   40026
   40065       1   40026   40068       1   40023   40053       1   40023   40056
       1   40023   40059       1   40020   40044       1   40020   40047       1
   40020   40050       1   40017   40035       1   40017   40038       1   40017
   40041       1   39939   39996       5   39933   39993       5   39927   39987
       5   39921   39984       5   39915   39978       5   39909   39975       5
   39903   39969       5   39897   39963       5   39894   39960       5   39888
   39957       5   39879   39951       5   39873   39948       5   39870   39942
       5   39867   39936       5   39864   39930       5   39861   39924       5
   39858   39918       5   39855   39912       5   39852   39906       5   39849
   39900       5   39846   39891       5   39843   39885       5   39840   39882
       5   39837   39876       5   39807   39834       5   39798   39825       5
   39777   39810       5   39768   39801       5   39750   39789       5   39747
   39780       1   39747   39783       1   39747   39786       1   39741   39771
       5   39735   39765       5   39732   39759       5   39729   39753       5
   39690   39711       5   39684   39708       5   39678   39702       5   39669
   39693       5   39666   39687       5   39663   39681       5   39660   39675
       5   39636   39648       5   39630   39645       5   39618   39639       5
   39615   39633       5   39612   39621       1   39612   39624       1   39612
   39627       1   40515   40563       1   40515   40566       1   40515   40569
       1   40512   40554       1   40512   40557       1   40512   40560       1
   40509   40545       1   40509   40548       1   40509   40551       1   40506
   40536       1   40506   40539       1   40506   40542       1   40503   40527
       1   40503   40530       1   40503   40533       1   40500   40518       1
   40500   40521       1   40500   40524       1   40422   40479       5   40416
   40476       5   40410   40470       5   40404   40467       5   40398   40461
       5   40392   40458       5   40386   40452       5   40380   40446       5
   40377   40443       5   40371   40440       5   40362   40434       5   40356
   40431       5   40353   40425       5   40350   40419       5   40347   40413
       5   40344   40407       5   40341   40401       5   40338   40395       5
   40335   40389       5   40332   40383       5   40329   40374       5   40326
   40368       5   40323   40365       5   40320   40359       5   40290   40317
       5   40281   40308       5   40260   40293       5   40251   40284       5
   40233   40272       5   40230   40263       1   40230   40266       1   40230
   40269       1   40224   40254       5   40218   40248       5   40215   40242
       5   40212   40236       5   40173   40194       5   40167   40191       5
   40161   40185       5   40152   40176       5   40149   40170       5   40146
   40164       5   40143   40158       5   40119   40131       5   40113   40128
       5   40101   40122       5   40098   40116       5   40095   40104       1
   40095   40107       1   40095   40110       1   40998   41046       1   40998
   41049       1   40998   41052       1   40995   41037       1   40995   41040
       1   40995   41043       1   40992   41028       1   40992   41031       1
   40992   41034       1   40989   41019       1   40989   41022       1   40989
   41025       1   40986   41010       1   40986   41013       1   40986   41016
       1   40983   41001       1   40983   41004       1   40983   41007       1
   40905   40962       5   40899   40959       5   40893   40953       5   40887
   40950       5   40881   40944       5   40875   40941       5   40869   40935
       5   40863   40929       5   40860   40926       5   40854   40923       5
   40845   40917       5   40839   40914       5   40836   40908       5   40833
   40902       5   40830   40896       5   40827   40890       5   40824   40884
       5   40821   40878       5   40818   40872       5   40815   40866       5
   40812   40857       5   40809   40851       5   40806   40848       5   40803
   40842       5   40773   40800       5   40764   40791       5   40743   40776
       5   40734   40767       5   40716   40755       5   40713   40746       1
   40713   40749       1   40713   40752       1   40707   40737       5   40701
   40731       5   40698   40725       5   40695   40719       5   40656   40677
       5   40650   40674       5   40644   40668       5   40635   40659       5
   40632   40653       5   40629   40647       5   40626   40641       5   40602
   40614       5   40596   40611       5   40584   40605       5   40581   40599
       5   40578   40587       1   40578   40590       1   40578   40593       1
   41481   41529       1   41481   41532       1   41481   41535       1   41478
   41520       1   41478   41523       1   41478   41526       1   41475   41511
       1   41475   41514       1   41475   41517       1   41472   41502       1
   41472   41505       1   41472   41508       1   41469   41493       1   41469
   41496       1   41469   41499       1   41466   41484       1   41466   41487
       1   41466   41490       1   41388   41445       5   41382   41442       5
   41376   41436       5   41370   41433       5   41364   41427       5   41358
   41424       5   41352   41418       5   41346   41412       5   41343   41409
       5   41337   41406       5   41328   41400       5   41322   41397       5
   41319   41391       5   41316   41385       5   41313   41379       5   41310
   41373       5   41307   41367       5   41304   41361       5   41301   41355
       5   41298   41349       5   41295   41340       5   41292   41334       5
   41289   41331       5   41286   41325       5   41256   41283       5   41247
   41274       5   41226   41259       5   41217   41250       5   41199   41238
       5   41196   41229       1   41196   41232       1   41196   41235       1
   41190   41220       5   41184   41214       5   41181   41208       5   41178
   41202       5   41139   41160       5   41133   41157       5   41127   41151
       5   41118   41142       5   41115   41136       5   41112   41130       5
   41109   41124       5   41085   41097       5   41079   41094       5   41067
   41088       5   41064   41082       5   41061   41070       1   41061   41073
       1   41061   41076       1   41964   42012       1   41964   42015       1
   41964   42018       1   41961   42003       1   41961   42006       1   41961
   42009       1   41958   41994       1   41958   41997       1   41958   42000
       1   41955   41985       1   41955   41988       1   41955   41991       1
   41952   41976       1   41952   41979       1   41952   41982       1   41949
   41967       1   41949   41970       1   41949   41973       1   41871   41928
       5   41865   41925       5   41859   41919       5   41853   41916       5
   41847   41910       5   41841   41907       5   41835   41901       5   41829
   41895       5   41826   41892       5   41820   41889       5   41811   41883
       5   41805   41880       5   41802   41874       5   41799   41868       5
   41796   41862       5   41793   41856       5   41790   41850       5   41787
   41844       5   41784   41838       5   41781   41832       5   41778   41823
       5   41775   41817       5   41772   41814       5   41769   41808       5
   41739   41766       5   41730   41757       5   41709   41742       5   41700
   41733       5   41682   41721       5   41679   41712       1   41679   41715
       1   41679   41718       1   41673   41703       5   41667   41697       5
   41664   41691       5   41661   41685       5   41622   41643       5   41616
   41640       5   41610   41634       5   41601   41625       5   41598   41619
       5   41595   41613       5   41592   41607       5   41568   41580       5
   41562   41577       5   41550   41571       5   41547   41565       5   41544
   41553       1   41544   41556       1   41544   41559       1   42447   42495
       1   42447   42498       1   42447   42501       1   42444   42486       1
   42444   42489       1   42444   42492       1   42441   42477       1   42441
   42480       1   42441   42483       1   42438   42468       1   42438   42471
       1   42438   42474       1   42435   42459       1   42435   42462       1
   42435   42465       1   42432   42450       1   42432   42453       1   42432
   42456       1   42354   42411       5   42348   42408       5   42342   42402
       5   42336   42399       5   42330   42393       5   42324   42390       5
   42318   42384       5   42312   42378       5   42309   42375       5   42303
   42372       5   42294   42366       5   42288   42363       5   42285   42357
       5   42282   42351       5   42279   42345       5   42276   42339       5
   42273   42333       5   42270   42327       5   42267   42321       5   42264
   42315       5   42261   42306       5   42258   42300       5   42255   42297
       5   42252   42291       5   42222   42249       5   42213   42240       5
   42192   42225       5   42183   42216       5   42165   42204       5   42162
   42195       1   42162   42198       1   42162   42201       1   42156   42186
       5   42150   42180       5   42147   42174       5   42144   42168       5
   42105   42126       5   42099   42123       5   42093   42117       5   42084
   42108       5   42081   42102       5   42078   42096       5   42075   42090
       5   42051   42063       5   42045   42060       5   42033   42054       5
   42030   42048       5   42027   42036       1   42027   42039       1   42027
   42042       1   42930   42978       1   42930   42981       1   42930   42984
       1   42927   42969       1   42927   42972       1   42927   42975       1
   42924   42960       1   42924   42963       1   42924   42966       1   42921
   42951       1   42921   42954       1   42921   42957       1   42918   42942
       1   42918   42945       1   42918   42948       1   42915   42933       1
   42915   42936       1   42915   42939       1   42837   42894       5   42831
   42891       5   42825   42885       5   42819   42882       5   42813   42876
       5   42807   42873       5   42801   42867       5   42795   42861       5
   42792   42858       5   42786   42855       5   42777   42849       5   42771
   42846       5   42768   42840       5   42765   42834       5   42762   42828
       5   42759   42822       5   42756   42816       5   42753   42810       5
   42750   42804       5   42747   42798       5   42744   42789       5   42741
   42783       5   42738   42780       5   42735   42774       5   42705   42732
       5   42696   42723       5   42675   42708       5   42666   42699       5
   42648   42687       5   42645   42678       1   42645   42681       1   42645
   42684       1   42639   42669       5   42633   42663       5   42630   42657
       5   42627   42651       5   42588   42609       5   42582   42606       5
   42576   42600       5   42567   42591       5   42564   42585       5   42561
   42579       5   42558   42573       5   42534   42546       5   42528   42543
       5   42516   42537       5   42513   42531       5   42510   42519       1
   42510   42522       1   42510   42525       1   43413   43461       1   43413
   43464       1   43413   43467       1   43410   43452       1   43410   43455
       1   43410   43458       1   43407   43443       1   43407   43446       1
   43407   43449       1   43404   43434       1   43404   43437       1   43404
   43440       1   43401   43425       1   43401   43428       1   43401   43431
       1   43398   43416       1   43398   43419       1   43398   43422       1
   43320   43377       5   43314   43374       5   43308   43368       5   43302
   43365       5   43296   43359       5   43290   43356       5   43284   43350
       5   43278   43344       5   43275   43341       5   43269   43338       5
   43260   43332       5   43254   43329       5   43251   43323       5   43248
   43317       5   43245   43311       5   43242   43305       5   43239   43299
       5   43236   43293       5   43233   43287       5   43230   43281       5
   43227   43272       5   43224   43266       5   43221   43263       5   43218
   43257       5   43188   43215       5   43179   43206       5   43158   43191
       5   43149   43182       5   43131   43170       5   43128   43161       1
   43128   43164       1   43128   43167       1   43122   43152       5   43116
   43146       5   43113   43140       5   43110   43134       5   43071   43092
       5   43065   43089       5   43059   43083       5   43050   43074       5
   43047   43068       5   43044   43062       5   43041   43056       5   43017
   43029       5   43011   43026       5   42999   43020       5   42996   43014
       5   42993   43002       1   42993   43005       1   42993   43008       1
   43896   43944       1   43896   43947       1   43896   43950       1   43893
   43935       1   43893   43938       1   43893   43941       1   43890   43926
       1   43890   43929       1   43890   43932       1   43887   43917       1
   43887   43920       1   43887   43923       1   43884   43908       1   43884
   43911       1   43884   43914       1   43881   43899       1   43881   43902
       1   43881   43905       1   43803   43860       5   43797   43857       5
   43791   43851       5   43785   43848       5   43779   43842       5   43773
   43839       5   43767   43833       5   43761   43827       5   43758   43824
       5   43752   43821       5   43743   43815       5   43737   43812       5
   43734   43806       5   43731   43800       5   43728   43794       5   43725
   43788       5   43722   43782       5   43719   43776       5   43716   43770
       5   43713   43764       5   43710   43755       5   43707   43749       5
   43704   43746       5   43701   43740       5   43671   43698       5   43662
   43689       5   43641   43674       5   43632   43665       5   43614   43653
       5   43611   43644       1   43611   43647       1   43611   43650       1
   43605   43635       5   43599   43629       5   43596   43623       5   43593
   43617       5   43554   43575       5   43548   43572       5   43542   43566
       5   43533   43557       5   43530   43551       5   43527   43545       5
   43524   43539       5   43500   43512       5   43494   43509       5   43482
   43503       5   43479   43497       5   43476   43485       1   43476   43488
       1   43476   43491       1   44379   44427       1   44379   44430       1
   44379   44433       1   44376   44418       1   44376   44421       1   44376
   44424       1   44373   44409       1   44373   44412       1   44373   44415
       1   44370   44400       1   44370   44403       1   44370   44406       1
   44367   44391       1   44367   44394       1   44367   44397       1   44364
   44382       1   44364   44385       1   44364   44388       1   44286   44343
       5   44280   44340       5   44274   44334       5   44268   44331       5
   44262   44325       5   44256   44322       5   44250   44316       5   44244
   44310       5   44241   44307       5   44235   44304       5   44226   44298
       5   44220   44295       5   44217   44289       5   44214   44283       5
   44211   44277       5   44208   44271       5   44205   44265       5   44202
   44259       5   44199   44253       5   44196   44247       5   44193   44238
       5   44190   44232       5   44187   44229       5   44184   44223       5
   44154   44181       5   44145   44172       5   44124   44157       5   44115
   44148       5   44097   44136       5   44094   44127       1   44094   44130
       1   44094   44133       1   44088   44118       5   44082   44112       5
   44079   44106       5   44076   44100       5   44037   44058       5   44031
   44055       5   44025   44049       5   44016   44040       5   44013   44034
       5   44010   44028       5   44007   44022       5   43983   43995       5
   43977   43992       5   43965   43986       5   43962   43980       5   43959
   43968       1   43959   43971       1   43959   43974       1   44862   44910
       1   44862   44913       1   44862   44916       1   44859   44901       1
   44859   44904       1   44859   44907       1   44856   44892       1   44856
   44895       1   44856   44898       1   44853   44883       1   44853   44886
       1   44853   44889       1   44850   44874       1   44850   44877       1
   44850   44880       1   44847   44865       1   44847   44868       1   44847
   44871       1   44769   44826       5   44763   44823       5   44757   44817
       5   44751   44814       5   44745   44808       5   44739   44805       5
   44733   44799       5   44727   44793       5   44724   44790       5   44718
   44787       5   44709   44781       5   44703   44778       5   44700   44772
       5   44697   44766       5   44694   44760       5   44691   44754       5
   44688   44748       5   44685   44742       5   44682   44736       5   44679
   44730       5   44676   44721       5   44673   44715       5   44670   44712
       5   44667   44706       5   44637   44664       5   44628   44655       5
   44607   44640       5   44598   44631       5   44580   44619       5   44577
   44610       1   44577   44613       1   44577   44616       1   44571   44601
       5   44565   44595       5   44562   44589       5   44559   44583       5
   44520   44541       5   44514   44538       5   44508   44532       5   44499
   44523       5   44496   44517       5   44493   44511       5   44490   44505
       5   44466   44478       5   44460   44475       5   44448   44469       5
   44445   44463       5   44442   44451       1   44442   44454       1   44442
   44457       1   45345   45393       1   45345   45396       1   45345   45399
       1   45342   45384       1   45342   45387       1   45342   45390       1
   45339   45375       1   45339   45378       1   45339   45381       1   45336
   45366       1   45336   45369       1   45336   45372       1   45333   45357
       1   45333   45360       1   45333   45363       1   45330   45348       1
   45330   45351       1   45330   45354       1   45252   45309       5   45246
   45306       5   45240   45300       5   45234   45297       5   45228   45291
       5   45222   45288       5   45216   45282       5   45210   45276       5
   45207   45273       5   45201   45270       5   45192   45264       5   45186
   45261       5   45183   45255       5   45180   45249       5   45177   45243
       5   45174   45237       5   45171   45231       5   45168   45225       5
   45165   45219       5   45162   45213       5   45159   45204       5   45156
   45198       5   45153   45195       5   45150   45189       5   45120   45147
       5   45111   45138       5   45090   45123       5   45081   45114       5
   45063   45102       5   45060   45093       1   45060   45096       1   45060
   45099       1   45054   45084       5   45048   45078       5   45045   45072
       5   45042   45066       5   45003   45024       5   44997   45021       5
   44991   45015       5   44982   45006       5   44979   45000       5   44976
   44994       5   44973   44988       5   44949   44961       5   44943   44958
       5   44931   44952       5   44928   44946       5   44925   44934       1
   44925   44937       1   44925   44940       1   45828   45876       1   45828
   45879       1   45828   45882       1   45825   45867       1   45825   45870
       1   45825   45873       1   45822   45858       1   45822   45861       1
   45822   45864       1   45819   45849       1   45819   45852       1   45819
   45855       1   45816   45840       1   45816   45843       1   45816   45846
       1   45813   45831       1   45813   45834       1   45813   45837       1
   45735   45792       5   45729   45789       5   45723   45783       5   45717
   45780       5   45711   45774       5   45705   45771       5   45699   45765
       5   45693   45759       5   45690   45756       5   45684   45753       5
   45675   45747       5   45669   45744       5   45666   45738       5   45663
   45732       5   45660   45726       5   45657   45720       5   45654   45714
       5   45651   45708       5   45648   45702       5   45645   45696       5
   45642   45687       5   45639   45681       5   45636   45678       5   45633
   45672       5   45603   45630       5   45594   45621       5   45573   45606
       5   45564   45597       5   45546   45585       5   45543   45576       1
   45543   45579       1   45543   45582       1   45537   45567       5   45531
   45561       5   45528   45555       5   45525   45549       5   45486   45507
       5   45480   45504       5   45474   45498       5   45465   45489       5
   45462   45483       5   45459   45477       5   45456   45471       5   45432
   45444       5   45426   45441       5   45414   45435       5   45411   45429
       5   45408   45417       1   45408   45420       1   45408   45423       1
   46311   46359       1   46311   46362       1   46311   46365       1   46308
   46350       1   46308   46353       1   46308   46356       1   46305   46341
       1   46305   46344       1   46305   46347       1   46302   46332       1
   46302   46335       1   46302   46338       1   46299   46323       1   46299
   46326       1   46299   46329       1   46296   46314       1   46296   46317
       1   46296   46320       1   46218   46275       5   46212   46272       5
   46206   46266       5   46200   46263       5   46194   46257       5   46188
   46254       5   46182   46248       5   46176   46242       5   46173   46239
       5   46167   46236       5   46158   46230       5   46152   46227       5
   46149   46221       5   46146   46215       5   46143   46209       5   46140
   46203       5   46137   46197       5   46134   46191       5   46131   46185
       5   46128   46179       5   46125   46170       5   46122   46164       5
   46119   46161       5   46116   46155       5   46086   46113       5   46077
   46104       5   46056   46089       5   46047   46080       5   46029   46068
       5   46026   46059       1   46026   46062       1   46026   46065       1
   46020   46050       5   46014   46044       5   46011   46038       5   46008
   46032       5   45969   45990       5   45963   45987       5   45957   45981
       5   45948   45972       5   45945   45966       5   45942   45960       5
   45939   45954       5   45915   45927       5   45909   45924       5   45897
   45918       5   45894   45912       5   45891   45900       1   45891   45903
       1   45891   45906       1   46794   46842       1   46794   46845       1
   46794   46848       1   46791   46833       1   46791   46836       1   46791
   46839       1   46788   46824       1   46788   46827       1   46788   46830
       1   46785   46815       1   46785   46818       1   46785   46821       1
   46782   46806       1   46782   46809       1   46782   46812       1   46779
   46797       1   46779   46800       1   46779   46803       1   46701   46758
       5   46695   46755       5   46689   46749       5   46683   46746       5
   46677   46740       5   46671   46737       5   46665   46731       5   46659
   46725       5   46656   46722       5   46650   46719       5   46641   46713
       5   46635   46710       5   46632   46704       5   46629   46698       5
   46626   46692       5   46623   46686       5   46620   46680       5   46617
   46674       5   46614   46668       5   46611   46662       5   46608   46653
       5   46605   46647       5   46602   46644       5   46599   46638       5
   46569   46596       5   46560   46587       5   46539   46572       5   46530
   46563       5   46512   46551       5   46509   46542       1   46509   46545
       1   46509   46548       1   46503   46533       5   46497   46527       5
   46494   46521       5   46491   46515       5   46452   46473       5   46446
   46470       5   46440   46464       5   46431   46455       5   46428   46449
       5   46425   46443       5   46422   46437       5   46398   46410       5
   46392   46407       5   46380   46401       5   46377   46395       5   46374
   46383       1   46374   46386       1   46374   46389       1   47277   47325
       1   47277   47328       1   47277   47331       1   47274   47316       1
   47274   47319       1   47274   47322       1   47271   47307       1   47271
   47310       1   47271   47313       1   47268   47298       1   47268   47301
       1   47268   47304       1   47265   47289       1   47265   47292       1
   47265   47295       1   47262   47280       1   47262   47283       1   47262
   47286       1   47184   47241       5   47178   47238       5   47172   47232
       5   47166   47229       5   47160   47223       5   47154   47220       5
   47148   47214       5   47142   47208       5   47139   47205       5   47133
   47202       5   47124   47196       5   47118   47193       5   47115   47187
       5   47112   47181       5   47109   47175       5   47106   47169       5
   47103   47163       5   47100   47157       5   47097   47151       5   47094
   47145       5   47091   47136       5   47088   47130       5   47085   47127
       5   47082   47121       5   47052   47079       5   47043   47070       5
   47022   47055       5   47013   47046       5   46995   47034       5   46992
   47025       1   46992   47028       1   46992   47031       1   46986   47016
       5   46980   47010       5   46977   47004       5   46974   46998       5
   46935   46956       5   46929   46953       5   46923   46947       5   46914
   46938       5   46911   46932       5   46908   46926       5   46905   46920
       5   46881   46893       5   46875   46890       5   46863   46884       5
   46860   46878       5   46857   46866       1   46857   46869       1   46857
   46872       1   47760   47808       1   47760   47811       1   47760   47814
       1   47757   47799       1   47757   47802       1   47757   47805       1
   47754   47790       1   47754   47793       1   47754   47796       1   47751
   47781       1   47751   47784       1   47751   47787       1   47748   47772
       1   47748   47775       1   47748   47778       1   47745   47763       1
   47745   47766       1   47745   47769       1   47667   47724       5   47661
   47721       5   47655   47715       5   47649   47712       5   47643   47706
       5   47637   47703       5   47631   47697       5   47625   47691       5
   47622   47688       5   47616   47685       5   47607   47679       5   47601
   47676       5   47598   47670       5   47595   47664       5   47592   47658
       5   47589   47652       5   47586   47646       5   47583   47640       5
   47580   47634       5   47577   47628       5   47574   47619       5   47571
   47613       5   47568   47610       5   47565   47604       5   47535   47562
       5   47526   47553       5   47505   47538       5   47496   47529       5
   47478   47517       5   47475   47508       1   47475   47511       1   47475
   47514       1   47469   47499       5   47463   47493       5   47460   47487
       5   47457   47481       5   47418   47439       5   47412   47436       5
   47406   47430       5   47397   47421       5   47394   47415       5   47391
   47409       5   47388   47403       5   47364   47376       5   47358   47373
       5   47346   47367       5   47343   47361       5   47340   47349       1
   47340   47352       1   47340   47355       1   48243   48291       1   48243
   48294       1   48243   48297       1   48240   48282       1   48240   48285
       1   48240   48288       1   48237   48273       1   48237   48276       1
   48237   48279       1   48234   48264       1   48234   48267       1   48234
   48270       1   48231   48255       1   48231   48258       1   48231   48261
       1   48228   48246       1   48228   48249       1   48228   48252       1
   48150   48207       5   48144   48204       5   48138   48198       5   48132
   48195       5   48126   48189       5   48120   48186       5   48114   48180
       5   48108   48174       5   48105   48171       5   48099   48168       5
   48090   48162       5   48084   48159       5   48081   48153       5   48078
   48147       5   48075   48141       5   48072   48135       5   48069   48129
       5   48066   48123       5   48063   48117       5   48060   48111       5
   48057   48102       5   48054   48096       5   48051   48093       5   48048
   48087       5   48018   48045       5   48009   48036       5   47988   48021
       5   47979   48012       5   47961   48000       5   47958   47991       1
   47958   47994       1   47958   47997       1   47952   47982       5   47946
   47976       5   47943   47970       5   47940   47964       5   47901   47922
       5   47895   47919       5   47889   47913       5   47880   47904       5
   47877   47898       5   47874   47892       5   47871   47886       5   47847
   47859       5   47841   47856       5   47829   47850       5   47826   47844
       5   47823   47832       1   47823   47835       1   47823   47838       1
   48726   48774       1   48726   48777       1   48726   48780       1   48723
   48765       1   48723   48768       1   48723   48771       1   48720   48756
       1   48720   48759       1   48720   48762       1   48717   48747       1
   48717   48750       1   48717   48753       1   48714   48738       1   48714
   48741       1   48714   48744       1   48711   48729       1   48711   48732
       1   48711   48735       1   48633   48690       5   48627   48687       5
   48621   48681       5   48615   48678       5   48609   48672       5   48603
   48669       5   48597   48663       5   48591   48657       5   48588   48654
       5   48582   48651       5   48573   48645       5   48567   48642       5
   48564   48636       5   48561   48630       5   48558   48624       5   48555
   48618       5   48552   48612       5   48549   48606       5   48546   48600
       5   48543   48594       5   48540   48585       5   48537   48579       5
   48534   48576       5   48531   48570       5   48501   48528       5   48492
   48519       5   48471   48504       5   48462   48495       5   48444   48483
       5   48441   48474       1   48441   48477       1   48441   48480       1
   48435   48465       5   48429   48459       5   48426   48453       5   48423
   48447       5   48384   48405       5   48378   48402       5   48372   48396
       5   48363   48387       5   48360   48381       5   48357   48375       5
   48354   48369       5   48330   48342       5   48324   48339       5   48312
   48333       5   48309   48327       5   48306   48315       1   48306   48318
       1   48306   48321       1   49209   49257       1   49209   49260       1
   49209   49263       1   49206   49248       1   49206   49251       1   49206
   49254       1   49203   49239       1   49203   49242       1   49203   49245
       1   49200   49230       1   49200   49233       1   49200   49236       1
   49197   49221       1   49197   49224       1   49197   49227       1   49194
   49212       1   49194   49215       1   49194   49218       1   49116   49173
       5   49110   49170       5   49104   49164       5   49098   49161       5
   49092   49155       5   49086   49152       5   49080   49146       5   49074
   49140       5   49071   49137       5   49065   49134       5   49056   49128
       5   49050   49125       5   49047   49119       5   49044   49113       5
   49041   49107       5   49038   49101       5   49035   49095       5   49032
   49089       5   49029   49083       5   49026   49077       5   49023   49068
       5   49020   49062       5   49017   49059       5   49014   49053       5
   48984   49011       5   48975   49002       5   48954   48987       5   48945
   48978       5   48927   48966       5   48924   48957       1   48924   48960
       1   48924   48963       1   48918   48948       5   48912   48942       5
   48909   48936       5   48906   48930       5   48867   48888       5   48861
   48885       5   48855   48879       5   48846   48870       5   48843   48864
       5   48840   48858       5   48837   48852       5   48813   48825       5
   48807   48822       5   48795   48816       5   48792   48810       5   48789
   48798       1   48789   48801       1   48789   48804       1   49692   49740
       1   49692   49743       1   49692   49746       1   49689   49731       1
   49689   49734       1   49689   49737       1   49686   49722       1   49686
   49725       1   49686   49728       1   49683   49713       1   49683   49716
       1   49683   49719       1   49680   49704       1   49680   49707       1
   49680   49710       1   49677   49695       1   49677   49698       1   49677
   49701       1   49599   49656       5   49593   49653       5   49587   49647
       5   49581   49644       5   49575   49638       5   49569   49635       5
   49563   49629       5   49557   49623       5   49554   49620       5   49548
   49617       5   49539   49611       5   49533   49608       5   49530   49602
       5   49527   49596       5   49524   49590       5   49521   49584       5
   49518   49578       5   49515   49572       5   49512   49566       5   49509
   49560       5   49506   49551       5   49503   49545       5   49500   49542
       5   49497   49536       5   49467   49494       5   49458   49485       5
   49437   49470       5   49428   49461       5   49410   49449       5   49407
   49440       1   49407   49443       1   49407   49446       1   49401   49431
       5   49395   49425       5   49392   49419       5   49389   49413       5
   49350   49371       5   49344   49368       5   49338   49362       5   49329
   49353       5   49326   49347       5   49323   49341       5   49320   49335
       5   49296   49308       5   49290   49305       5   49278   49299       5
   49275   49293       5   49272   49281       1   49272   49284       1   49272
   49287       1   50175   50223       1   50175   50226       1   50175   50229
       1   50172   50214       1   50172   50217       1   50172   50220       1
   50169   50205       1   50169   50208       1   50169   50211       1   50166
   50196       1   50166   50199       1   50166   50202       1   50163   50187
       1   50163   50190       1   50163   50193       1   50160   50178       1
   50160   50181       1   50160   50184       1   50082   50139       5   50076
   50136       5   50070   50130       5   50064   50127       5   50058   50121
       5   50052   50118       5   50046   50112       5   50040   50106       5
   50037   50103       5   50031   50100       5   50022   50094       5   50016
   50091       5   50013   50085       5   50010   50079       5   50007   50073
       5   50004   50067       5   50001   50061       5   49998   50055       5
   49995   50049       5   49992   50043       5   49989   50034       5   49986
   50028       5   49983   50025       5   49980   50019       5   49950   49977
       5   49941   49968       5   49920   49953       5   49911   49944       5
   49893   49932       5   49890   49923       1   49890   49926       1   49890
   49929       1   49884   49914       5   49878   49908       5   49875   49902
       5   49872   49896       5   49833   49854       5   49827   49851       5
   49821   49845       5   49812   49836       5   49809   49830       5   49806
   49824       5   49803   49818       5   49779   49791       5   49773   49788
       5   49761   49782       5   49758   49776       5   49755   49764       1
   49755   49767       1   49755   49770       1   50658   50706       1   50658
   50709       1   50658   50712       1   50655   50697       1   50655   50700
       1   50655   50703       1   50652   50688       1   50652   50691       1
   50652   50694       1   50649   50679       1   50649   50682       1   50649
   50685       1   50646   50670       1   50646   50673       1   50646   50676
       1   50643   50661       1   50643   50664       1   50643   50667       1
   50565   50622       5   50559   50619       5   50553   50613       5   50547
   50610       5   50541   50604       5   50535   50601       5   50529   50595
       5   50523   50589       5   50520   50586       5   50514   50583       5
   50505   50577       5   50499   50574       5   50496   50568       5   50493
   50562       5   50490   50556       5   50487   50550       5   50484   50544
       5   50481   50538       5   50478   50532       5   50475   50526       5
   50472   50517       5   50469   50511       5   50466   50508       5   50463
   50502       5   50433   50460       5   50424   50451       5   50403   50436
       5   50394   50427       5   50376   50415       5   50373   50406       1
   50373   50409       1   50373   50412       1   50367   50397       5   50361
   50391       5   50358   50385       5   50355   50379       5   50316   50337
       5   50310   50334       5   50304   50328       5   50295   50319       5
   50292   50313       5   50289   50307       5   50286   50301       5   50262
   50274       5   50256   50271       5   50244   50265       5   50241   50259
       5   50238   50247       1   50238   50250       1   50238   50253       1
   51141   51189       1   51141   51192       1   51141   51195       1   51138
   51180       1   51138   51183       1   51138   51186       1   51135   51171
       1   51135   51174       1   51135   51177       1   51132   51162       1
   51132   51165       1   51132   51168       1   51129   51153       1   51129
   51156       1   51129   51159       1   51126   51144       1   51126   51147
       1   51126   51150       1   51048   51105       5   51042   51102       5
   51036   51096       5   51030   51093       5   51024   51087       5   51018
   51084       5   51012   51078       5   51006   51072       5   51003   51069
       5   50997   51066       5   50988   51060       5   50982   51057       5
   50979   51051       5   50976   51045       5   50973   51039       5   50970
   51033       5   50967   51027       5   50964   51021       5   50961   51015
       5   50958   51009       5   50955   51000       5   50952   50994       5
   50949   50991       5   50946   50985       5   50916   50943       5   50907
   50934       5   50886   50919       5   50877   50910       5   50859   50898
       5   50856   50889       1   50856   50892       1   50856   50895       1
   50850   50880       5   50844   50874       5   50841   50868       5   50838
   50862       5   50799   50820       5   50793   50817       5   50787   50811
       5   50778   50802       5   50775   50796       5   50772   50790       5
   50769   50784       5   50745   50757       5   50739   50754       5   50727
   50748       5   50724   50742       5   50721   50730       1   50721   50733
       1   50721   50736       1   51624   51672       1   51624   51675       1
   51624   51678       1   51621   51663       1   51621   51666       1   51621
   51669       1   51618   51654       1   51618   51657       1   51618   51660
       1   51615   51645       1   51615   51648       1   51615   51651       1
   51612   51636       1   51612   51639       1   51612   51642       1   51609
   51627       1   51609   51630       1   51609   51633       1   51531   51588
       5   51525   51585       5   51519   51579       5   51513   51576       5
   51507   51570       5   51501   51567       5   51495   51561       5   51489
   51555       5   51486   51552       5   51480   51549       5   51471   51543
       5   51465   51540       5   51462   51534       5   51459   51528       5
   51456   51522       5   51453   51516       5   51450   51510       5   51447
   51504       5   51444   51498       5   51441   51492       5   51438   51483
       5   51435   51477       5   51432   51474       5   51429   51468       5
   51399   51426       5   51390   51417       5   51369   51402       5   51360
   51393       5   51342   51381       5   51339   51372       1   51339   51375
       1   51339   51378       1   51333   51363       5   51327   51357       5
   51324   51351       5   51321   51345       5   51282   51303       5   51276
   51300       5   51270   51294       5   51261   51285       5   51258   51279
       5   51255   51273       5   51252   51267       5   51228   51240       5
   51222   51237       5   51210   51231       5   51207   51225       5   51204
   51213       1   51204   51216       1   51204   51219       1   52107   52155
       1   52107   52158       1   52107   52161       1   52104   52146       1
   52104   52149       1   52104   52152       1   52101   52137       1   52101
   52140       1   52101   52143       1   52098   52128       1   52098   52131
       1   52098   52134       1   52095   52119       1   52095   52122       1
   52095   52125       1   52092   52110       1   52092   52113       1   52092
   52116       1   52014   52071       5   52008   52068       5   52002   52062
       5   51996   52059       5   51990   52053       5   51984   52050       5
   51978   52044       5   51972   52038       5   51969   52035       5   51963
   52032       5   51954   52026       5   51948   52023       5   51945   52017
       5   51942   52011       5   51939   52005       5   51936   51999       5
   51933   51993       5   51930   51987       5   51927   51981       5   51924
   51975       5   51921   51966       5   51918   51960       5   51915   51957
       5   51912   51951       5   51882   51909       5   51873   51900       5
   51852   51885       5   51843   51876       5   51825   51864       5   51822
   51855       1   51822   51858       1   51822   51861       1   51816   51846
       5   51810   51840       5   51807   51834       5   51804   51828       5
   51765   51786       5   51759   51783       5   51753   51777       5   51744
   51768       5   51741   51762       5   51738   51756       5   51735   51750
       5   51711   51723       5   51705   51720       5   51693   51714       5
   51690   51708       5   51687   51696       1   51687   51699       1   51687
   51702       1   52590   52638       1   52590   52641       1   52590   52644
       1   52587   52629       1   52587   52632       1   52587   52635       1
   52584   52620       1   52584   52623       1   52584   52626       1   52581
   52611       1   52581   52614       1   52581   52617       1   52578   52602
       1   52578   52605       1   52578   52608       1   52575   52593       1
   52575   52596       1   52575   52599       1   52497   52554       5   52491
   52551       5   52485   52545       5   52479   52542       5   52473   52536
       5   52467   52533       5   52461   52527       5   52455   52521       5
   52452   52518       5   52446   52515       5   52437   52509       5   52431
   52506       5   52428   52500       5   52425   52494       5   52422   52488
       5   52419   52482       5   52416   52476       5   52413   52470       5
   52410   52464       5   52407   52458       5   52404   52449       5   52401
   52443       5   52398   52440       5   52395   52434       5   52365   52392
       5   52356   52383       5   52335   52368       5   52326   52359       5
   52308   52347       5   52305   52338       1   52305   52341       1   52305
   52344       1   52299   52329       5   52293   52323       5   52290   52317
       5   52287   52311       5   52248   52269       5   52242   52266       5
   52236   52260       5   52227   52251       5   52224   52245       5   52221
   52239       5   52218   52233       5   52194   52206       5   52188   52203
       5   52176   52197       5   52173   52191       5   52170   52179       1
   52170   52182       1   52170   52185       1   53073   53121       1   53073
   53124       1   53073   53127       1   53070   53112       1   53070   53115
       1   53070   53118       1   53067   53103       1   53067   53106       1
   53067   53109       1   53064   53094       1   53064   53097       1   53064
   53100       1   53061   53085       1   53061   53088       1   53061   53091
       1   53058   53076       1   53058   53079       1   53058   53082       1
   52980   53037       5   52974   53034       5   52968   53028       5   52962
   53025       5   52956   53019       5   52950   53016       5   52944   53010
       5   52938   53004       5   52935   53001       5   52929   52998       5
   52920   52992       5   52914   52989       5   52911   52983       5   52908
   52977       5   52905   52971       5   52902   52965       5   52899   52959
       5   52896   52953       5   52893   52947       5   52890   52941       5
   52887   52932       5   52884   52926       5   52881   52923       5   52878
   52917       5   52848   52875       5   52839   52866       5   52818   52851
       5   52809   52842       5   52791   52830       5   52788   52821       1
   52788   52824       1   52788   52827       1   52782   52812       5   52776
   52806       5   52773   52800       5   52770   52794       5   52731   52752
       5   52725   52749       5   52719   52743       5   52710   52734       5
   52707   52728       5   52704   52722       5   52701   52716       5   52677
   52689       5   52671   52686       5   52659   52680       5   52656   52674
       5   52653   52662       1   52653   52665       1   52653   52668       1
   53556   53604       1   53556   53607       1   53556   53610       1   53553
   53595       1   53553   53598       1   53553   53601       1   53550   53586
       1   53550   53589       1   53550   53592       1   53547   53577       1
   53547   53580       1   53547   53583       1   53544   53568       1   53544
   53571       1   53544   53574       1   53541   53559       1   53541   53562
       1   53541   53565       1   53463   53520       5   53457   53517       5
   53451   53511       5   53445   53508       5   53439   53502       5   53433
   53499       5   53427   53493       5   53421   53487       5   53418   53484
       5   53412   53481       5   53403   53475       5   53397   53472       5
   53394   53466       5   53391   53460       5   53388   53454       5   53385
   53448       5   53382   53442       5   53379   53436       5   53376   53430
       5   53373   53424       5   53370   53415       5   53367   53409       5
   53364   53406       5   53361   53400       5   53331   53358       5   53322
   53349       5   53301   53334       5   53292   53325       5   53274   53313
       5   53271   53304       1   53271   53307       1   53271   53310       1
   53265   53295       5   53259   53289       5   53256   53283       5   53253
   53277       5   53214   53235       5   53208   53232       5   53202   53226
       5   53193   53217       5   53190   53211       5   53187   53205       5
   53184   53199       5   53160   53172       5   53154   53169       5   53142
   53163       5   53139   53157       5   53136   53145       1   53136   53148
       1   53136   53151       1   54039   54087       1   54039   54090       1
   54039   54093       1   54036   54078       1   54036   54081       1   54036
   54084       1   54033   54069       1   54033   54072       1   54033   54075
       1   54030   54060       1   54030   54063       1   54030   54066       1
   54027   54051       1   54027   54054       1   54027   54057       1   54024
   54042       1   54024   54045       1   54024   54048       1   53946   54003
       5   53940   54000       5   53934   53994       5   53928   53991       5
   53922   53985       5   53916   53982       5   53910   53976       5   53904
   53970       5   53901   53967       5   53895   53964       5   53886   53958
       5   53880   53955       5   53877   53949       5   53874   53943       5
   53871   53937       5   53868   53931       5   53865   53925       5   53862
   53919       5   53859   53913       5   53856   53907       5   53853   53898
       5   53850   53892       5   53847   53889       5   53844   53883       5
   53814   53841       5   53805   53832       5   53784   53817       5   53775
   53808       5   53757   53796       5   53754   53787       1   53754   53790
       1   53754   53793       1   53748   53778       5   53742   53772       5
   53739   53766       5   53736   53760       5   53697   53718       5   53691
   53715       5   53685   53709       5   53676   53700       5   53673   53694
       5   53670   53688       5   53667   53682       5   53643   53655       5
   53637   53652       5   53625   53646       5   53622   53640       5   53619
   53628       1   53619   53631       1   53619   53634       1   54522   54570
       1   54522   54573       1   54522   54576       1   54519   54561       1
   54519   54564       1   54519   54567       1   54516   54552       1   54516
   54555       1   54516   54558       1   54513   54543       1   54513   54546
       1   54513   54549       1   54510   54534       1   54510   54537       1
   54510   54540       1   54507   54525       1   54507   54528       1   54507
   54531       1   54429   54486       5   54423   54483       5   54417   54477
       5   54411   54474       5   54405   54468       5   54399   54465       5
   54393   54459       5   54387   54453       5   54384   54450       5   54378
   54447       5   54369   54441       5   54363   54438       5   54360   54432
       5   54357   54426       5   54354   54420       5   54351   54414       5
   54348   54408       5   54345   54402       5   54342   54396       5   54339
   54390       5   54336   54381       5   54333   54375       5   54330   54372
       5   54327   54366       5   54297   54324       5   54288   54315       5
   54267   54300       5   54258   54291       5   54240   54279       5   54237
   54270       1   54237   54273       1   54237   54276       1   54231   54261
       5   54225   54255       5   54222   54249       5   54219   54243       5
   54180   54201       5   54174   54198       5   54168   54192       5   54159
   54183       5   54156   54177       5   54153   54171       5   54150   54165
       5   54126   54138       5   54120   54135       5   54108   54129       5
   54105   54123       5   54102   54111       1   54102   54114       1   54102
   54117       1   55005   55053       1   55005   55056       1   55005   55059
       1   55002   55044       1   55002   55047       1   55002   55050       1
   54999   55035       1   54999   55038       1   54999   55041       1   54996
   55026       1   54996   55029       1   54996   55032       1   54993   55017
       1   54993   55020       1   54993   55023       1   54990   55008       1
   54990   55011       1   54990   55014       1   54912   54969       5   54906
   54966       5   54900   54960       5   54894   54957       5   54888   54951
       5   54882   54948       5   54876   54942       5   54870   54936       5
   54867   54933       5   54861   54930       5   54852   54924       5   54846
   54921       5   54843   54915       5   54840   54909       5   54837   54903
       5   54834   54897       5   54831   54891       5   54828   54885       5
   54825   54879       5   54822   54873       5   54819   54864       5   54816
   54858       5   54813   54855       5   54810   54849       5   54780   54807
       5   54771   54798       5   54750   54783       5   54741   54774       5
   54723   54762       5   54720   54753       1   54720   54756       1   54720
   54759       1   54714   54744       5   54708   54738       5   54705   54732
       5   54702   54726       5   54663   54684       5   54657   54681       5
   54651   54675       5   54642   54666       5   54639   54660       5   54636
   54654       5   54633   54648       5   54609   54621       5   54603   54618
       5   54591   54612       5   54588   54606       5   54585   54594       1
   54585   54597       1   54585   54600       1   55488   55536       1   55488
   55539       1   55488   55542       1   55485   55527       1   55485   55530
       1   55485   55533       1   55482   55518       1   55482   55521       1
   55482   55524       1   55479   55509       1   55479   55512       1   55479
   55515       1   55476   55500       1   55476   55503       1   55476   55506
       1   55473   55491       1   55473   55494       1   55473   55497       1
   55395   55452       5   55389   55449       5   55383   55443       5   55377
   55440       5   55371   55434       5   55365   55431       5   55359   55425
       5   55353   55419       5   55350   55416       5   55344   55413       5
   55335   55407       5   55329   55404       5   55326   55398       5   55323
   55392       5   55320   55386       5   55317   55380       5   55314   55374
       5   55311   55368       5   55308   55362       5   55305   55356       5
   55302   55347       5   55299   55341       5   55296   55338       5   55293
   55332       5   55263   55290       5   55254   55281       5   55233   55266
       5   55224   55257       5   55206   55245       5   55203   55236       1
   55203   55239       1   55203   55242       1   55197   55227       5   55191
   55221       5   55188   55215       5   55185   55209       5   55146   55167
       5   55140   55164       5   55134   55158       5   55125   55149       5
   55122   55143       5   55119   55137       5   55116   55131       5   55092
   55104       5   55086   55101       5   55074   55095       5   55071   55089
       5   55068   55077       1   55068   55080       1   55068   55083       1
   55971   56019       1   55971   56022       1   55971   56025       1   55968
   56010       1   55968   56013       1   55968   56016       1   55965   56001
       1   55965   56004       1   55965   56007       1   55962   55992       1
   55962   55995       1   55962   55998       1   55959   55983       1   55959
   55986       1   55959   55989       1   55956   55974       1   55956   55977
       1   55956   55980       1   55878   55935       5   55872   55932       5
   55866   55926       5   55860   55923       5   55854   55917       5   55848
   55914       5   55842   55908       5   55836   55902       5   55833   55899
       5   55827   55896       5   55818   55890       5   55812   55887       5
   55809   55881       5   55806   55875       5   55803   55869       5   55800
   55863       5   55797   55857       5   55794   55851       5   55791   55845
       5   55788   55839       5   55785   55830       5   55782   55824       5
   55779   55821       5   55776   55815       5   55746   55773       5   55737
   55764       5   55716   55749       5   55707   55740       5   55689   55728
       5   55686   55719       1   55686   55722       1   55686   55725       1
   55680   55710       5   55674   55704       5   55671   55698       5   55668
   55692       5   55629   55650       5   55623   55647       5   55617   55641
       5   55608   55632       5   55605   55626       5   55602   55620       5
   55599   55614       5   55575   55587       5   55569   55584       5   55557
   55578       5   55554   55572       5   55551   55560       1   55551   55563
       1   55551   55566       1   56454   56502       1   56454   56505       1
   56454   56508       1   56451   56493       1   56451   56496       1   56451
   56499       1   56448   56484       1   56448   56487       1   56448   56490
       1   56445   56475       1   56445   56478       1   56445   56481       1
   56442   56466       1   56442   56469       1   56442   56472       1   56439
   56457       1   56439   56460       1   56439   56463       1   56361   56418
       5   56355   56415       5   56349   56409       5   56343   56406       5
   56337   56400       5   56331   56397       5   56325   56391       5   56319
   56385       5   56316   56382       5   56310   56379       5   56301   56373
       5   56295   56370       5   56292   56364       5   56289   56358       5
   56286   56352       5   56283   56346       5   56280   56340       5   56277
   56334       5   56274   56328       5   56271   56322       5   56268   56313
       5   56265   56307       5   56262   56304       5   56259   56298       5
   56229   56256       5   56220   56247       5   56199   56232       5   56190
   56223       5   56172   56211       5   56169   56202       1   56169   56205
       1   56169   56208       1   56163   56193       5   56157   56187       5
   56154   56181       5   56151   56175       5   56112   56133       5   56106
   56130       5   56100   56124       5   56091   56115       5   56088   56109
       5   56085   56103       5   56082   56097       5   56058   56070       5
   56052   56067       5   56040   56061       5   56037   56055       5   56034
   56043       1   56034   56046       1   56034   56049       1   56937   56985
       1   56937   56988       1   56937   56991       1   56934   56976       1
   56934   56979       1   56934   56982       1   56931   56967       1   56931
   56970       1   56931   56973       1   56928   56958       1   56928   56961
       1   56928   56964       1   56925   56949       1   56925   56952       1
   56925   56955       1   56922   56940       1   56922   56943       1   56922
   56946       1   56844   56901       5   56838   56898       5   56832   56892
       5   56826   56889       5   56820   56883       5   56814   56880       5
   56808   56874       5   56802   56868       5   56799   56865       5   56793
   56862       5   56784   56856       5   56778   56853       5   56775   56847
       5   56772   56841       5   56769   56835       5   56766   56829       5
   56763   56823       5   56760   56817       5   56757   56811       5   56754
   56805       5   56751   56796       5   56748   56790       5   56745   56787
       5   56742   56781       5   56712   56739       5   56703   56730       5
   56682   56715       5   56673   56706       5   56655   56694       5   56652
   56685       1   56652   56688       1   56652   56691       1   56646   56676
       5   56640   56670       5   56637   56664       5   56634   56658       5
   56595   56616       5   56589   56613       5   56583   56607       5   56574
   56598       5   56571   56592       5   56568   56586       5   56565   56580
       5   56541   56553       5   56535   56550       5   56523   56544       5
   56520   56538       5   56517   56526       1   56517   56529       1   56517
   56532       1   57420   57468       1   57420   57471       1   57420   57474
       1   57417   57459       1   57417   57462       1   57417   57465       1
   57414   57450       1   57414   57453       1   57414   57456       1   57411
   57441       1   57411   57444       1   57411   57447       1   57408   57432
       1   57408   57435       1   57408   57438       1   57405   57423       1
   57405   57426       1   57405   57429       1   57327   57384       5   57321
   57381       5   57315   57375       5   57309   57372       5   57303   57366
       5   57297   57363       5   57291   57357       5   57285   57351       5
   57282   57348       5   57276   57345       5   57267   57339       5   57261
   57336       5   57258   57330       5   57255   57324       5   57252   57318
       5   57249   57312       5   57246   57306       5   57243   57300       5
   57240   57294       5   57237   57288       5   57234   57279       5   57231
   57273       5   57228   57270       5   57225   57264       5   57195   57222
       5   57186   57213       5   57165   57198       5   57156   57189       5
   57138   57177       5   57135   57168       1   57135   57171       1   57135
   57174       1   57129   57159       5   57123   57153       5   57120   57147
       5   57117   57141       5   57078   57099       5   57072   57096       5
   57066   57090       5   57057   57081       5   57054   57075       5   57051
   57069       5   57048   57063       5   57024   57036       5   57018   57033
       5   57006   57027       5   57003   57021       5   57000   57009       1
   57000   57012       1   57000   57015       1   57903   57951       1   57903
   57954       1   57903   57957       1   57900   57942       1   57900   57945
       1   57900   57948       1   57897   57933       1   57897   57936       1
   57897   57939       1   57894   57924       1   57894   57927       1   57894
   57930       1   57891   57915       1   57891   57918       1   57891   57921
       1   57888   57906       1   57888   57909       1   57888   57912       1
   57810   57867       5   57804   57864       5   57798   57858       5   57792
   57855       5   57786   57849       5   57780   57846       5   57774   57840
       5   57768   57834       5   57765   57831       5   57759   57828       5
   57750   57822       5   57744   57819       5   57741   57813       5   57738
   57807       5   57735   57801       5   57732   57795       5   57729   57789
       5   57726   57783       5   57723   57777       5   57720   57771       5
   57717   57762       5   57714   57756       5   57711   57753       5   57708
   57747       5   57678   57705       5   57669   57696       5   57648   57681
       5   57639   57672       5   57621   57660       5   57618   57651       1
   57618   57654       1   57618   57657       1   57612   57642       5   57606
   57636       5   57603   57630       5   57600   57624       5   57561   57582
       5   57555   57579       5   57549   57573       5   57540   57564       5
   57537   57558       5   57534   57552       5   57531   57546       5   57507
   57519       5   57501   57516       5   57489   57510       5   57486   57504
       5   57483   57492       1   57483   57495       1   57483   57498       1
   58386   58434       1   58386   58437       1   58386   58440       1   58383
   58425       1   58383   58428       1   58383   58431       1   58380   58416
       1   58380   58419       1   58380   58422       1   58377   58407       1
   58377   58410       1   58377   58413       1   58374   58398       1   58374
   58401       1   58374   58404       1   58371   58389       1   58371   58392
       1   58371   58395       1   58293   58350       5   58287   58347       5
   58281   58341       5   58275   58338       5   58269   58332       5   58263
   58329       5   58257   58323       5   58251   58317       5   58248   58314
       5   58242   58311       5   58233   58305       5   58227   58302       5
   58224   58296       5   58221   58290       5   58218   58284       5   58215
   58278       5   58212   58272       5   58209   58266       5   58206   58260
       5   58203   58254       5   58200   58245       5   58197   58239       5
   58194   58236       5   58191   58230       5   58161   58188       5   58152
   58179       5   58131   58164       5   58122   58155       5   58104   58143
       5   58101   58134       1   58101   58137       1   58101   58140       1
   58095   58125       5   58089   58119       5   58086   58113       5   58083
   58107       5   58044   58065       5   58038   58062       5   58032   58056
       5   58023   58047       5   58020   58041       5   58017   58035       5
   58014   58029       5   57990   58002       5   57984   57999       5   57972
   57993       5   57969   57987       5   57966   57975       1   57966   57978
       1   57966   57981       1   58869   58917       1   58869   58920       1
   58869   58923       1   58866   58908       1   58866   58911       1   58866
   58914       1   58863   58899       1   58863   58902       1   58863   58905
       1   58860   58890       1   58860   58893       1   58860   58896       1
   58857   58881       1   58857   58884       1   58857   58887       1   58854
   58872       1   58854   58875       1   58854   58878       1   58776   58833
       5   58770   58830       5   58764   58824       5   58758   58821       5
   58752   58815       5   58746   58812       5   58740   58806       5   58734
   58800       5   58731   58797       5   58725   58794       5   58716   58788
       5   58710   58785       5   58707   58779       5   58704   58773       5
   58701   58767       5   58698   58761       5   58695   58755       5   58692
   58749       5   58689   58743       5   58686   58737       5   58683   58728
       5   58680   58722       5   58677   58719       5   58674   58713       5
   58644   58671       5   58635   58662       5   58614   58647       5   58605
   58638       5   58587   58626       5   58584   58617       1   58584   58620
       1   58584   58623       1   58578   58608       5   58572   58602       5
   58569   58596       5   58566   58590       5   58527   58548       5   58521
   58545       5   58515   58539       5   58506   58530       5   58503   58524
       5   58500   58518       5   58497   58512       5   58473   58485       5
   58467   58482       5   58455   58476       5   58452   58470       5   58449
   58458       1   58449   58461       1   58449   58464       1   59352   59400
       1   59352   59403       1   59352   59406       1   59349   59391       1
   59349   59394       1   59349   59397       1   59346   59382       1   59346
   59385       1   59346   59388       1   59343   59373       1   59343   59376
       1   59343   59379       1   59340   59364       1   59340   59367       1
   59340   59370       1   59337   59355       1   59337   59358       1   59337
   59361       1   59259   59316       5   59253   59313       5   59247   59307
       5   59241   59304       5   59235   59298       5   59229   59295       5
   59223   59289       5   59217   59283       5   59214   59280       5   59208
   59277       5   59199   59271       5   59193   59268       5   59190   59262
       5   59187   59256       5   59184   59250       5   59181   59244       5
   59178   59238       5   59175   59232       5   59172   59226       5   59169
   59220       5   59166   59211       5   59163   59205       5   59160   59202
       5   59157   59196       5   59127   59154       5   59118   59145       5
   59097   59130       5   59088   59121       5   59070   59109       5   59067
   59100       1   59067   59103       1   59067   59106       1   59061   59091
       5   59055   59085       5   59052   59079       5   59049   59073       5
   59010   59031       5   59004   59028       5   58998   59022       5   58989
   59013       5   58986   59007       5   58983   59001       5   58980   58995
       5   58956   58968       5   58950   58965       5   58938   58959       5
   58935   58953       5   58932   58941       1   58932   58944       1   58932
   58947       1   59835   59883       1   59835   59886       1   59835   59889
       1   59832   59874       1   59832   59877       1   59832   59880       1
   59829   59865       1   59829   59868       1   59829   59871       1   59826
   59856       1   59826   59859       1   59826   59862       1   59823   59847
       1   59823   59850       1   59823   59853       1   59820   59838       1
   59820   59841       1   59820   59844       1   59742   59799       5   59736
   59796       5   59730   59790       5   59724   59787       5   59718   59781
       5   59712   59778       5   59706   59772       5   59700   59766       5
   59697   59763       5   59691   59760       5   59682   59754       5   59676
   59751       5   59673   59745       5   59670   59739       5   59667   59733
       5   59664   59727       5   59661   59721       5   59658   59715       5
   59655   59709       5   59652   59703       5   59649   59694       5   59646
   59688       5   59643   59685       5   59640   59679       5   59610   59637
       5   59601   59628       5   59580   59613       5   59571   59604       5
   59553   59592       5   59550   59583       1   59550   59586       1   59550
   59589       1   59544   59574       5   59538   59568       5   59535   59562
       5   59532   59556       5   59493   59514       5   59487   59511       5
   59481   59505       5   59472   59496       5   59469   59490       5   59466
   59484       5   59463   59478       5   59439   59451       5   59433   59448
       5   59421   59442       5   59418   59436       5   59415   59424       1
   59415   59427       1   59415   59430       1   60318   60366       1   60318
   60369       1   60318   60372       1   60315   60357       1   60315   60360
       1   60315   60363       1   60312   60348       1   60312   60351       1
   60312   60354       1   60309   60339       1   60309   60342       1   60309
   60345       1   60306   60330       1   60306   60333       1   60306   60336
       1   60303   60321       1   60303   60324       1   60303   60327       1
   60225   60282       5   60219   60279       5   60213   60273       5   60207
   60270       5   60201   60264       5   60195   60261       5   60189   60255
       5   60183   60249       5   60180   60246       5   60174   60243       5
   60165   60237       5   60159   60234       5   60156   60228       5   60153
   60222       5   60150   60216       5   60147   60210       5   60144   60204
       5   60141   60198       5   60138   60192       5   60135   60186       5
   60132   60177       5   60129   60171       5   60126   60168       5   60123
   60162       5   60093   60120       5   60084   60111       5   60063   60096
       5   60054   60087       5   60036   60075       5   60033   60066       1
   60033   60069       1   60033   60072       1   60027   60057       5   60021
   60051       5   60018   60045       5   60015   60039       5   59976   59997
       5   59970   59994       5   59964   59988       5   59955   59979       5
   59952   59973       5   59949   59967       5   59946   59961       5   59922
   59934       5   59916   59931       5   59904   59925       5   59901   59919
       5   59898   59907       1   59898   59910       1   59898   59913       1
   60801   60849       1   60801   60852       1   60801   60855       1   60798
   60840       1   60798   60843       1   60798   60846       1   60795   60831
       1   60795   60834       1   60795   60837       1   60792   60822       1
   60792   60825       1   60792   60828       1   60789   60813       1   60789
   60816       1   60789   60819       1   60786   60804       1   60786   60807
       1   60786   60810       1   60708   60765       5   60702   60762       5
   60696   60756       5   60690   60753       5   60684   60747       5   60678
   60744       5   60672   60738       5   60666   60732       5   60663   60729
       5   60657   60726       5   60648   60720       5   60642   60717       5
   60639   60711       5   60636   60705       5   60633   60699       5   60630
   60693       5   60627   60687       5   60624   60681       5   60621   60675
       5   60618   60669       5   60615   60660       5   60612   60654       5
   60609   60651       5   60606   60645       5   60576   60603       5   60567
   60594       5   60546   60579       5   60537   60570       5   60519   60558
       5   60516   60549       1   60516   60552       1   60516   60555       1
   60510   60540       5   60504   60534       5   60501   60528       5   60498
   60522       5   60459   60480       5   60453   60477       5   60447   60471
       5   60438   60462       5   60435   60456       5   60432   60450       5
   60429   60444       5   60405   60417       5   60399   60414       5   60387
   60408       5   60384   60402       5   60381   60390       1   60381   60393
       1   60381   60396       1   61284   61332       1   61284   61335       1
   61284   61338       1   61281   61323       1   61281   61326       1   61281
   61329       1   61278   61314       1   61278   61317       1   61278   61320
       1   61275   61305       1   61275   61308       1   61275   61311       1
   61272   61296       1   61272   61299       1   61272   61302       1   61269
   61287       1   61269   61290       1   61269   61293       1   61191   61248
       5   61185   61245       5   61179   61239       5   61173   61236       5
   61167   61230       5   61161   61227       5   61155   61221       5   61149
   61215       5   61146   61212       5   61140   61209       5   61131   61203
       5   61125   61200       5   61122   61194       5   61119   61188       5
   61116   61182       5   61113   61176       5   61110   61170       5   61107
   61164       5   61104   61158       5   61101   61152       5   61098   61143
       5   61095   61137       5   61092   61134       5   61089   61128       5
   61059   61086       5   61050   61077       5   61029   61062       5   61020
   61053       5   61002   61041       5   60999   61032       1   60999   61035
       1   60999   61038       1   60993   61023       5   60987   61017       5
   60984   61011       5   60981   61005       5   60942   60963       5   60936
   60960       5   60930   60954       5   60921   60945       5   60918   60939
       5   60915   60933       5   60912   60927       5   60888   60900       5
   60882   60897       5   60870   60891       5   60867   60885       5   60864
   60873       1   60864   60876       1   60864   60879       1   61767   61815
       1   61767   61818       1   61767   61821       1   61764   61806       1
   61764   61809       1   61764   61812       1   61761   61797       1   61761
   61800       1   61761   61803       1   61758   61788       1   61758   61791
       1   61758   61794       1   61755   61779       1   61755   61782       1
   61755   61785       1   61752   61770       1   61752   61773       1   61752
   61776       1   61674   61731       5   61668   61728       5   61662   61722
       5   61656   61719       5   61650   61713       5   61644   61710       5
   61638   61704       5   61632   61698       5   61629   61695       5   61623
   61692       5   61614   61686       5   61608   61683       5   61605   61677
       5   61602   61671       5   61599   61665       5   61596   61659       5
   61593   61653       5   61590   61647       5   61587   61641       5   61584
   61635       5   61581   61626       5   61578   61620       5   61575   61617
       5   61572   61611       5   61542   61569       5   61533   61560       5
   61512   61545       5   61503   61536       5   61485   61524       5   61482
   61515       1   61482   61518       1   61482   61521       1   61476   61506
       5   61470   61500       5   61467   61494       5   61464   61488       5
   61425   61446       5   61419   61443       5   61413   61437       5   61404
   61428       5   61401   61422       5   61398   61416       5   61395   61410
       5   61371   61383       5   61365   61380       5   61353   61374       5
   61350   61368       5   61347   61356       1   61347   61359       1   61347
   61362       1   62250   62298       1   62250   62301       1   62250   62304
       1   62247   62289       1   62247   62292       1   62247   62295       1
   62244   62280       1   62244   62283       1   62244   62286       1   62241
   62271       1   62241   62274       1   62241   62277       1   62238   62262
       1   62238   62265       1   62238   62268       1   62235   62253       1
   62235   62256       1   62235   62259       1   62157   62214       5   62151
   62211       5   62145   62205       5   62139   62202       5   62133   62196
       5   62127   62193       5   62121   62187       5   62115   62181       5
   62112   62178       5   62106   62175       5   62097   62169       5   62091
   62166       5   62088   62160       5   62085   62154       5   62082   62148
       5   62079   62142       5   62076   62136       5   62073   62130       5
   62070   62124       5   62067   62118       5   62064   62109       5   62061
   62103       5   62058   62100       5   62055   62094       5   62025   62052
       5   62016   62043       5   61995   62028       5   61986   62019       5
   61968   62007       5   61965   61998       1   61965   62001       1   61965
   62004       1   61959   61989       5   61953   61983       5   61950   61977
       5   61947   61971       5   61908   61929       5   61902   61926       5
   61896   61920       5   61887   61911       5   61884   61905       5   61881
   61899       5   61878   61893       5   61854   61866       5   61848   61863
       5   61836   61857       5   61833   61851       5   61830   61839       1
   61830   61842       1   61830   61845       1   62733   62781       1   62733
   62784       1   62733   62787       1   62730   62772       1   62730   62775
       1   62730   62778       1   62727   62763       1   62727   62766       1
   62727   62769       1   62724   62754       1   62724   62757       1   62724
   62760       1   62721   62745       1   62721   62748       1   62721   62751
       1   62718   62736       1   62718   62739       1   62718   62742       1
   62640   62697       5   62634   62694       5   62628   62688       5   62622
   62685       5   62616   62679       5   62610   62676       5   62604   62670
       5   62598   62664       5   62595   62661       5   62589   62658       5
   62580   62652       5   62574   62649       5   62571   62643       5   62568
   62637       5   62565   62631       5   62562   62625       5   62559   62619
       5   62556   62613       5   62553   62607       5   62550   62601       5
   62547   62592       5   62544   62586       5   62541   62583       5   62538
   62577       5   62508   62535       5   62499   62526       5   62478   62511
       5   62469   62502       5   62451   62490       5   62448   62481       1
   62448   62484       1   62448   62487       1   62442   62472       5   62436
   62466       5   62433   62460       5   62430   62454       5   62391   62412
       5   62385   62409       5   62379   62403       5   62370   62394       5
   62367   62388       5   62364   62382       5   62361   62376       5   62337
   62349       5   62331   62346       5   62319   62340       5   62316   62334
       5   62313   62322       1   62313   62325       1   62313   62328       1
   63216   63264       1   63216   63267       1   63216   63270       1   63213
   63255       1   63213   63258       1   63213   63261       1   63210   63246
       1   63210   63249       1   63210   63252       1   63207   63237       1
   63207   63240       1   63207   63243       1   63204   63228       1   63204
   63231       1   63204   63234       1   63201   63219       1   63201   63222
       1   63201   63225       1   63123   63180       5   63117   63177       5
   63111   63171       5   63105   63168       5   63099   63162       5   63093
   63159       5   63087   63153       5   63081   63147       5   63078   63144
       5   63072   63141       5   63063   63135       5   63057   63132       5
   63054   63126       5   63051   63120       5   63048   63114       5   63045
   63108       5   63042   63102       5   63039   63096       5   63036   63090
       5   63033   63084       5   63030   63075       5   63027   63069       5
   63024   63066       5   63021   63060       5   62991   63018       5   62982
   63009       5   62961   62994       5   62952   62985       5   62934   62973
       5   62931   62964       1   62931   62967       1   62931   62970       1
   62925   62955       5   62919   62949       5   62916   62943       5   62913
   62937       5   62874   62895       5   62868   62892       5   62862   62886
       5   62853   62877       5   62850   62871       5   62847   62865       5
   62844   62859       5   62820   62832       5   62814   62829       5   62802
   62823       5   62799   62817       5   62796   62805       1   62796   62808
       1   62796   62811       1   63699   63747       1   63699   63750       1
   63699   63753       1   63696   63738       1   63696   63741       1   63696
   63744       1   63693   63729       1   63693   63732       1   63693   63735
       1   63690   63720       1   63690   63723       1   63690   63726       1
   63687   63711       1   63687   63714       1   63687   63717       1   63684
   63702       1   63684   63705       1   63684   63708       1   63606   63663
       5   63600   63660       5   63594   63654       5   63588   63651       5
   63582   63645       5   63576   63642       5   63570   63636       5   63564
   63630       5   63561   63627       5   63555   63624       5   63546   63618
       5   63540   63615       5   63537   63609       5   63534   63603       5
   63531   63597       5   63528   63591       5   63525   63585       5   63522
   63579       5   63519   63573       5   63516   63567       5   63513   63558
       5   63510   63552       5   63507   63549       5   63504   63543       5
   63474   63501       5   63465   63492       5   63444   63477       5   63435
   63468       5   63417   63456       5   63414   63447       1   63414   63450
       1   63414   63453       1   63408   63438       5   63402   63432       5
   63399   63426       5   63396   63420       5   63357   63378       5   63351
   63375       5   63345   63369       5   63336   63360       5   63333   63354
       5   63330   63348       5   63327   63342       5   63303   63315       5
   63297   63312       5   63285   63306       5   63282   63300       5   63279
   63288       1   63279   63291       1   63279   63294       1   64182   64230
       1   64182   64233       1   64182   64236       1   64179   64221       1
   64179   64224       1   64179   64227       1   64176   64212       1   64176
   64215       1   64176   64218       1   64173   64203       1   64173   64206
       1   64173   64209       1   64170   64194       1   64170   64197       1
   64170   64200       1   64167   64185       1   64167   64188       1   64167
   64191       1   64089   64146       5   64083   64143       5   64077   64137
       5   64071   64134       5   64065   64128       5   64059   64125       5
   64053   64119       5   64047   64113       5   64044   64110       5   64038
   64107       5   64029   64101       5   64023   64098       5   64020   64092
       5   64017   64086       5   64014   64080       5   64011   64074       5
   64008   64068       5   64005   64062       5   64002   64056       5   63999
   64050       5   63996   64041       5   63993   64035       5   63990   64032
       5   63987   64026       5   63957   63984       5   63948   63975       5
   63927   63960       5   63918   63951       5   63900   63939       5   63897
   63930       1   63897   63933       1   63897   63936       1   63891   63921
       5   63885   63915       5   63882   63909       5   63879   63903       5
   63840   63861       5   63834   63858       5   63828   63852       5   63819
   63843       5   63816   63837       5   63813   63831       5   63810   63825
       5   63786   63798       5   63780   63795       5   63768   63789       5
   63765   63783       5   63762   63771       1   63762   63774       1   63762
   63777       1   64665   64713       1   64665   64716       1   64665   64719
       1   64662   64704       1   64662   64707       1   64662   64710       1
   64659   64695       1   64659   64698       1   64659   64701       1   64656
   64686       1   64656   64689       1   64656   64692       1   64653   64677
       1   64653   64680       1   64653   64683       1   64650   64668       1
   64650   64671       1   64650   64674       1   64572   64629       5   64566
   64626       5   64560   64620       5   64554   64617       5   64548   64611
       5   64542   64608       5   64536   64602       5   64530   64596       5
   64527   64593       5   64521   64590       5   64512   64584       5   64506
   64581       5   64503   64575       5   64500   64569       5   64497   64563
       5   64494   64557       5   64491   64551       5   64488   64545       5
   64485   64539       5   64482   64533       5   64479   64524       5   64476
   64518       5   64473   64515       5   64470   64509       5   64440   64467
       5   64431   64458       5   64410   64443       5   64401   64434       5
   64383   64422       5   64380   64413       1   64380   64416       1   64380
   64419       1   64374   64404       5   64368   64398       5   64365   64392
       5   64362   64386       5   64323   64344       5   64317   64341       5
   64311   64335       5   64302   64326       5   64299   64320       5   64296
   64314       5   64293   64308       5   64269   64281       5   64263   64278
       5   64251   64272       5   64248   64266       5   64245   64254       1
   64245   64257       1   64245   64260       1   65148   65196       1   65148
   65199       1   65148   65202       1   65145   65187       1   65145   65190
       1   65145   65193       1   65142   65178       1   65142   65181       1
   65142   65184       1   65139   65169       1   65139   65172       1   65139
   65175       1   65136   65160       1   65136   65163       1   65136   65166
       1   65133   65151       1   65133   65154       1   65133   65157       1
   65055   65112       5   65049   65109       5   65043   65103       5   65037
   65100       5   65031   65094       5   65025   65091       5   65019   65085
       5   65013   65079       5   65010   65076       5   65004   65073       5
   64995   65067       5   64989   65064       5   64986   65058       5   64983
   65052       5   64980   65046       5   64977   65040       5   64974   65034
       5   64971   65028       5   64968   65022       5   64965   65016       5
   64962   65007       5   64959   65001       5   64956   64998       5   64953
   64992       5   64923   64950       5   64914   64941       5   64893   64926
       5   64884   64917       5   64866   64905       5   64863   64896       1
   64863   64899       1   64863   64902       1   64857   64887       5   64851
   64881       5   64848   64875       5   64845   64869       5   64806   64827
       5   64800   64824       5   64794   64818       5   64785   64809       5
   64782   64803       5   64779   64797       5   64776   64791       5   64752
   64764       5   64746   64761       5   64734   64755       5   64731   64749
       5   64728   64737       1   64728   64740       1   64728   64743       1
   65631   65679       1   65631   65682       1   65631   65685       1   65628
   65670       1   65628   65673       1   65628   65676       1   65625   65661
       1   65625   65664       1   65625   65667       1   65622   65652       1
   65622   65655       1   65622   65658       1   65619   65643       1   65619
   65646       1   65619   65649       1   65616   65634       1   65616   65637
       1   65616   65640       1   65538   65595       5   65532   65592       5
   65526   65586       5   65520   65583       5   65514   65577       5   65508
   65574       5   65502   65568       5   65496   65562       5   65493   65559
       5   65487   65556       5   65478   65550       5   65472   65547       5
   65469   65541       5   65466   65535       5   65463   65529       5   65460
   65523       5   65457   65517       5   65454   65511       5   65451   65505
       5   65448   65499       5   65445   65490       5   65442   65484       5
   65439   65481       5   65436   65475       5   65406   65433       5   65397
   65424       5   65376   65409       5   65367   65400       5   65349   65388
       5   65346   65379       1   65346   65382       1   65346   65385       1
   65340   65370       5   65334   65364       5   65331   65358       5   65328
   65352       5   65289   65310       5   65283   65307       5   65277   65301
       5   65268   65292       5   65265   65286       5   65262   65280       5
   65259   65274       5   65235   65247       5   65229   65244       5   65217
   65238       5   65214   65232       5   65211   65220       1   65211   65223
       1   65211   65226       1   66114   66162       1   66114   66165       1
   66114   66168       1   66111   66153       1   66111   66156       1   66111
   66159       1   66108   66144       1   66108   66147       1   66108   66150
       1   66105   66135       1   66105   66138       1   66105   66141       1
   66102   66126       1   66102   66129       1   66102   66132       1   66099
   66117       1   66099   66120       1   66099   66123       1   66021   66078
       5   66015   66075       5   66009   66069       5   66003   66066       5
   65997   66060       5   65991   66057       5   65985   66051       5   65979
   66045       5   65976   66042       5   65970   66039       5   65961   66033
       5   65955   66030       5   65952   66024       5   65949   66018       5
   65946   66012       5   65943   66006       5   65940   66000       5   65937
   65994       5   65934   65988       5   65931   65982       5   65928   65973
       5   65925   65967       5   65922   65964       5   65919   65958       5
   65889   65916       5   65880   65907       5   65859   65892       5   65850
   65883       5   65832   65871       5   65829   65862       1   65829   65865
       1   65829   65868       1   65823   65853       5   65817   65847       5
   65814   65841       5   65811   65835       5   65772   65793       5   65766
   65790       5   65760   65784       5   65751   65775       5   65748   65769
       5   65745   65763       5   65742   65757       5   65718   65730       5
   65712   65727       5   65700   65721       5   65697   65715       5   65694
   65703       1   65694   65706       1   65694   65709       1   66597   66645
       1   66597   66648       1   66597   66651       1   66594   66636       1
   66594   66639       1   66594   66642       1   66591   66627       1   66591
   66630       1   66591   66633       1   66588   66618       1   66588   66621
       1   66588   66624       1   66585   66609       1   66585   66612       1
   66585   66615       1   66582   66600       1   66582   66603       1   66582
   66606       1   66504   66561       5   66498   66558       5   66492   66552
       5   66486   66549       5   66480   66543       5   66474   66540       5
   66468   66534       5   66462   66528       5   66459   66525       5   66453
   66522       5   66444   66516       5   66438   66513       5   66435   66507
       5   66432   66501       5   66429   66495       5   66426   66489       5
   66423   66483       5   66420   66477       5   66417   66471       5   66414
   66465       5   66411   66456       5   66408   66450       5   66405   66447
       5   66402   66441       5   66372   66399       5   66363   66390       5
   66342   66375       5   66333   66366       5   66315   66354       5   66312
   66345       1   66312   66348       1   66312   66351       1   66306   66336
       5   66300   66330       5   66297   66324       5   66294   66318       5
   66255   66276       5   66249   66273       5   66243   66267       5   66234
   66258       5   66231   66252       5   66228   66246       5   66225   66240
       5   66201   66213       5   66195   66210       5   66183   66204       5
   66180   66198       5   66177   66186       1   66177   66189       1   66177
   66192       1   67080   67128       1   67080   67131       1   67080   67134
       1   67077   67119       1   67077   67122       1   67077   67125       1
   67074   67110       1   67074   67113       1   67074   67116       1   67071
   67101       1   67071   67104       1   67071   67107       1   67068   67092
       1   67068   67095       1   67068   67098       1   67065   67083       1
   67065   67086       1   67065   67089       1   66987   67044       5   66981
   67041       5   66975   67035       5   66969   67032       5   66963   67026
       5   66957   67023       5   66951   67017       5   66945   67011       5
   66942   67008       5   66936   67005       5   66927   66999       5   66921
   66996       5   66918   66990       5   66915   66984       5   66912   66978
       5   66909   66972       5   66906   66966       5   66903   66960       5
   66900   66954       5   66897   66948       5   66894   66939       5   66891
   66933       5   66888   66930       5   66885   66924       5   66855   66882
       5   66846   66873       5   66825   66858       5   66816   66849       5
   66798   66837       5   66795   66828       1   66795   66831       1   66795
   66834       1   66789   66819       5   66783   66813       5   66780   66807
       5   66777   66801       5   66738   66759       5   66732   66756       5
   66726   66750       5   66717   66741       5   66714   66735       5   66711
   66729       5   66708   66723       5   66684   66696       5   66678   66693
       5   66666   66687       5   66663   66681       5   66660   66669       1
   66660   66672       1   66660   66675       1   67563   67611       1   67563
   67614       1   67563   67617       1   67560   67602       1   67560   67605
       1   67560   67608       1   67557   67593       1   67557   67596       1
   67557   67599       1   67554   67584       1   67554   67587       1   67554
   67590       1   67551   67575       1   67551   67578       1   67551   67581
       1   67548   67566       1   67548   67569       1   67548   67572       1
   67470   67527       5   67464   67524       5   67458   67518       5   67452
   67515       5   67446   67509       5   67440   67506       5   67434   67500
       5   67428   67494       5   67425   67491       5   67419   67488       5
   67410   67482       5   67404   67479       5   67401   67473       5   67398
   67467       5   67395   67461       5   67392   67455       5   67389   67449
       5   67386   67443       5   67383   67437       5   67380   67431       5
   67377   67422       5   67374   67416       5   67371   67413       5   67368
   67407       5   67338   67365       5   67329   67356       5   67308   67341
       5   67299   67332       5   67281   67320       5   67278   67311       1
   67278   67314       1   67278   67317       1   67272   67302       5   67266
   67296       5   67263   67290       5   67260   67284       5   67221   67242
       5   67215   67239       5   67209   67233       5   67200   67224       5
   67197   67218       5   67194   67212       5   67191   67206       5   67167
   67179       5   67161   67176       5   67149   67170       5   67146   67164
       5   67143   67152       1   67143   67155       1   67143   67158       1
   68046   68094       1   68046   68097       1   68046   68100       1   68043
   68085       1   68043   68088       1   68043   68091       1   68040   68076
       1   68040   68079       1   68040   68082       1   68037   68067       1
   68037   68070       1   68037   68073       1   68034   68058       1   68034
   68061       1   68034   68064       1   68031   68049       1   68031   68052
       1   68031   68055       1   67953   68010       5   67947   68007       5
   67941   68001       5   67935   67998       5   67929   67992       5   67923
   67989       5   67917   67983       5   67911   67977       5   67908   67974
       5   67902   67971       5   67893   67965       5   67887   67962       5
   67884   67956       5   67881   67950       5   67878   67944       5   67875
   67938       5   67872   67932       5   67869   67926       5   67866   67920
       5   67863   67914       5   67860   67905       5   67857   67899       5
   67854   67896       5   67851   67890       5   67821   67848       5   67812
   67839       5   67791   67824       5   67782   67815       5   67764   67803
       5   67761   67794       1   67761   67797       1   67761   67800       1
   67755   67785       5   67749   67779       5   67746   67773       5   67743
   67767       5   67704   67725       5   67698   67722       5   67692   67716
       5   67683   67707       5   67680   67701       5   67677   67695       5
   67674   67689       5   67650   67662       5   67644   67659       5   67632
   67653       5   67629   67647       5   67626   67635       1   67626   67638
       1   67626   67641       1   68529   68577       1   68529   68580       1
   68529   68583       1   68526   68568       1   68526   68571       1   68526
   68574       1   68523   68559       1   68523   68562       1   68523   68565
       1   68520   68550       1   68520   68553       1   68520   68556       1
   68517   68541       1   68517   68544       1   68517   68547       1   68514
   68532       1   68514   68535       1   68514   68538       1   68436   68493
       5   68430   68490       5   68424   68484       5   68418   68481       5
   68412   68475       5   68406   68472       5   68400   68466       5   68394
   68460       5   68391   68457       5   68385   68454       5   68376   68448
       5   68370   68445       5   68367   68439       5   68364   68433       5
   68361   68427       5   68358   68421       5   68355   68415       5   68352
   68409       5   68349   68403       5   68346   68397       5   68343   68388
       5   68340   68382       5   68337   68379       5   68334   68373       5
   68304   68331       5   68295   68322       5   68274   68307       5   68265
   68298       5   68247   68286       5   68244   68277       1   68244   68280
       1   68244   68283       1   68238   68268       5   68232   68262       5
   68229   68256       5   68226   68250       5   68187   68208       5   68181
   68205       5   68175   68199       5   68166   68190       5   68163   68184
       5   68160   68178       5   68157   68172       5   68133   68145       5
   68127   68142       5   68115   68136       5   68112   68130       5   68109
   68118       1   68109   68121       1   68109   68124       1   69012   69060
       1   69012   69063       1   69012   69066       1   69009   69051       1
   69009   69054       1   69009   69057       1   69006   69042       1   69006
   69045       1   69006   69048       1   69003   69033       1   69003   69036
       1   69003   69039       1   69000   69024       1   69000   69027       1
   69000   69030       1   68997   69015       1   68997   69018       1   68997
   69021       1   68919   68976       5   68913   68973       5   68907   68967
       5   68901   68964       5   68895   68958       5   68889   68955       5
   68883   68949       5   68877   68943       5   68874   68940       5   68868
   68937       5   68859   68931       5   68853   68928       5   68850   68922
       5   68847   68916       5   68844   68910       5   68841   68904       5
   68838   68898       5   68835   68892       5   68832   68886       5   68829
   68880       5   68826   68871       5   68823   68865       5   68820   68862
       5   68817   68856       5   68787   68814       5   68778   68805       5
   68757   68790       5   68748   68781       5   68730   68769       5   68727
   68760       1   68727   68763       1   68727   68766       1   68721   68751
       5   68715   68745       5   68712   68739       5   68709   68733       5
   68670   68691       5   68664   68688       5   68658   68682       5   68649
   68673       5   68646   68667       5   68643   68661       5   68640   68655
       5   68616   68628       5   68610   68625       5   68598   68619       5
   68595   68613       5   68592   68601       1   68592   68604       1   68592
   68607       1   69495   69543       1   69495   69546       1   69495   69549
       1   69492   69534       1   69492   69537       1   69492   69540       1
   69489   69525       1   69489   69528       1   69489   69531       1   69486
   69516       1   69486   69519       1   69486   69522       1   69483   69507
       1   69483   69510       1   69483   69513       1   69480   69498       1
   69480   69501       1   69480   69504       1   69402   69459       5   69396
   69456       5   69390   69450       5   69384   69447       5   69378   69441
       5   69372   69438       5   69366   69432       5   69360   69426       5
   69357   69423       5   69351   69420       5   69342   69414       5   69336
   69411       5   69333   69405       5   69330   69399       5   69327   69393
       5   69324   69387       5   69321   69381       5   69318   69375       5
   69315   69369       5   69312   69363       5   69309   69354       5   69306
   69348       5   69303   69345       5   69300   69339       5   69270   69297
       5   69261   69288       5   69240   69273       5   69231   69264       5
   69213   69252       5   69210   69243       1   69210   69246       1   69210
   69249       1   69204   69234       5   69198   69228       5   69195   69222
       5   69192   69216       5   69153   69174       5   69147   69171       5
   69141   69165       5   69132   69156       5   69129   69150       5   69126
   69144       5   69123   69138       5   69099   69111       5   69093   69108
       5   69081   69102       5   69078   69096       5   69075   69084       1
   69075   69087       1   69075   69090       1   69978   70026       1   69978
   70029       1   69978   70032       1   69975   70017       1   69975   70020
       1   69975   70023       1   69972   70008       1   69972   70011       1
   69972   70014       1   69969   69999       1   69969   70002       1   69969
   70005       1   69966   69990       1   69966   69993       1   69966   69996
       1   69963   69981       1   69963   69984       1   69963   69987       1
   69885   69942       5   69879   69939       5   69873   69933       5   69867
   69930       5   69861   69924       5   69855   69921       5   69849   69915
       5   69843   69909       5   69840   69906       5   69834   69903       5
   69825   69897       5   69819   69894       5   69816   69888       5   69813
   69882       5   69810   69876       5   69807   69870       5   69804   69864
       5   69801   69858       5   69798   69852       5   69795   69846       5
   69792   69837       5   69789   69831       5   69786   69828       5   69783
   69822       5   69753   69780       5   69744   69771       5   69723   69756
       5   69714   69747       5   69696   69735       5   69693   69726       1
   69693   69729       1   69693   69732       1   69687   69717       5   69681
   69711       5   69678   69705       5   69675   69699       5   69636   69657
       5   69630   69654       5   69624   69648       5   69615   69639       5
   69612   69633       5   69609   69627       5   69606   69621       5   69582
   69594       5   69576   69591       5   69564   69585       5   69561   69579
       5   69558   69567       1   69558   69570       1   69558   69573       1
   70461   70509       1   70461   70512       1   70461   70515       1   70458
   70500       1   70458   70503       1   70458   70506       1   70455   70491
       1   70455   70494       1   70455   70497       1   70452   70482       1
   70452   70485       1   70452   70488       1   70449   70473       1   70449
   70476       1   70449   70479       1   70446   70464       1   70446   70467
       1   70446   70470       1   70368   70425       5   70362   70422       5
   70356   70416       5   70350   70413       5   70344   70407       5   70338
   70404       5   70332   70398       5   70326   70392       5   70323   70389
       5   70317   70386       5   70308   70380       5   70302   70377       5
   70299   70371       5   70296   70365       5   70293   70359       5   70290
   70353       5   70287   70347       5   70284   70341       5   70281   70335
       5   70278   70329       5   70275   70320       5   70272   70314       5
   70269   70311       5   70266   70305       5   70236   70263       5   70227
   70254       5   70206   70239       5   70197   70230       5   70179   70218
       5   70176   70209       1   70176   70212       1   70176   70215       1
   70170   70200       5   70164   70194       5   70161   70188       5   70158
   70182       5   70119   70140       5   70113   70137       5   70107   70131
       5   70098   70122       5   70095   70116       5   70092   70110       5
   70089   70104       5   70065   70077       5   70059   70074       5   70047
   70068       5   70044   70062       5   70041   70050       1   70041   70053
       1   70041   70056       1   70944   70992       1   70944   70995       1
   70944   70998       1   70941   70983       1   70941   70986       1   70941
   70989       1   70938   70974       1   70938   70977       1   70938   70980
       1   70935   70965       1   70935   70968       1   70935   70971       1
   70932   70956       1   70932   70959       1   70932   70962       1   70929
   70947       1   70929   70950       1   70929   70953       1   70851   70908
       5   70845   70905       5   70839   70899       5   70833   70896       5
   70827   70890       5   70821   70887       5   70815   70881       5   70809
   70875       5   70806   70872       5   70800   70869       5   70791   70863
       5   70785   70860       5   70782   70854       5   70779   70848       5
   70776   70842       5   70773   70836       5   70770   70830       5   70767
   70824       5   70764   70818       5   70761   70812       5   70758   70803
       5   70755   70797       5   70752   70794       5   70749   70788       5
   70719   70746       5   70710   70737       5   70689   70722       5   70680
   70713       5   70662   70701       5   70659   70692       1   70659   70695
       1   70659   70698       1   70653   70683       5   70647   70677       5
   70644   70671       5   70641   70665       5   70602   70623       5   70596
   70620       5   70590   70614       5   70581   70605       5   70578   70599
       5   70575   70593       5   70572   70587       5   70548   70560       5
   70542   70557       5   70530   70551       5   70527   70545       5   70524
   70533       1   70524   70536       1   70524   70539       1   71427   71475
       1   71427   71478       1   71427   71481       1   71424   71466       1
   71424   71469       1   71424   71472       1   71421   71457       1   71421
   71460       1   71421   71463       1   71418   71448       1   71418   71451
       1   71418   71454       1   71415   71439       1   71415   71442       1
   71415   71445       1   71412   71430       1   71412   71433       1   71412
   71436       1   71334   71391       5   71328   71388       5   71322   71382
       5   71316   71379       5   71310   71373       5   71304   71370       5
   71298   71364       5   71292   71358       5   71289   71355       5   71283
   71352       5   71274   71346       5   71268   71343       5   71265   71337
       5   71262   71331       5   71259   71325       5   71256   71319       5
   71253   71313       5   71250   71307       5   71247   71301       5   71244
   71295       5   71241   71286       5   71238   71280       5   71235   71277
       5   71232   71271       5   71202   71229       5   71193   71220       5
   71172   71205       5   71163   71196       5   71145   71184       5   71142
   71175       1   71142   71178       1   71142   71181       1   71136   71166
       5   71130   71160       5   71127   71154       5   71124   71148       5
   71085   71106       5   71079   71103       5   71073   71097       5   71064
   71088       5   71061   71082       5   71058   71076       5   71055   71070
       5   71031   71043       5   71025   71040       5   71013   71034       5
   71010   71028       5   71007   71016       1   71007   71019       1   71007
   71022       1   71910   71958       1   71910   71961       1   71910   71964
       1   71907   71949       1   71907   71952       1   71907   71955       1
   71904   71940       1   71904   71943       1   71904   71946       1   71901
   71931       1   71901   71934       1   71901   71937       1   71898   71922
       1   71898   71925       1   71898   71928       1   71895   71913       1
   71895   71916       1   71895   71919       1   71817   71874       5   71811
   71871       5   71805   71865       5   71799   71862       5   71793   71856
       5   71787   71853       5   71781   71847       5   71775   71841       5
   71772   71838       5   71766   71835       5   71757   71829       5   71751
   71826       5   71748   71820       5   71745   71814       5   71742   71808
       5   71739   71802       5   71736   71796       5   71733   71790       5
   71730   71784       5   71727   71778       5   71724   71769       5   71721
   71763       5   71718   71760       5   71715   71754       5   71685   71712
       5   71676   71703       5   71655   71688       5   71646   71679       5
   71628   71667       5   71625   71658       1   71625   71661       1   71625
   71664       1   71619   71649       5   71613   71643       5   71610   71637
       5   71607   71631       5   71568   71589       5   71562   71586       5
   71556   71580       5   71547   71571       5   71544   71565       5   71541
   71559       5   71538   71553       5   71514   71526       5   71508   71523
       5   71496   71517       5   71493   71511       5   71490   71499       1
   71490   71502       1   71490   71505       1   72393   72441       1   72393
   72444       1   72393   72447       1   72390   72432       1   72390   72435
       1   72390   72438       1   72387   72423       1   72387   72426       1
   72387   72429       1   72384   72414       1   72384   72417       1   72384
   72420       1   72381   72405       1   72381   72408       1   72381   72411
       1   72378   72396       1   72378   72399       1   72378   72402       1
   72300   72357       5   72294   72354       5   72288   72348       5   72282
   72345       5   72276   72339       5   72270   72336       5   72264   72330
       5   72258   72324       5   72255   72321       5   72249   72318       5
   72240   72312       5   72234   72309       5   72231   72303       5   72228
   72297       5   72225   72291       5   72222   72285       5   72219   72279
       5   72216   72273       5   72213   72267       5   72210   72261       5
   72207   72252       5   72204   72246       5   72201   72243       5   72198
   72237       5   72168   72195       5   72159   72186       5   72138   72171
       5   72129   72162       5   72111   72150       5   72108   72141       1
   72108   72144       1   72108   72147       1   72102   72132       5   72096
   72126       5   72093   72120       5   72090   72114       5   72051   72072
       5   72045   72069       5   72039   72063       5   72030   72054       5
   72027   72048       5   72024   72042       5   72021   72036       5   71997
   72009       5   71991   72006       5   71979   72000       5   71976   71994
       5   71973   71982       1   71973   71985       1   71973   71988       1
%FLAG BONDS_WITHOUT_HYDROGEN                                                    
%FORMAT(10I8)                                                                   
     408     426       2     405     423       2     402     420       2     399
     417       2     396     414       2     393     411       2     384     408
       3     375     405       3     366     402       3     360     399       3
     348     396       3     339     393       3     333     384       4     327
     384       4     321     375       4     315     375       4     309     366
       4     303     366       4     297     360       4     291     360       4
     288     348       4     282     348       4     273     339       4     267
     339       4     264     333       4     261     327       4     258     321
       4     255     315       4     252     309       4     249     303       4
     246     297       4     243     291       4     240     288       4     237
     282       4     234     273       4     231     267       4     225     261
       4     225     264       4     222     255       4     222     258       4
     216     249       4     216     252       4     213     243       4     213
     246       4     210     237       4     210     240       4     207     231
       4     207     234       4     198     222       6     198     225       6
     189     213       6     189     216       6     186     207       6     186
     210       6     171     201       4     168     198       6     168     201
       4     162     192       4     156     189       6     156     192       4
     150     186       6     144     150       4     138     171       7     135
     168       4     132     138       8     132     162       7     129     156
       4     126     150       4     123     144       4     120     141       2
     117     135       4     117     138       7     114     129       4     114
     132       7     111     126       4     108     111       7     108     123
       7      99     120       3      93     111       9      93     114       9
      93     117       9      90     108       8      84      99       4      78
      99       4      72      90       7      66      90       7      66      93
       9      63      84       4      60      78       4      57      72       4
      54      66       4      51      60       4      51      63       4      48
      54       4      48      57       4      45      48       6      45      51
       6      36      45       6      30      36       4      24      36       4
      12      30       4       9      24       4       3       9       4       3
      12       4       0       3       3       0       6       2     891     909
       2     888     906       2     885     903       2     882     900       2
     879     897       2     876     894       2     867     891       3     858
     888       3     849     885       3     843     882       3     831     879
       3     822     876       3     816     867       4     810     867       4
     804     858       4     798     858       4     792     849       4     786
     849       4     780     843       4     774     843       4     771     831
       4     765     831       4     756     822       4     750     822       4
     747     816       4     744     810       4     741     804       4     738
     798       4     735     792       4     732     786       4     729     780
       4     726     774       4     723     771       4     720     765       4
     717     756       4     714     750       4     708     744       4     708
     747       4     705     738       4     705     741       4     699     732
       4     699     735       4     696     726       4     696     729       4
     693     720       4     693     723       4     690     714       4     690
     717       4     681     705       6     681     708       6     672     696
       6     672     699       6     669     690       6     669     693       6
     654     684       4     651     681       6     651     684       4     645
     675       4     639     672       6     639     675       4     633     669
       6     627     633       4     621     654       7     618     651       4
     615     621       8     615     645       7     612     639       4     609
     633       4     606     627       4     603     624       2     600     618
       4     600     621       7     597     612       4     597     615       7
     594     609       4     591     594       7     591     606       7     582
     603       3     576     594       9     576     597       9     576     600
       9     573     591       8     567     582       4     561     582       4
     555     573       7     549     573       7     549     576       9     546
     567       4     543     561       4     540     555       4     537     549
       4     534     543       4     534     546       4     531     537       4
     531     540       4     528     531       6     528     534       6     519
     528       6     513     519       4     507     519       4     495     513
       4     492     507       4     486     492       4     486     495       4
     483     486       3     483     489       2    1374    1392       2    1371
    1389       2    1368    1386       2    1365    1383       2    1362    1380
       2    1359    1377       2    1350    1374       3    1341    1371       3
    1332    1368       3    1326    1365       3    1314    1362       3    1305
    1359       3    1299    1350       4    1293    1350       4    1287    1341
       4    1281    1341       4    1275    1332       4    1269    1332       4
    1263    1326       4    1257    1326       4    1254    1314       4    1248
    1314       4    1239    1305       4    1233    1305       4    1230    1299
       4    1227    1293       4    1224    1287       4    1221    1281       4
    1218    1275       4    1215    1269       4    1212    1263       4    1209
    1257       4    1206    1254       4    1203    1248       4    1200    1239
       4    1197    1233       4    1191    1227       4    1191    1230       4
    1188    1221       4    1188    1224       4    1182    1215       4    1182
    1218       4    1179    1209       4    1179    1212       4    1176    1203
       4    1176    1206       4    1173    1197       4    1173    1200       4
    1164    1188       6    1164    1191       6    1155    1179       6    1155
    1182       6    1152    1173       6    1152    1176       6    1137    1167
       4    1134    1164       6    1134    1167       4    1128    1158       4
    1122    1155       6    1122    1158       4    1116    1152       6    1110
    1116       4    1104    1137       7    1101    1134       4    1098    1104
       8    1098    1128       7    1095    1122       4    1092    1116       4
    1089    1110       4    1086    1107       2    1083    1101       4    1083
    1104       7    1080    1095       4    1080    1098       7    1077    1092
       4    1074    1077       7    1074    1089       7    1065    1086       3
    1059    1077       9    1059    1080       9    1059    1083       9    1056
    1074       8    1050    1065       4    1044    1065       4    1038    1056
       7    1032    1056       7    1032    1059       9    1029    1050       4
    1026    1044       4    1023    1038       4    1020    1032       4    1017
    1026       4    1017    1029       4    1014    1020       4    1014    1023
       4    1011    1014       6    1011    1017       6    1002    1011       6
     996    1002       4     990    1002       4     978     996       4     975
     990       4     969     975       4     969     978       4     966     969
       3     966     972       2    1857    1875       2    1854    1872       2
    1851    1869       2    1848    1866       2    1845    1863       2    1842
    1860       2    1833    1857       3    1824    1854       3    1815    1851
       3    1809    1848       3    1797    1845       3    1788    1842       3
    1782    1833       4    1776    1833       4    1770    1824       4    1764
    1824       4    1758    1815       4    1752    1815       4    1746    1809
       4    1740    1809       4    1737    1797       4    1731    1797       4
    1722    1788       4    1716    1788       4    1713    1782       4    1710
    1776       4    1707    1770       4    1704    1764       4    1701    1758
       4    1698    1752       4    1695    1746       4    1692    1740       4
    1689    1737       4    1686    1731       4    1683    1722       4    1680
    1716       4    1674    1710       4    1674    1713       4    1671    1704
       4    1671    1707       4    1665    1698       4    1665    1701       4
    1662    1692       4    1662    1695       4    1659    1686       4    1659
    1689       4    1656    1680       4    1656    1683       4    1647    1671
       6    1647    1674       6    1638    1662       6    1638    1665       6
    1635    1656       6    1635    1659       6    1620    1650       4    1617
    1647       6    1617    1650       4    1611    1641       4    1605    1638
       6    1605    1641       4    1599    1635       6    1593    1599       4
    1587    1620       7    1584    1617       4    1581    1587       8    1581
    1611       7    1578    1605       4    1575    1599       4    1572    1593
       4    1569    1590       2    1566    1584       4    1566    1587       7
    1563    1578       4    1563    1581       7    1560    1575       4    1557
    1560       7    1557    1572       7    1548    1569       3    1542    1560
       9    1542    1563       9    1542    1566       9    1539    1557       8
    1533    1548       4    1527    1548       4    1521    1539       7    1515
    1539       7    1515    1542       9    1512    1533       4    1509    1527
       4    1506    1521       4    1503    1515       4    1500    1509       4
    1500    1512       4    1497    1503       4    1497    1506       4    1494
    1497       6    1494    1500       6    1485    1494       6    1479    1485
       4    1473    1485       4    1461    1479       4    1458    1473       4
    1452    1458       4    1452    1461       4    1449    1452       3    1449
    1455       2    2340    2358       2    2337    2355       2    2334    2352
       2    2331    2349       2    2328    2346       2    2325    2343       2
    2316    2340       3    2307    2337       3    2298    2334       3    2292
    2331       3    2280    2328       3    2271    2325       3    2265    2316
       4    2259    2316       4    2253    2307       4    2247    2307       4
    2241    2298       4    2235    2298       4    2229    2292       4    2223
    2292       4    2220    2280       4    2214    2280       4    2205    2271
       4    2199    2271       4    2196    2265       4    2193    2259       4
    2190    2253       4    2187    2247       4    2184    2241       4    2181
    2235       4    2178    2229       4    2175    2223       4    2172    2220
       4    2169    2214       4    2166    2205       4    2163    2199       4
    2157    2193       4    2157    2196       4    2154    2187       4    2154
    2190       4    2148    2181       4    2148    2184       4    2145    2175
       4    2145    2178       4    2142    2169       4    2142    2172       4
    2139    2163       4    2139    2166       4    2130    2154       6    2130
    2157       6    2121    2145       6    2121    2148       6    2118    2139
       6    2118    2142       6    2103    2133       4    2100    2130       6
    2100    2133       4    2094    2124       4    2088    2121       6    2088
    2124       4    2082    2118       6    2076    2082       4    2070    2103
       7    2067    2100       4    2064    2070       8    2064    2094       7
    2061    2088       4    2058    2082       4    2055    2076       4    2052
    2073       2    2049    2067       4    2049    2070       7    2046    2061
       4    2046    2064       7    2043    2058       4    2040    2043       7
    2040    2055       7    2031    2052       3    2025    2043       9    2025
    2046       9    2025    2049       9    2022    2040       8    2016    2031
       4    2010    2031       4    2004    2022       7    1998    2022       7
    1998    2025       9    1995    2016       4    1992    2010       4    1989
    2004       4    1986    1998       4    1983    1992       4    1983    1995
       4    1980    1986       4    1980    1989       4    1977    1980       6
    1977    1983       6    1968    1977       6    1962    1968       4    1956
    1968       4    1944    1962       4    1941    1956       4    1935    1941
       4    1935    1944       4    1932    1935       3    1932    1938       2
    2823    2841       2    2820    2838       2    2817    2835       2    2814
    2832       2    2811    2829       2    2808    2826       2    2799    2823
       3    2790    2820       3    2781    2817       3    2775    2814       3
    2763    2811       3    2754    2808       3    2748    2799       4    2742
    2799       4    2736    2790       4    2730    2790       4    2724    2781
       4    2718    2781       4    2712    2775       4    2706    2775       4
    2703    2763       4    2697    2763       4    2688    2754       4    2682
    2754       4    2679    2748       4    2676    2742       4    2673    2736
       4    2670    2730       4    2667    2724       4    2664    2718       4
    2661    2712       4    2658    2706       4    2655    2703       4    2652
    2697       4    2649    2688       4    2646    2682       4    2640    2676
       4    2640    2679       4    2637    2670       4    2637    2673       4
    2631    2664       4    2631    2667       4    2628    2658       4    2628
    2661       4    2625    2652       4    2625    2655       4    2622    2646
       4    2622    2649       4    2613    2637       6    2613    2640       6
    2604    2628       6    2604    2631       6    2601    2622       6    2601
    2625       6    2586    2616       4    2583    2613       6    2583    2616
       4    2577    2607       4    2571    2604       6    2571    2607       4
    2565    2601       6    2559    2565       4    2553    2586       7    2550
    2583       4    2547    2553       8    2547    2577       7    2544    2571
       4    2541    2565       4    2538    2559       4    2535    2556       2
    2532    2550       4    2532    2553       7    2529    2544       4    2529
    2547       7    2526    2541       4    2523    2526       7    2523    2538
       7    2514    2535       3    2508    2526       9    2508    2529       9
    2508    2532       9    2505    2523       8    2499    2514       4    2493
    2514       4    2487    2505       7    2481    2505       7    2481    2508
       9    2478    2499       4    2475    2493       4    2472    2487       4
    2469    2481       4    2466    2475       4    2466    2478       4    2463
    2469       4    2463    2472       4    2460    2463       6    2460    2466
       6    2451    2460       6    2445    2451       4    2439    2451       4
    2427    2445       4    2424    2439       4    2418    2424       4    2418
    2427       4    2415    2418       3    2415    2421       2    3306    3324
       2    3303    3321       2    3300    3318       2    3297    3315       2
    3294    3312       2    3291    3309       2    3282    3306       3    3273
    3303       3    3264    3300       3    3258    3297       3    3246    3294
       3    3237    3291       3    3231    3282       4    3225    3282       4
    3219    3273       4    3213    3273       4    3207    3264       4    3201
    3264       4    3195    3258       4    3189    3258       4    3186    3246
       4    3180    3246       4    3171    3237       4    3165    3237       4
    3162    3231       4    3159    3225       4    3156    3219       4    3153
    3213       4    3150    3207       4    3147    3201       4    3144    3195
       4    3141    3189       4    3138    3186       4    3135    3180       4
    3132    3171       4    3129    3165       4    3123    3159       4    3123
    3162       4    3120    3153       4    3120    3156       4    3114    3147
       4    3114    3150       4    3111    3141       4    3111    3144       4
    3108    3135       4    3108    3138       4    3105    3129       4    3105
    3132       4    3096    3120       6    3096    3123       6    3087    3111
       6    3087    3114       6    3084    3105       6    3084    3108       6
    3069    3099       4    3066    3096       6    3066    3099       4    3060
    3090       4    3054    3087       6    3054    3090       4    3048    3084
       6    3042    3048       4    3036    3069       7    3033    3066       4
    3030    3036       8    3030    3060       7    3027    3054       4    3024
    3048       4    3021    3042       4    3018    3039       2    3015    3033
       4    3015    3036       7    3012    3027       4    3012    3030       7
    3009    3024       4    3006    3009       7    3006    3021       7    2997
    3018       3    2991    3009       9    2991    3012       9    2991    3015
       9    2988    3006       8    2982    2997       4    2976    2997       4
    2970    2988       7    2964    2988       7    2964    2991       9    2961
    2982       4    2958    2976       4    2955    2970       4    2952    2964
       4    2949    2958       4    2949    2961       4    2946    2952       4
    2946    2955       4    2943    2946       6    2943    2949       6    2934
    2943       6    2928    2934       4    2922    2934       4    2910    2928
       4    2907    2922       4    2901    2907       4    2901    2910       4
    2898    2901       3    2898    2904       2    3789    3807       2    3786
    3804       2    3783    3801       2    3780    3798       2    3777    3795
       2    3774    3792       2    3765    3789       3    3756    3786       3
    3747    3783       3    3741    3780       3    3729    3777       3    3720
    3774       3    3714    3765       4    3708    3765       4    3702    3756
       4    3696    3756       4    3690    3747       4    3684    3747       4
    3678    3741       4    3672    3741       4    3669    3729       4    3663
    3729       4    3654    3720       4    3648    3720       4    3645    3714
       4    3642    3708       4    3639    3702       4    3636    3696       4
    3633    3690       4    3630    3684       4    3627    3678       4    3624
    3672       4    3621    3669       4    3618    3663       4    3615    3654
       4    3612    3648       4    3606    3642       4    3606    3645       4
    3603    3636       4    3603    3639       4    3597    3630       4    3597
    3633       4    3594    3624       4    3594    3627       4    3591    3618
       4    3591    3621       4    3588    3612       4    3588    3615       4
    3579    3603       6    3579    3606       6    3570    3594       6    3570
    3597       6    3567    3588       6    3567    3591       6    3552    3582
       4    3549    3579       6    3549    3582       4    3543    3573       4
    3537    3570       6    3537    3573       4    3531    3567       6    3525
    3531       4    3519    3552       7    3516    3549       4    3513    3519
       8    3513    3543       7    3510    3537       4    3507    3531       4
    3504    3525       4    3501    3522       2    3498    3516       4    3498
    3519       7    3495    3510       4    3495    3513       7    3492    3507
       4    3489    3492       7    3489    3504       7    3480    3501       3
    3474    3492       9    3474    3495       9    3474    3498       9    3471
    3489       8    3465    3480       4    3459    3480       4    3453    3471
       7    3447    3471       7    3447    3474       9    3444    3465       4
    3441    3459       4    3438    3453       4    3435    3447       4    3432
    3441       4    3432    3444       4    3429    3435       4    3429    3438
       4    3426    3429       6    3426    3432       6    3417    3426       6
    3411    3417       4    3405    3417       4    3393    3411       4    3390
    3405       4    3384    3390       4    3384    3393       4    3381    3384
       3    3381    3387       2    4272    4290       2    4269    4287       2
    4266    4284       2    4263    4281       2    4260    4278       2    4257
    4275       2    4248    4272       3    4239    4269       3    4230    4266
       3    4224    4263       3    4212    4260       3    4203    4257       3
    4197    4248       4    4191    4248       4    4185    4239       4    4179
    4239       4    4173    4230       4    4167    4230       4    4161    4224
       4    4155    4224       4    4152    4212       4    4146    4212       4
    4137    4203       4    4131    4203       4    4128    4197       4    4125
    4191       4    4122    4185       4    4119    4179       4    4116    4173
       4    4113    4167       4    4110    4161       4    4107    4155       4
    4104    4152       4    4101    4146       4    4098    4137       4    4095
    4131       4    4089    4125       4    4089    4128       4    4086    4119
       4    4086    4122       4    4080    4113       4    4080    4116       4
    4077    4107       4    4077    4110       4    4074    4101       4    4074
    4104       4    4071    4095       4    4071    4098       4    4062    4086
       6    4062    4089       6    4053    4077       6    4053    4080       6
    4050    4071       6    4050    4074       6    4035    4065       4    4032
    4062       6    4032    4065       4    4026    4056       4    4020    4053
       6    4020    4056       4    4014    4050       6    4008    4014       4
    4002    4035       7    3999    4032       4    3996    4002       8    3996
    4026       7    3993    4020       4    3990    4014       4    3987    4008
       4    3984    4005       2    3981    3999       4    3981    4002       7
    3978    3993       4    3978    3996       7    3975    3990       4    3972
    3975       7    3972    3987       7    3963    3984       3    3957    3975
       9    3957    3978       9    3957    3981       9    3954    3972       8
    3948    3963       4    3942    3963       4    3936    3954       7    3930
    3954       7    3930    3957       9    3927    3948       4    3924    3942
       4    3921    3936       4    3918    3930       4    3915    3924       4
    3915    3927       4    3912    3918       4    3912    3921       4    3909
    3912       6    3909    3915       6    3900    3909       6    3894    3900
       4    3888    3900       4    3876    3894       4    3873    3888       4
    3867    3873       4    3867    3876       4    3864    3867       3    3864
    3870       2    4755    4773       2    4752    4770       2    4749    4767
       2    4746    4764       2    4743    4761       2    4740    4758       2
    4731    4755       3    4722    4752       3    4713    4749       3    4707
    4746       3    4695    4743       3    4686    4740       3    4680    4731
       4    4674    4731       4    4668    4722       4    4662    4722       4
    4656    4713       4    4650    4713       4    4644    4707       4    4638
    4707       4    4635    4695       4    4629    4695       4    4620    4686
       4    4614    4686       4    4611    4680       4    4608    4674       4
    4605    4668       4    4602    4662       4    4599    4656       4    4596
    4650       4    4593    4644       4    4590    4638       4    4587    4635
       4    4584    4629       4    4581    4620       4    4578    4614       4
    4572    4608       4    4572    4611       4    4569    4602       4    4569
    4605       4    4563    4596       4    4563    4599       4    4560    4590
       4    4560    4593       4    4557    4584       4    4557    4587       4
    4554    4578       4    4554    4581       4    4545    4569       6    4545
    4572       6    4536    4560       6    4536    4563       6    4533    4554
       6    4533    4557       6    4518    4548       4    4515    4545       6
    4515    4548       4    4509    4539       4    4503    4536       6    4503
    4539       4    4497    4533       6    4491    4497       4    4485    4518
       7    4482    4515       4    4479    4485       8    4479    4509       7
    4476    4503       4    4473    4497       4    4470    4491       4    4467
    4488       2    4464    4482       4    4464    4485       7    4461    4476
       4    4461    4479       7    4458    4473       4    4455    4458       7
    4455    4470       7    4446    4467       3    4440    4458       9    4440
    4461       9    4440    4464       9    4437    4455       8    4431    4446
       4    4425    4446       4    4419    4437       7    4413    4437       7
    4413    4440       9    4410    4431       4    4407    4425       4    4404
    4419       4    4401    4413       4    4398    4407       4    4398    4410
       4    4395    4401       4    4395    4404       4    4392    4395       6
    4392    4398       6    4383    4392       6    4377    4383       4    4371
    4383       4    4359    4377       4    4356    4371       4    4350    4356
       4    4350    4359       4    4347    4350       3    4347    4353       2
    5238    5256       2    5235    5253       2    5232    5250       2    5229
    5247       2    5226    5244       2    5223    5241       2    5214    5238
       3    5205    5235       3    5196    5232       3    5190    5229       3
    5178    5226       3    5169    5223       3    5163    5214       4    5157
    5214       4    5151    5205       4    5145    5205       4    5139    5196
       4    5133    5196       4    5127    5190       4    5121    5190       4
    5118    5178       4    5112    5178       4    5103    5169       4    5097
    5169       4    5094    5163       4    5091    5157       4    5088    5151
       4    5085    5145       4    5082    5139       4    5079    5133       4
    5076    5127       4    5073    5121       4    5070    5118       4    5067
    5112       4    5064    5103       4    5061    5097       4    5055    5091
       4    5055    5094       4    5052    5085       4    5052    5088       4
    5046    5079       4    5046    5082       4    5043    5073       4    5043
    5076       4    5040    5067       4    5040    5070       4    5037    5061
       4    5037    5064       4    5028    5052       6    5028    5055       6
    5019    5043       6    5019    5046       6    5016    5037       6    5016
    5040       6    5001    5031       4    4998    5028       6    4998    5031
       4    4992    5022       4    4986    5019       6    4986    5022       4
    4980    5016       6    4974    4980       4    4968    5001       7    4965
    4998       4    4962    4968       8    4962    4992       7    4959    4986
       4    4956    4980       4    4953    4974       4    4950    4971       2
    4947    4965       4    4947    4968       7    4944    4959       4    4944
    4962       7    4941    4956       4    4938    4941       7    4938    4953
       7    4929    4950       3    4923    4941       9    4923    4944       9
    4923    4947       9    4920    4938       8    4914    4929       4    4908
    4929       4    4902    4920       7    4896    4920       7    4896    4923
       9    4893    4914       4    4890    4908       4    4887    4902       4
    4884    4896       4    4881    4890       4    4881    4893       4    4878
    4884       4    4878    4887       4    4875    4878       6    4875    4881
       6    4866    4875       6    4860    4866       4    4854    4866       4
    4842    4860       4    4839    4854       4    4833    4839       4    4833
    4842       4    4830    4833       3    4830    4836       2    5721    5739
       2    5718    5736       2    5715    5733       2    5712    5730       2
    5709    5727       2    5706    5724       2    5697    5721       3    5688
    5718       3    5679    5715       3    5673    5712       3    5661    5709
       3    5652    5706       3    5646    5697       4    5640    5697       4
    5634    5688       4    5628    5688       4    5622    5679       4    5616
    5679       4    5610    5673       4    5604    5673       4    5601    5661
       4    5595    5661       4    5586    5652       4    5580    5652       4
    5577    5646       4    5574    5640       4    5571    5634       4    5568
    5628       4    5565    5622       4    5562    5616       4    5559    5610
       4    5556    5604       4    5553    5601       4    5550    5595       4
    5547    5586       4    5544    5580       4    5538    5574       4    5538
    5577       4    5535    5568       4    5535    5571       4    5529    5562
       4    5529    5565       4    5526    5556       4    5526    5559       4
    5523    5550       4    5523    5553       4    5520    5544       4    5520
    5547       4    5511    5535       6    5511    5538       6    5502    5526
       6    5502    5529       6    5499    5520       6    5499    5523       6
    5484    5514       4    5481    5511       6    5481    5514       4    5475
    5505       4    5469    5502       6    5469    5505       4    5463    5499
       6    5457    5463       4    5451    5484       7    5448    5481       4
    5445    5451       8    5445    5475       7    5442    5469       4    5439
    5463       4    5436    5457       4    5433    5454       2    5430    5448
       4    5430    5451       7    5427    5442       4    5427    5445       7
    5424    5439       4    5421    5424       7    5421    5436       7    5412
    5433       3    5406    5424       9    5406    5427       9    5406    5430
       9    5403    5421       8    5397    5412       4    5391    5412       4
    5385    5403       7    5379    5403       7    5379    5406       9    5376
    5397       4    5373    5391       4    5370    5385       4    5367    5379
       4    5364    5373       4    5364    5376       4    5361    5367       4
    5361    5370       4    5358    5361       6    5358    5364       6    5349
    5358       6    5343    5349       4    5337    5349       4    5325    5343
       4    5322    5337       4    5316    5322       4    5316    5325       4
    5313    5316       3    5313    5319       2    6204    6222       2    6201
    6219       2    6198    6216       2    6195    6213       2    6192    6210
       2    6189    6207       2    6180    6204       3    6171    6201       3
    6162    6198       3    6156    6195       3    6144    6192       3    6135
    6189       3    6129    6180       4    6123    6180       4    6117    6171
       4    6111    6171       4    6105    6162       4    6099    6162       4
    6093    6156       4    6087    6156       4    6084    6144       4    6078
    6144       4    6069    6135       4    6063    6135       4    6060    6129
       4    6057    6123       4    6054    6117       4    6051    6111       4
    6048    6105       4    6045    6099       4    6042    6093       4    6039
    6087       4    6036    6084       4    6033    6078       4    6030    6069
       4    6027    6063       4    6021    6057       4    6021    6060       4
    6018    6051       4    6018    6054       4    6012    6045       4    6012
    6048       4    6009    6039       4    6009    6042       4    6006    6033
       4    6006    6036       4    6003    6027       4    6003    6030       4
    5994    6018       6    5994    6021       6    5985    6009       6    5985
    6012       6    5982    6003       6    5982    6006       6    5967    5997
       4    5964    5994       6    5964    5997       4    5958    5988       4
    5952    5985       6    5952    5988       4    5946    5982       6    5940
    5946       4    5934    5967       7    5931    5964       4    5928    5934
       8    5928    5958       7    5925    5952       4    5922    5946       4
    5919    5940       4    5916    5937       2    5913    5931       4    5913
    5934       7    5910    5925       4    5910    5928       7    5907    5922
       4    5904    5907       7    5904    5919       7    5895    5916       3
    5889    5907       9    5889    5910       9    5889    5913       9    5886
    5904       8    5880    5895       4    5874    5895       4    5868    5886
       7    5862    5886       7    5862    5889       9    5859    5880       4
    5856    5874       4    5853    5868       4    5850    5862       4    5847
    5856       4    5847    5859       4    5844    5850       4    5844    5853
       4    5841    5844       6    5841    5847       6    5832    5841       6
    5826    5832       4    5820    5832       4    5808    5826       4    5805
    5820       4    5799    5805       4    5799    5808       4    5796    5799
       3    5796    5802       2    6687    6705       2    6684    6702       2
    6681    6699       2    6678    6696       2    6675    6693       2    6672
    6690       2    6663    6687       3    6654    6684       3    6645    6681
       3    6639    6678       3    6627    6675       3    6618    6672       3
    6612    6663       4    6606    6663       4    6600    6654       4    6594
    6654       4    6588    6645       4    6582    6645       4    6576    6639
       4    6570    6639       4    6567    6627       4    6561    6627       4
    6552    6618       4    6546    6618       4    6543    6612       4    6540
    6606       4    6537    6600       4    6534    6594       4    6531    6588
       4    6528    6582       4    6525    6576       4    6522    6570       4
    6519    6567       4    6516    6561       4    6513    6552       4    6510
    6546       4    6504    6540       4    6504    6543       4    6501    6534
       4    6501    6537       4    6495    6528       4    6495    6531       4
    6492    6522       4    6492    6525       4    6489    6516       4    6489
    6519       4    6486    6510       4    6486    6513       4    6477    6501
       6    6477    6504       6    6468    6492       6    6468    6495       6
    6465    6486       6    6465    6489       6    6450    6480       4    6447
    6477       6    6447    6480       4    6441    6471       4    6435    6468
       6    6435    6471       4    6429    6465       6    6423    6429       4
    6417    6450       7    6414    6447       4    6411    6417       8    6411
    6441       7    6408    6435       4    6405    6429       4    6402    6423
       4    6399    6420       2    6396    6414       4    6396    6417       7
    6393    6408       4    6393    6411       7    6390    6405       4    6387
    6390       7    6387    6402       7    6378    6399       3    6372    6390
       9    6372    6393       9    6372    6396       9    6369    6387       8
    6363    6378       4    6357    6378       4    6351    6369       7    6345
    6369       7    6345    6372       9    6342    6363       4    6339    6357
       4    6336    6351       4    6333    6345       4    6330    6339       4
    6330    6342       4    6327    6333       4    6327    6336       4    6324
    6327       6    6324    6330       6    6315    6324       6    6309    6315
       4    6303    6315       4    6291    6309       4    6288    6303       4
    6282    6288       4    6282    6291       4    6279    6282       3    6279
    6285       2    7170    7188       2    7167    7185       2    7164    7182
       2    7161    7179       2    7158    7176       2    7155    7173       2
    7146    7170       3    7137    7167       3    7128    7164       3    7122
    7161       3    7110    7158       3    7101    7155       3    7095    7146
       4    7089    7146       4    7083    7137       4    7077    7137       4
    7071    7128       4    7065    7128       4    7059    7122       4    7053
    7122       4    7050    7110       4    7044    7110       4    7035    7101
       4    7029    7101       4    7026    7095       4    7023    7089       4
    7020    7083       4    7017    7077       4    7014    7071       4    7011
    7065       4    7008    7059       4    7005    7053       4    7002    7050
       4    6999    7044       4    6996    7035       4    6993    7029       4
    6987    7023       4    6987    7026       4    6984    7017       4    6984
    7020       4    6978    7011       4    6978    7014       4    6975    7005
       4    6975    7008       4    6972    6999       4    6972    7002       4
    6969    6993       4    6969    6996       4    6960    6984       6    6960
    6987       6    6951    6975       6    6951    6978       6    6948    6969
       6    6948    6972       6    6933    6963       4    6930    6960       6
    6930    6963       4    6924    6954       4    6918    6951       6    6918
    6954       4    6912    6948       6    6906    6912       4    6900    6933
       7    6897    6930       4    6894    6900       8    6894    6924       7
    6891    6918       4    6888    6912       4    6885    6906       4    6882
    6903       2    6879    6897       4    6879    6900       7    6876    6891
       4    6876    6894       7    6873    6888       4    6870    6873       7
    6870    6885       7    6861    6882       3    6855    6873       9    6855
    6876       9    6855    6879       9    6852    6870       8    6846    6861
       4    6840    6861       4    6834    6852       7    6828    6852       7
    6828    6855       9    6825    6846       4    6822    6840       4    6819
    6834       4    6816    6828       4    6813    6822       4    6813    6825
       4    6810    6816       4    6810    6819       4    6807    6810       6
    6807    6813       6    6798    6807       6    6792    6798       4    6786
    6798       4    6774    6792       4    6771    6786       4    6765    6771
       4    6765    6774       4    6762    6765       3    6762    6768       2
    7653    7671       2    7650    7668       2    7647    7665       2    7644
    7662       2    7641    7659       2    7638    7656       2    7629    7653
       3    7620    7650       3    7611    7647       3    7605    7644       3
    7593    7641       3    7584    7638       3    7578    7629       4    7572
    7629       4    7566    7620       4    7560    7620       4    7554    7611
       4    7548    7611       4    7542    7605       4    7536    7605       4
    7533    7593       4    7527    7593       4    7518    7584       4    7512
    7584       4    7509    7578       4    7506    7572       4    7503    7566
       4    7500    7560       4    7497    7554       4    7494    7548       4
    7491    7542       4    7488    7536       4    7485    7533       4    7482
    7527       4    7479    7518       4    7476    7512       4    7470    7506
       4    7470    7509       4    7467    7500       4    7467    7503       4
    7461    7494       4    7461    7497       4    7458    7488       4    7458
    7491       4    7455    7482       4    7455    7485       4    7452    7476
       4    7452    7479       4    7443    7467       6    7443    7470       6
    7434    7458       6    7434    7461       6    7431    7452       6    7431
    7455       6    7416    7446       4    7413    7443       6    7413    7446
       4    7407    7437       4    7401    7434       6    7401    7437       4
    7395    7431       6    7389    7395       4    7383    7416       7    7380
    7413       4    7377    7383       8    7377    7407       7    7374    7401
       4    7371    7395       4    7368    7389       4    7365    7386       2
    7362    7380       4    7362    7383       7    7359    7374       4    7359
    7377       7    7356    7371       4    7353    7356       7    7353    7368
       7    7344    7365       3    7338    7356       9    7338    7359       9
    7338    7362       9    7335    7353       8    7329    7344       4    7323
    7344       4    7317    7335       7    7311    7335       7    7311    7338
       9    7308    7329       4    7305    7323       4    7302    7317       4
    7299    7311       4    7296    7305       4    7296    7308       4    7293
    7299       4    7293    7302       4    7290    7293       6    7290    7296
       6    7281    7290       6    7275    7281       4    7269    7281       4
    7257    7275       4    7254    7269       4    7248    7254       4    7248
    7257       4    7245    7248       3    7245    7251       2    8136    8154
       2    8133    8151       2    8130    8148       2    8127    8145       2
    8124    8142       2    8121    8139       2    8112    8136       3    8103
    8133       3    8094    8130       3    8088    8127       3    8076    8124
       3    8067    8121       3    8061    8112       4    8055    8112       4
    8049    8103       4    8043    8103       4    8037    8094       4    8031
    8094       4    8025    8088       4    8019    8088       4    8016    8076
       4    8010    8076       4    8001    8067       4    7995    8067       4
    7992    8061       4    7989    8055       4    7986    8049       4    7983
    8043       4    7980    8037       4    7977    8031       4    7974    8025
       4    7971    8019       4    7968    8016       4    7965    8010       4
    7962    8001       4    7959    7995       4    7953    7989       4    7953
    7992       4    7950    7983       4    7950    7986       4    7944    7977
       4    7944    7980       4    7941    7971       4    7941    7974       4
    7938    7965       4    7938    7968       4    7935    7959       4    7935
    7962       4    7926    7950       6    7926    7953       6    7917    7941
       6    7917    7944       6    7914    7935       6    7914    7938       6
    7899    7929       4    7896    7926       6    7896    7929       4    7890
    7920       4    7884    7917       6    7884    7920       4    7878    7914
       6    7872    7878       4    7866    7899       7    7863    7896       4
    7860    7866       8    7860    7890       7    7857    7884       4    7854
    7878       4    7851    7872       4    7848    7869       2    7845    7863
       4    7845    7866       7    7842    7857       4    7842    7860       7
    7839    7854       4    7836    7839       7    7836    7851       7    7827
    7848       3    7821    7839       9    7821    7842       9    7821    7845
       9    7818    7836       8    7812    7827       4    7806    7827       4
    7800    7818       7    7794    7818       7    7794    7821       9    7791
    7812       4    7788    7806       4    7785    7800       4    7782    7794
       4    7779    7788       4    7779    7791       4    7776    7782       4
    7776    7785       4    7773    7776       6    7773    7779       6    7764
    7773       6    7758    7764       4    7752    7764       4    7740    7758
       4    7737    7752       4    7731    7737       4    7731    7740       4
    7728    7731       3    7728    7734       2    8619    8637       2    8616
    8634       2    8613    8631       2    8610    8628       2    8607    8625
       2    8604    8622       2    8595    8619       3    8586    8616       3
    8577    8613       3    8571    8610       3    8559    8607       3    8550
    8604       3    8544    8595       4    8538    8595       4    8532    8586
       4    8526    8586       4    8520    8577       4    8514    8577       4
    8508    8571       4    8502    8571       4    8499    8559       4    8493
    8559       4    8484    8550       4    8478    8550       4    8475    8544
       4    8472    8538       4    8469    8532       4    8466    8526       4
    8463    8520       4    8460    8514       4    8457    8508       4    8454
    8502       4    8451    8499       4    8448    8493       4    8445    8484
       4    8442    8478       4    8436    8472       4    8436    8475       4
    8433    8466       4    8433    8469       4    8427    8460       4    8427
    8463       4    8424    8454       4    8424    8457       4    8421    8448
       4    8421    8451       4    8418    8442       4    8418    8445       4
    8409    8433       6    8409    8436       6    8400    8424       6    8400
    8427       6    8397    8418       6    8397    8421       6    8382    8412
       4    8379    8409       6    8379    8412       4    8373    8403       4
    8367    8400       6    8367    8403       4    8361    8397       6    8355
    8361       4    8349    8382       7    8346    8379       4    8343    8349
       8    8343    8373       7    8340    8367       4    8337    8361       4
    8334    8355       4    8331    8352       2    8328    8346       4    8328
    8349       7    8325    8340       4    8325    8343       7    8322    8337
       4    8319    8322       7    8319    8334       7    8310    8331       3
    8304    8322       9    8304    8325       9    8304    8328       9    8301
    8319       8    8295    8310       4    8289    8310       4    8283    8301
       7    8277    8301       7    8277    8304       9    8274    8295       4
    8271    8289       4    8268    8283       4    8265    8277       4    8262
    8271       4    8262    8274       4    8259    8265       4    8259    8268
       4    8256    8259       6    8256    8262       6    8247    8256       6
    8241    8247       4    8235    8247       4    8223    8241       4    8220
    8235       4    8214    8220       4    8214    8223       4    8211    8214
       3    8211    8217       2    9102    9120       2    9099    9117       2
    9096    9114       2    9093    9111       2    9090    9108       2    9087
    9105       2    9078    9102       3    9069    9099       3    9060    9096
       3    9054    9093       3    9042    9090       3    9033    9087       3
    9027    9078       4    9021    9078       4    9015    9069       4    9009
    9069       4    9003    9060       4    8997    9060       4    8991    9054
       4    8985    9054       4    8982    9042       4    8976    9042       4
    8967    9033       4    8961    9033       4    8958    9027       4    8955
    9021       4    8952    9015       4    8949    9009       4    8946    9003
       4    8943    8997       4    8940    8991       4    8937    8985       4
    8934    8982       4    8931    8976       4    8928    8967       4    8925
    8961       4    8919    8955       4    8919    8958       4    8916    8949
       4    8916    8952       4    8910    8943       4    8910    8946       4
    8907    8937       4    8907    8940       4    8904    8931       4    8904
    8934       4    8901    8925       4    8901    8928       4    8892    8916
       6    8892    8919       6    8883    8907       6    8883    8910       6
    8880    8901       6    8880    8904       6    8865    8895       4    8862
    8892       6    8862    8895       4    8856    8886       4    8850    8883
       6    8850    8886       4    8844    8880       6    8838    8844       4
    8832    8865       7    8829    8862       4    8826    8832       8    8826
    8856       7    8823    8850       4    8820    8844       4    8817    8838
       4    8814    8835       2    8811    8829       4    8811    8832       7
    8808    8823       4    8808    8826       7    8805    8820       4    8802
    8805       7    8802    8817       7    8793    8814       3    8787    8805
       9    8787    8808       9    8787    8811       9    8784    8802       8
    8778    8793       4    8772    8793       4    8766    8784       7    8760
    8784       7    8760    8787       9    8757    8778       4    8754    8772
       4    8751    8766       4    8748    8760       4    8745    8754       4
    8745    8757       4    8742    8748       4    8742    8751       4    8739
    8742       6    8739    8745       6    8730    8739       6    8724    8730
       4    8718    8730       4    8706    8724       4    8703    8718       4
    8697    8703       4    8697    8706       4    8694    8697       3    8694
    8700       2    9585    9603       2    9582    9600       2    9579    9597
       2    9576    9594       2    9573    9591       2    9570    9588       2
    9561    9585       3    9552    9582       3    9543    9579       3    9537
    9576       3    9525    9573       3    9516    9570       3    9510    9561
       4    9504    9561       4    9498    9552       4    9492    9552       4
    9486    9543       4    9480    9543       4    9474    9537       4    9468
    9537       4    9465    9525       4    9459    9525       4    9450    9516
       4    9444    9516       4    9441    9510       4    9438    9504       4
    9435    9498       4    9432    9492       4    9429    9486       4    9426
    9480       4    9423    9474       4    9420    9468       4    9417    9465
       4    9414    9459       4    9411    9450       4    9408    9444       4
    9402    9438       4    9402    9441       4    9399    9432       4    9399
    9435       4    9393    9426       4    9393    9429       4    9390    9420
       4    9390    9423       4    9387    9414       4    9387    9417       4
    9384    9408       4    9384    9411       4    9375    9399       6    9375
    9402       6    9366    9390       6    9366    9393       6    9363    9384
       6    9363    9387       6    9348    9378       4    9345    9375       6
    9345    9378       4    9339    9369       4    9333    9366       6    9333
    9369       4    9327    9363       6    9321    9327       4    9315    9348
       7    9312    9345       4    9309    9315       8    9309    9339       7
    9306    9333       4    9303    9327       4    9300    9321       4    9297
    9318       2    9294    9312       4    9294    9315       7    9291    9306
       4    9291    9309       7    9288    9303       4    9285    9288       7
    9285    9300       7    9276    9297       3    9270    9288       9    9270
    9291       9    9270    9294       9    9267    9285       8    9261    9276
       4    9255    9276       4    9249    9267       7    9243    9267       7
    9243    9270       9    9240    9261       4    9237    9255       4    9234
    9249       4    9231    9243       4    9228    9237       4    9228    9240
       4    9225    9231       4    9225    9234       4    9222    9225       6
    9222    9228       6    9213    9222       6    9207    9213       4    9201
    9213       4    9189    9207       4    9186    9201       4    9180    9186
       4    9180    9189       4    9177    9180       3    9177    9183       2
   10068   10086       2   10065   10083       2   10062   10080       2   10059
   10077       2   10056   10074       2   10053   10071       2   10044   10068
       3   10035   10065       3   10026   10062       3   10020   10059       3
   10008   10056       3    9999   10053       3    9993   10044       4    9987
   10044       4    9981   10035       4    9975   10035       4    9969   10026
       4    9963   10026       4    9957   10020       4    9951   10020       4
    9948   10008       4    9942   10008       4    9933    9999       4    9927
    9999       4    9924    9993       4    9921    9987       4    9918    9981
       4    9915    9975       4    9912    9969       4    9909    9963       4
    9906    9957       4    9903    9951       4    9900    9948       4    9897
    9942       4    9894    9933       4    9891    9927       4    9885    9921
       4    9885    9924       4    9882    9915       4    9882    9918       4
    9876    9909       4    9876    9912       4    9873    9903       4    9873
    9906       4    9870    9897       4    9870    9900       4    9867    9891
       4    9867    9894       4    9858    9882       6    9858    9885       6
    9849    9873       6    9849    9876       6    9846    9867       6    9846
    9870       6    9831    9861       4    9828    9858       6    9828    9861
       4    9822    9852       4    9816    9849       6    9816    9852       4
    9810    9846       6    9804    9810       4    9798    9831       7    9795
    9828       4    9792    9798       8    9792    9822       7    9789    9816
       4    9786    9810       4    9783    9804       4    9780    9801       2
    9777    9795       4    9777    9798       7    9774    9789       4    9774
    9792       7    9771    9786       4    9768    9771       7    9768    9783
       7    9759    9780       3    9753    9771       9    9753    9774       9
    9753    9777       9    9750    9768       8    9744    9759       4    9738
    9759       4    9732    9750       7    9726    9750       7    9726    9753
       9    9723    9744       4    9720    9738       4    9717    9732       4
    9714    9726       4    9711    9720       4    9711    9723       4    9708
    9714       4    9708    9717       4    9705    9708       6    9705    9711
       6    9696    9705       6    9690    9696       4    9684    9696       4
    9672    9690       4    9669    9684       4    9663    9669       4    9663
    9672       4    9660    9663       3    9660    9666       2   10551   10569
       2   10548   10566       2   10545   10563       2   10542   10560       2
   10539   10557       2   10536   10554       2   10527   10551       3   10518
   10548       3   10509   10545       3   10503   10542       3   10491   10539
       3   10482   10536       3   10476   10527       4   10470   10527       4
   10464   10518       4   10458   10518       4   10452   10509       4   10446
   10509       4   10440   10503       4   10434   10503       4   10431   10491
       4   10425   10491       4   10416   10482       4   10410   10482       4
   10407   10476       4   10404   10470       4   10401   10464       4   10398
   10458       4   10395   10452       4   10392   10446       4   10389   10440
       4   10386   10434       4   10383   10431       4   10380   10425       4
   10377   10416       4   10374   10410       4   10368   10404       4   10368
   10407       4   10365   10398       4   10365   10401       4   10359   10392
       4   10359   10395       4   10356   10386       4   10356   10389       4
   10353   10380       4   10353   10383       4   10350   10374       4   10350
   10377       4   10341   10365       6   10341   10368       6   10332   10356
       6   10332   10359       6   10329   10350       6   10329   10353       6
   10314   10344       4   10311   10341       6   10311   10344       4   10305
   10335       4   10299   10332       6   10299   10335       4   10293   10329
       6   10287   10293       4   10281   10314       7   10278   10311       4
   10275   10281       8   10275   10305       7   10272   10299       4   10269
   10293       4   10266   10287       4   10263   10284       2   10260   10278
       4   10260   10281       7   10257   10272       4   10257   10275       7
   10254   10269       4   10251   10254       7   10251   10266       7   10242
   10263       3   10236   10254       9   10236   10257       9   10236   10260
       9   10233   10251       8   10227   10242       4   10221   10242       4
   10215   10233       7   10209   10233       7   10209   10236       9   10206
   10227       4   10203   10221       4   10200   10215       4   10197   10209
       4   10194   10203       4   10194   10206       4   10191   10197       4
   10191   10200       4   10188   10191       6   10188   10194       6   10179
   10188       6   10173   10179       4   10167   10179       4   10155   10173
       4   10152   10167       4   10146   10152       4   10146   10155       4
   10143   10146       3   10143   10149       2   11034   11052       2   11031
   11049       2   11028   11046       2   11025   11043       2   11022   11040
       2   11019   11037       2   11010   11034       3   11001   11031       3
   10992   11028       3   10986   11025       3   10974   11022       3   10965
   11019       3   10959   11010       4   10953   11010       4   10947   11001
       4   10941   11001       4   10935   10992       4   10929   10992       4
   10923   10986       4   10917   10986       4   10914   10974       4   10908
   10974       4   10899   10965       4   10893   10965       4   10890   10959
       4   10887   10953       4   10884   10947       4   10881   10941       4
   10878   10935       4   10875   10929       4   10872   10923       4   10869
   10917       4   10866   10914       4   10863   10908       4   10860   10899
       4   10857   10893       4   10851   10887       4   10851   10890       4
   10848   10881       4   10848   10884       4   10842   10875       4   10842
   10878       4   10839   10869       4   10839   10872       4   10836   10863
       4   10836   10866       4   10833   10857       4   10833   10860       4
   10824   10848       6   10824   10851       6   10815   10839       6   10815
   10842       6   10812   10833       6   10812   10836       6   10797   10827
       4   10794   10824       6   10794   10827       4   10788   10818       4
   10782   10815       6   10782   10818       4   10776   10812       6   10770
   10776       4   10764   10797       7   10761   10794       4   10758   10764
       8   10758   10788       7   10755   10782       4   10752   10776       4
   10749   10770       4   10746   10767       2   10743   10761       4   10743
   10764       7   10740   10755       4   10740   10758       7   10737   10752
       4   10734   10737       7   10734   10749       7   10725   10746       3
   10719   10737       9   10719   10740       9   10719   10743       9   10716
   10734       8   10710   10725       4   10704   10725       4   10698   10716
       7   10692   10716       7   10692   10719       9   10689   10710       4
   10686   10704       4   10683   10698       4   10680   10692       4   10677
   10686       4   10677   10689       4   10674   10680       4   10674   10683
       4   10671   10674       6   10671   10677       6   10662   10671       6
   10656   10662       4   10650   10662       4   10638   10656       4   10635
   10650       4   10629   10635       4   10629   10638       4   10626   10629
       3   10626   10632       2   11517   11535       2   11514   11532       2
   11511   11529       2   11508   11526       2   11505   11523       2   11502
   11520       2   11493   11517       3   11484   11514       3   11475   11511
       3   11469   11508       3   11457   11505       3   11448   11502       3
   11442   11493       4   11436   11493       4   11430   11484       4   11424
   11484       4   11418   11475       4   11412   11475       4   11406   11469
       4   11400   11469       4   11397   11457       4   11391   11457       4
   11382   11448       4   11376   11448       4   11373   11442       4   11370
   11436       4   11367   11430       4   11364   11424       4   11361   11418
       4   11358   11412       4   11355   11406       4   11352   11400       4
   11349   11397       4   11346   11391       4   11343   11382       4   11340
   11376       4   11334   11370       4   11334   11373       4   11331   11364
       4   11331   11367       4   11325   11358       4   11325   11361       4
   11322   11352       4   11322   11355       4   11319   11346       4   11319
   11349       4   11316   11340       4   11316   11343       4   11307   11331
       6   11307   11334       6   11298   11322       6   11298   11325       6
   11295   11316       6   11295   11319       6   11280   11310       4   11277
   11307       6   11277   11310       4   11271   11301       4   11265   11298
       6   11265   11301       4   11259   11295       6   11253   11259       4
   11247   11280       7   11244   11277       4   11241   11247       8   11241
   11271       7   11238   11265       4   11235   11259       4   11232   11253
       4   11229   11250       2   11226   11244       4   11226   11247       7
   11223   11238       4   11223   11241       7   11220   11235       4   11217
   11220       7   11217   11232       7   11208   11229       3   11202   11220
       9   11202   11223       9   11202   11226       9   11199   11217       8
   11193   11208       4   11187   11208       4   11181   11199       7   11175
   11199       7   11175   11202       9   11172   11193       4   11169   11187
       4   11166   11181       4   11163   11175       4   11160   11169       4
   11160   11172       4   11157   11163       4   11157   11166       4   11154
   11157       6   11154   11160       6   11145   11154       6   11139   11145
       4   11133   11145       4   11121   11139       4   11118   11133       4
   11112   11118       4   11112   11121       4   11109   11112       3   11109
   11115       2   12000   12018       2   11997   12015       2   11994   12012
       2   11991   12009       2   11988   12006       2   11985   12003       2
   11976   12000       3   11967   11997       3   11958   11994       3   11952
   11991       3   11940   11988       3   11931   11985       3   11925   11976
       4   11919   11976       4   11913   11967       4   11907   11967       4
   11901   11958       4   11895   11958       4   11889   11952       4   11883
   11952       4   11880   11940       4   11874   11940       4   11865   11931
       4   11859   11931       4   11856   11925       4   11853   11919       4
   11850   11913       4   11847   11907       4   11844   11901       4   11841
   11895       4   11838   11889       4   11835   11883       4   11832   11880
       4   11829   11874       4   11826   11865       4   11823   11859       4
   11817   11853       4   11817   11856       4   11814   11847       4   11814
   11850       4   11808   11841       4   11808   11844       4   11805   11835
       4   11805   11838       4   11802   11829       4   11802   11832       4
   11799   11823       4   11799   11826       4   11790   11814       6   11790
   11817       6   11781   11805       6   11781   11808       6   11778   11799
       6   11778   11802       6   11763   11793       4   11760   11790       6
   11760   11793       4   11754   11784       4   11748   11781       6   11748
   11784       4   11742   11778       6   11736   11742       4   11730   11763
       7   11727   11760       4   11724   11730       8   11724   11754       7
   11721   11748       4   11718   11742       4   11715   11736       4   11712
   11733       2   11709   11727       4   11709   11730       7   11706   11721
       4   11706   11724       7   11703   11718       4   11700   11703       7
   11700   11715       7   11691   11712       3   11685   11703       9   11685
   11706       9   11685   11709       9   11682   11700       8   11676   11691
       4   11670   11691       4   11664   11682       7   11658   11682       7
   11658   11685       9   11655   11676       4   11652   11670       4   11649
   11664       4   11646   11658       4   11643   11652       4   11643   11655
       4   11640   11646       4   11640   11649       4   11637   11640       6
   11637   11643       6   11628   11637       6   11622   11628       4   11616
   11628       4   11604   11622       4   11601   11616       4   11595   11601
       4   11595   11604       4   11592   11595       3   11592   11598       2
   12483   12501       2   12480   12498       2   12477   12495       2   12474
   12492       2   12471   12489       2   12468   12486       2   12459   12483
       3   12450   12480       3   12441   12477       3   12435   12474       3
   12423   12471       3   12414   12468       3   12408   12459       4   12402
   12459       4   12396   12450       4   12390   12450       4   12384   12441
       4   12378   12441       4   12372   12435       4   12366   12435       4
   12363   12423       4   12357   12423       4   12348   12414       4   12342
   12414       4   12339   12408       4   12336   12402       4   12333   12396
       4   12330   12390       4   12327   12384       4   12324   12378       4
   12321   12372       4   12318   12366       4   12315   12363       4   12312
   12357       4   12309   12348       4   12306   12342       4   12300   12336
       4   12300   12339       4   12297   12330       4   12297   12333       4
   12291   12324       4   12291   12327       4   12288   12318       4   12288
   12321       4   12285   12312       4   12285   12315       4   12282   12306
       4   12282   12309       4   12273   12297       6   12273   12300       6
   12264   12288       6   12264   12291       6   12261   12282       6   12261
   12285       6   12246   12276       4   12243   12273       6   12243   12276
       4   12237   12267       4   12231   12264       6   12231   12267       4
   12225   12261       6   12219   12225       4   12213   12246       7   12210
   12243       4   12207   12213       8   12207   12237       7   12204   12231
       4   12201   12225       4   12198   12219       4   12195   12216       2
   12192   12210       4   12192   12213       7   12189   12204       4   12189
   12207       7   12186   12201       4   12183   12186       7   12183   12198
       7   12174   12195       3   12168   12186       9   12168   12189       9
   12168   12192       9   12165   12183       8   12159   12174       4   12153
   12174       4   12147   12165       7   12141   12165       7   12141   12168
       9   12138   12159       4   12135   12153       4   12132   12147       4
   12129   12141       4   12126   12135       4   12126   12138       4   12123
   12129       4   12123   12132       4   12120   12123       6   12120   12126
       6   12111   12120       6   12105   12111       4   12099   12111       4
   12087   12105       4   12084   12099       4   12078   12084       4   12078
   12087       4   12075   12078       3   12075   12081       2   12966   12984
       2   12963   12981       2   12960   12978       2   12957   12975       2
   12954   12972       2   12951   12969       2   12942   12966       3   12933
   12963       3   12924   12960       3   12918   12957       3   12906   12954
       3   12897   12951       3   12891   12942       4   12885   12942       4
   12879   12933       4   12873   12933       4   12867   12924       4   12861
   12924       4   12855   12918       4   12849   12918       4   12846   12906
       4   12840   12906       4   12831   12897       4   12825   12897       4
   12822   12891       4   12819   12885       4   12816   12879       4   12813
   12873       4   12810   12867       4   12807   12861       4   12804   12855
       4   12801   12849       4   12798   12846       4   12795   12840       4
   12792   12831       4   12789   12825       4   12783   12819       4   12783
   12822       4   12780   12813       4   12780   12816       4   12774   12807
       4   12774   12810       4   12771   12801       4   12771   12804       4
   12768   12795       4   12768   12798       4   12765   12789       4   12765
   12792       4   12756   12780       6   12756   12783       6   12747   12771
       6   12747   12774       6   12744   12765       6   12744   12768       6
   12729   12759       4   12726   12756       6   12726   12759       4   12720
   12750       4   12714   12747       6   12714   12750       4   12708   12744
       6   12702   12708       4   12696   12729       7   12693   12726       4
   12690   12696       8   12690   12720       7   12687   12714       4   12684
   12708       4   12681   12702       4   12678   12699       2   12675   12693
       4   12675   12696       7   12672   12687       4   12672   12690       7
   12669   12684       4   12666   12669       7   12666   12681       7   12657
   12678       3   12651   12669       9   12651   12672       9   12651   12675
       9   12648   12666       8   12642   12657       4   12636   12657       4
   12630   12648       7   12624   12648       7   12624   12651       9   12621
   12642       4   12618   12636       4   12615   12630       4   12612   12624
       4   12609   12618       4   12609   12621       4   12606   12612       4
   12606   12615       4   12603   12606       6   12603   12609       6   12594
   12603       6   12588   12594       4   12582   12594       4   12570   12588
       4   12567   12582       4   12561   12567       4   12561   12570       4
   12558   12561       3   12558   12564       2   13449   13467       2   13446
   13464       2   13443   13461       2   13440   13458       2   13437   13455
       2   13434   13452       2   13425   13449       3   13416   13446       3
   13407   13443       3   13401   13440       3   13389   13437       3   13380
   13434       3   13374   13425       4   13368   13425       4   13362   13416
       4   13356   13416       4   13350   13407       4   13344   13407       4
   13338   13401       4   13332   13401       4   13329   13389       4   13323
   13389       4   13314   13380       4   13308   13380       4   13305   13374
       4   13302   13368       4   13299   13362       4   13296   13356       4
   13293   13350       4   13290   13344       4   13287   13338       4   13284
   13332       4   13281   13329       4   13278   13323       4   13275   13314
       4   13272   13308       4   13266   13302       4   13266   13305       4
   13263   13296       4   13263   13299       4   13257   13290       4   13257
   13293       4   13254   13284       4   13254   13287       4   13251   13278
       4   13251   13281       4   13248   13272       4   13248   13275       4
   13239   13263       6   13239   13266       6   13230   13254       6   13230
   13257       6   13227   13248       6   13227   13251       6   13212   13242
       4   13209   13239       6   13209   13242       4   13203   13233       4
   13197   13230       6   13197   13233       4   13191   13227       6   13185
   13191       4   13179   13212       7   13176   13209       4   13173   13179
       8   13173   13203       7   13170   13197       4   13167   13191       4
   13164   13185       4   13161   13182       2   13158   13176       4   13158
   13179       7   13155   13170       4   13155   13173       7   13152   13167
       4   13149   13152       7   13149   13164       7   13140   13161       3
   13134   13152       9   13134   13155       9   13134   13158       9   13131
   13149       8   13125   13140       4   13119   13140       4   13113   13131
       7   13107   13131       7   13107   13134       9   13104   13125       4
   13101   13119       4   13098   13113       4   13095   13107       4   13092
   13101       4   13092   13104       4   13089   13095       4   13089   13098
       4   13086   13089       6   13086   13092       6   13077   13086       6
   13071   13077       4   13065   13077       4   13053   13071       4   13050
   13065       4   13044   13050       4   13044   13053       4   13041   13044
       3   13041   13047       2   13932   13950       2   13929   13947       2
   13926   13944       2   13923   13941       2   13920   13938       2   13917
   13935       2   13908   13932       3   13899   13929       3   13890   13926
       3   13884   13923       3   13872   13920       3   13863   13917       3
   13857   13908       4   13851   13908       4   13845   13899       4   13839
   13899       4   13833   13890       4   13827   13890       4   13821   13884
       4   13815   13884       4   13812   13872       4   13806   13872       4
   13797   13863       4   13791   13863       4   13788   13857       4   13785
   13851       4   13782   13845       4   13779   13839       4   13776   13833
       4   13773   13827       4   13770   13821       4   13767   13815       4
   13764   13812       4   13761   13806       4   13758   13797       4   13755
   13791       4   13749   13785       4   13749   13788       4   13746   13779
       4   13746   13782       4   13740   13773       4   13740   13776       4
   13737   13767       4   13737   13770       4   13734   13761       4   13734
   13764       4   13731   13755       4   13731   13758       4   13722   13746
       6   13722   13749       6   13713   13737       6   13713   13740       6
   13710   13731       6   13710   13734       6   13695   13725       4   13692
   13722       6   13692   13725       4   13686   13716       4   13680   13713
       6   13680   13716       4   13674   13710       6   13668   13674       4
   13662   13695       7   13659   13692       4   13656   13662       8   13656
   13686       7   13653   13680       4   13650   13674       4   13647   13668
       4   13644   13665       2   13641   13659       4   13641   13662       7
   13638   13653       4   13638   13656       7   13635   13650       4   13632
   13635       7   13632   13647       7   13623   13644       3   13617   13635
       9   13617   13638       9   13617   13641       9   13614   13632       8
   13608   13623       4   13602   13623       4   13596   13614       7   13590
   13614       7   13590   13617       9   13587   13608       4   13584   13602
       4   13581   13596       4   13578   13590       4   13575   13584       4
   13575   13587       4   13572   13578       4   13572   13581       4   13569
   13572       6   13569   13575       6   13560   13569       6   13554   13560
       4   13548   13560       4   13536   13554       4   13533   13548       4
   13527   13533       4   13527   13536       4   13524   13527       3   13524
   13530       2   14415   14433       2   14412   14430       2   14409   14427
       2   14406   14424       2   14403   14421       2   14400   14418       2
   14391   14415       3   14382   14412       3   14373   14409       3   14367
   14406       3   14355   14403       3   14346   14400       3   14340   14391
       4   14334   14391       4   14328   14382       4   14322   14382       4
   14316   14373       4   14310   14373       4   14304   14367       4   14298
   14367       4   14295   14355       4   14289   14355       4   14280   14346
       4   14274   14346       4   14271   14340       4   14268   14334       4
   14265   14328       4   14262   14322       4   14259   14316       4   14256
   14310       4   14253   14304       4   14250   14298       4   14247   14295
       4   14244   14289       4   14241   14280       4   14238   14274       4
   14232   14268       4   14232   14271       4   14229   14262       4   14229
   14265       4   14223   14256       4   14223   14259       4   14220   14250
       4   14220   14253       4   14217   14244       4   14217   14247       4
   14214   14238       4   14214   14241       4   14205   14229       6   14205
   14232       6   14196   14220       6   14196   14223       6   14193   14214
       6   14193   14217       6   14178   14208       4   14175   14205       6
   14175   14208       4   14169   14199       4   14163   14196       6   14163
   14199       4   14157   14193       6   14151   14157       4   14145   14178
       7   14142   14175       4   14139   14145       8   14139   14169       7
   14136   14163       4   14133   14157       4   14130   14151       4   14127
   14148       2   14124   14142       4   14124   14145       7   14121   14136
       4   14121   14139       7   14118   14133       4   14115   14118       7
   14115   14130       7   14106   14127       3   14100   14118       9   14100
   14121       9   14100   14124       9   14097   14115       8   14091   14106
       4   14085   14106       4   14079   14097       7   14073   14097       7
   14073   14100       9   14070   14091       4   14067   14085       4   14064
   14079       4   14061   14073       4   14058   14067       4   14058   14070
       4   14055   14061       4   14055   14064       4   14052   14055       6
   14052   14058       6   14043   14052       6   14037   14043       4   14031
   14043       4   14019   14037       4   14016   14031       4   14010   14016
       4   14010   14019       4   14007   14010       3   14007   14013       2
   14898   14916       2   14895   14913       2   14892   14910       2   14889
   14907       2   14886   14904       2   14883   14901       2   14874   14898
       3   14865   14895       3   14856   14892       3   14850   14889       3
   14838   14886       3   14829   14883       3   14823   14874       4   14817
   14874       4   14811   14865       4   14805   14865       4   14799   14856
       4   14793   14856       4   14787   14850       4   14781   14850       4
   14778   14838       4   14772   14838       4   14763   14829       4   14757
   14829       4   14754   14823       4   14751   14817       4   14748   14811
       4   14745   14805       4   14742   14799       4   14739   14793       4
   14736   14787       4   14733   14781       4   14730   14778       4   14727
   14772       4   14724   14763       4   14721   14757       4   14715   14751
       4   14715   14754       4   14712   14745       4   14712   14748       4
   14706   14739       4   14706   14742       4   14703   14733       4   14703
   14736       4   14700   14727       4   14700   14730       4   14697   14721
       4   14697   14724       4   14688   14712       6   14688   14715       6
   14679   14703       6   14679   14706       6   14676   14697       6   14676
   14700       6   14661   14691       4   14658   14688       6   14658   14691
       4   14652   14682       4   14646   14679       6   14646   14682       4
   14640   14676       6   14634   14640       4   14628   14661       7   14625
   14658       4   14622   14628       8   14622   14652       7   14619   14646
       4   14616   14640       4   14613   14634       4   14610   14631       2
   14607   14625       4   14607   14628       7   14604   14619       4   14604
   14622       7   14601   14616       4   14598   14601       7   14598   14613
       7   14589   14610       3   14583   14601       9   14583   14604       9
   14583   14607       9   14580   14598       8   14574   14589       4   14568
   14589       4   14562   14580       7   14556   14580       7   14556   14583
       9   14553   14574       4   14550   14568       4   14547   14562       4
   14544   14556       4   14541   14550       4   14541   14553       4   14538
   14544       4   14538   14547       4   14535   14538       6   14535   14541
       6   14526   14535       6   14520   14526       4   14514   14526       4
   14502   14520       4   14499   14514       4   14493   14499       4   14493
   14502       4   14490   14493       3   14490   14496       2   15381   15399
       2   15378   15396       2   15375   15393       2   15372   15390       2
   15369   15387       2   15366   15384       2   15357   15381       3   15348
   15378       3   15339   15375       3   15333   15372       3   15321   15369
       3   15312   15366       3   15306   15357       4   15300   15357       4
   15294   15348       4   15288   15348       4   15282   15339       4   15276
   15339       4   15270   15333       4   15264   15333       4   15261   15321
       4   15255   15321       4   15246   15312       4   15240   15312       4
   15237   15306       4   15234   15300       4   15231   15294       4   15228
   15288       4   15225   15282       4   15222   15276       4   15219   15270
       4   15216   15264       4   15213   15261       4   15210   15255       4
   15207   15246       4   15204   15240       4   15198   15234       4   15198
   15237       4   15195   15228       4   15195   15231       4   15189   15222
       4   15189   15225       4   15186   15216       4   15186   15219       4
   15183   15210       4   15183   15213       4   15180   15204       4   15180
   15207       4   15171   15195       6   15171   15198       6   15162   15186
       6   15162   15189       6   15159   15180       6   15159   15183       6
   15144   15174       4   15141   15171       6   15141   15174       4   15135
   15165       4   15129   15162       6   15129   15165       4   15123   15159
       6   15117   15123       4   15111   15144       7   15108   15141       4
   15105   15111       8   15105   15135       7   15102   15129       4   15099
   15123       4   15096   15117       4   15093   15114       2   15090   15108
       4   15090   15111       7   15087   15102       4   15087   15105       7
   15084   15099       4   15081   15084       7   15081   15096       7   15072
   15093       3   15066   15084       9   15066   15087       9   15066   15090
       9   15063   15081       8   15057   15072       4   15051   15072       4
   15045   15063       7   15039   15063       7   15039   15066       9   15036
   15057       4   15033   15051       4   15030   15045       4   15027   15039
       4   15024   15033       4   15024   15036       4   15021   15027       4
   15021   15030       4   15018   15021       6   15018   15024       6   15009
   15018       6   15003   15009       4   14997   15009       4   14985   15003
       4   14982   14997       4   14976   14982       4   14976   14985       4
   14973   14976       3   14973   14979       2   15864   15882       2   15861
   15879       2   15858   15876       2   15855   15873       2   15852   15870
       2   15849   15867       2   15840   15864       3   15831   15861       3
   15822   15858       3   15816   15855       3   15804   15852       3   15795
   15849       3   15789   15840       4   15783   15840       4   15777   15831
       4   15771   15831       4   15765   15822       4   15759   15822       4
   15753   15816       4   15747   15816       4   15744   15804       4   15738
   15804       4   15729   15795       4   15723   15795       4   15720   15789
       4   15717   15783       4   15714   15777       4   15711   15771       4
   15708   15765       4   15705   15759       4   15702   15753       4   15699
   15747       4   15696   15744       4   15693   15738       4   15690   15729
       4   15687   15723       4   15681   15717       4   15681   15720       4
   15678   15711       4   15678   15714       4   15672   15705       4   15672
   15708       4   15669   15699       4   15669   15702       4   15666   15693
       4   15666   15696       4   15663   15687       4   15663   15690       4
   15654   15678       6   15654   15681       6   15645   15669       6   15645
   15672       6   15642   15663       6   15642   15666       6   15627   15657
       4   15624   15654       6   15624   15657       4   15618   15648       4
   15612   15645       6   15612   15648       4   15606   15642       6   15600
   15606       4   15594   15627       7   15591   15624       4   15588   15594
       8   15588   15618       7   15585   15612       4   15582   15606       4
   15579   15600       4   15576   15597       2   15573   15591       4   15573
   15594       7   15570   15585       4   15570   15588       7   15567   15582
       4   15564   15567       7   15564   15579       7   15555   15576       3
   15549   15567       9   15549   15570       9   15549   15573       9   15546
   15564       8   15540   15555       4   15534   15555       4   15528   15546
       7   15522   15546       7   15522   15549       9   15519   15540       4
   15516   15534       4   15513   15528       4   15510   15522       4   15507
   15516       4   15507   15519       4   15504   15510       4   15504   15513
       4   15501   15504       6   15501   15507       6   15492   15501       6
   15486   15492       4   15480   15492       4   15468   15486       4   15465
   15480       4   15459   15465       4   15459   15468       4   15456   15459
       3   15456   15462       2   16347   16365       2   16344   16362       2
   16341   16359       2   16338   16356       2   16335   16353       2   16332
   16350       2   16323   16347       3   16314   16344       3   16305   16341
       3   16299   16338       3   16287   16335       3   16278   16332       3
   16272   16323       4   16266   16323       4   16260   16314       4   16254
   16314       4   16248   16305       4   16242   16305       4   16236   16299
       4   16230   16299       4   16227   16287       4   16221   16287       4
   16212   16278       4   16206   16278       4   16203   16272       4   16200
   16266       4   16197   16260       4   16194   16254       4   16191   16248
       4   16188   16242       4   16185   16236       4   16182   16230       4
   16179   16227       4   16176   16221       4   16173   16212       4   16170
   16206       4   16164   16200       4   16164   16203       4   16161   16194
       4   16161   16197       4   16155   16188       4   16155   16191       4
   16152   16182       4   16152   16185       4   16149   16176       4   16149
   16179       4   16146   16170       4   16146   16173       4   16137   16161
       6   16137   16164       6   16128   16152       6   16128   16155       6
   16125   16146       6   16125   16149       6   16110   16140       4   16107
   16137       6   16107   16140       4   16101   16131       4   16095   16128
       6   16095   16131       4   16089   16125       6   16083   16089       4
   16077   16110       7   16074   16107       4   16071   16077       8   16071
   16101       7   16068   16095       4   16065   16089       4   16062   16083
       4   16059   16080       2   16056   16074       4   16056   16077       7
   16053   16068       4   16053   16071       7   16050   16065       4   16047
   16050       7   16047   16062       7   16038   16059       3   16032   16050
       9   16032   16053       9   16032   16056       9   16029   16047       8
   16023   16038       4   16017   16038       4   16011   16029       7   16005
   16029       7   16005   16032       9   16002   16023       4   15999   16017
       4   15996   16011       4   15993   16005       4   15990   15999       4
   15990   16002       4   15987   15993       4   15987   15996       4   15984
   15987       6   15984   15990       6   15975   15984       6   15969   15975
       4   15963   15975       4   15951   15969       4   15948   15963       4
   15942   15948       4   15942   15951       4   15939   15942       3   15939
   15945       2   16830   16848       2   16827   16845       2   16824   16842
       2   16821   16839       2   16818   16836       2   16815   16833       2
   16806   16830       3   16797   16827       3   16788   16824       3   16782
   16821       3   16770   16818       3   16761   16815       3   16755   16806
       4   16749   16806       4   16743   16797       4   16737   16797       4
   16731   16788       4   16725   16788       4   16719   16782       4   16713
   16782       4   16710   16770       4   16704   16770       4   16695   16761
       4   16689   16761       4   16686   16755       4   16683   16749       4
   16680   16743       4   16677   16737       4   16674   16731       4   16671
   16725       4   16668   16719       4   16665   16713       4   16662   16710
       4   16659   16704       4   16656   16695       4   16653   16689       4
   16647   16683       4   16647   16686       4   16644   16677       4   16644
   16680       4   16638   16671       4   16638   16674       4   16635   16665
       4   16635   16668       4   16632   16659       4   16632   16662       4
   16629   16653       4   16629   16656       4   16620   16644       6   16620
   16647       6   16611   16635       6   16611   16638       6   16608   16629
       6   16608   16632       6   16593   16623       4   16590   16620       6
   16590   16623       4   16584   16614       4   16578   16611       6   16578
   16614       4   16572   16608       6   16566   16572       4   16560   16593
       7   16557   16590       4   16554   16560       8   16554   16584       7
   16551   16578       4   16548   16572       4   16545   16566       4   16542
   16563       2   16539   16557       4   16539   16560       7   16536   16551
       4   16536   16554       7   16533   16548       4   16530   16533       7
   16530   16545       7   16521   16542       3   16515   16533       9   16515
   16536       9   16515   16539       9   16512   16530       8   16506   16521
       4   16500   16521       4   16494   16512       7   16488   16512       7
   16488   16515       9   16485   16506       4   16482   16500       4   16479
   16494       4   16476   16488       4   16473   16482       4   16473   16485
       4   16470   16476       4   16470   16479       4   16467   16470       6
   16467   16473       6   16458   16467       6   16452   16458       4   16446
   16458       4   16434   16452       4   16431   16446       4   16425   16431
       4   16425   16434       4   16422   16425       3   16422   16428       2
   17313   17331       2   17310   17328       2   17307   17325       2   17304
   17322       2   17301   17319       2   17298   17316       2   17289   17313
       3   17280   17310       3   17271   17307       3   17265   17304       3
   17253   17301       3   17244   17298       3   17238   17289       4   17232
   17289       4   17226   17280       4   17220   17280       4   17214   17271
       4   17208   17271       4   17202   17265       4   17196   17265       4
   17193   17253       4   17187   17253       4   17178   17244       4   17172
   17244       4   17169   17238       4   17166   17232       4   17163   17226
       4   17160   17220       4   17157   17214       4   17154   17208       4
   17151   17202       4   17148   17196       4   17145   17193       4   17142
   17187       4   17139   17178       4   17136   17172       4   17130   17166
       4   17130   17169       4   17127   17160       4   17127   17163       4
   17121   17154       4   17121   17157       4   17118   17148       4   17118
   17151       4   17115   17142       4   17115   17145       4   17112   17136
       4   17112   17139       4   17103   17127       6   17103   17130       6
   17094   17118       6   17094   17121       6   17091   17112       6   17091
   17115       6   17076   17106       4   17073   17103       6   17073   17106
       4   17067   17097       4   17061   17094       6   17061   17097       4
   17055   17091       6   17049   17055       4   17043   17076       7   17040
   17073       4   17037   17043       8   17037   17067       7   17034   17061
       4   17031   17055       4   17028   17049       4   17025   17046       2
   17022   17040       4   17022   17043       7   17019   17034       4   17019
   17037       7   17016   17031       4   17013   17016       7   17013   17028
       7   17004   17025       3   16998   17016       9   16998   17019       9
   16998   17022       9   16995   17013       8   16989   17004       4   16983
   17004       4   16977   16995       7   16971   16995       7   16971   16998
       9   16968   16989       4   16965   16983       4   16962   16977       4
   16959   16971       4   16956   16965       4   16956   16968       4   16953
   16959       4   16953   16962       4   16950   16953       6   16950   16956
       6   16941   16950       6   16935   16941       4   16929   16941       4
   16917   16935       4   16914   16929       4   16908   16914       4   16908
   16917       4   16905   16908       3   16905   16911       2   17796   17814
       2   17793   17811       2   17790   17808       2   17787   17805       2
   17784   17802       2   17781   17799       2   17772   17796       3   17763
   17793       3   17754   17790       3   17748   17787       3   17736   17784
       3   17727   17781       3   17721   17772       4   17715   17772       4
   17709   17763       4   17703   17763       4   17697   17754       4   17691
   17754       4   17685   17748       4   17679   17748       4   17676   17736
       4   17670   17736       4   17661   17727       4   17655   17727       4
   17652   17721       4   17649   17715       4   17646   17709       4   17643
   17703       4   17640   17697       4   17637   17691       4   17634   17685
       4   17631   17679       4   17628   17676       4   17625   17670       4
   17622   17661       4   17619   17655       4   17613   17649       4   17613
   17652       4   17610   17643       4   17610   17646       4   17604   17637
       4   17604   17640       4   17601   17631       4   17601   17634       4
   17598   17625       4   17598   17628       4   17595   17619       4   17595
   17622       4   17586   17610       6   17586   17613       6   17577   17601
       6   17577   17604       6   17574   17595       6   17574   17598       6
   17559   17589       4   17556   17586       6   17556   17589       4   17550
   17580       4   17544   17577       6   17544   17580       4   17538   17574
       6   17532   17538       4   17526   17559       7   17523   17556       4
   17520   17526       8   17520   17550       7   17517   17544       4   17514
   17538       4   17511   17532       4   17508   17529       2   17505   17523
       4   17505   17526       7   17502   17517       4   17502   17520       7
   17499   17514       4   17496   17499       7   17496   17511       7   17487
   17508       3   17481   17499       9   17481   17502       9   17481   17505
       9   17478   17496       8   17472   17487       4   17466   17487       4
   17460   17478       7   17454   17478       7   17454   17481       9   17451
   17472       4   17448   17466       4   17445   17460       4   17442   17454
       4   17439   17448       4   17439   17451       4   17436   17442       4
   17436   17445       4   17433   17436       6   17433   17439       6   17424
   17433       6   17418   17424       4   17412   17424       4   17400   17418
       4   17397   17412       4   17391   17397       4   17391   17400       4
   17388   17391       3   17388   17394       2   18279   18297       2   18276
   18294       2   18273   18291       2   18270   18288       2   18267   18285
       2   18264   18282       2   18255   18279       3   18246   18276       3
   18237   18273       3   18231   18270       3   18219   18267       3   18210
   18264       3   18204   18255       4   18198   18255       4   18192   18246
       4   18186   18246       4   18180   18237       4   18174   18237       4
   18168   18231       4   18162   18231       4   18159   18219       4   18153
   18219       4   18144   18210       4   18138   18210       4   18135   18204
       4   18132   18198       4   18129   18192       4   18126   18186       4
   18123   18180       4   18120   18174       4   18117   18168       4   18114
   18162       4   18111   18159       4   18108   18153       4   18105   18144
       4   18102   18138       4   18096   18132       4   18096   18135       4
   18093   18126       4   18093   18129       4   18087   18120       4   18087
   18123       4   18084   18114       4   18084   18117       4   18081   18108
       4   18081   18111       4   18078   18102       4   18078   18105       4
   18069   18093       6   18069   18096       6   18060   18084       6   18060
   18087       6   18057   18078       6   18057   18081       6   18042   18072
       4   18039   18069       6   18039   18072       4   18033   18063       4
   18027   18060       6   18027   18063       4   18021   18057       6   18015
   18021       4   18009   18042       7   18006   18039       4   18003   18009
       8   18003   18033       7   18000   18027       4   17997   18021       4
   17994   18015       4   17991   18012       2   17988   18006       4   17988
   18009       7   17985   18000       4   17985   18003       7   17982   17997
       4   17979   17982       7   17979   17994       7   17970   17991       3
   17964   17982       9   17964   17985       9   17964   17988       9   17961
   17979       8   17955   17970       4   17949   17970       4   17943   17961
       7   17937   17961       7   17937   17964       9   17934   17955       4
   17931   17949       4   17928   17943       4   17925   17937       4   17922
   17931       4   17922   17934       4   17919   17925       4   17919   17928
       4   17916   17919       6   17916   17922       6   17907   17916       6
   17901   17907       4   17895   17907       4   17883   17901       4   17880
   17895       4   17874   17880       4   17874   17883       4   17871   17874
       3   17871   17877       2   18762   18780       2   18759   18777       2
   18756   18774       2   18753   18771       2   18750   18768       2   18747
   18765       2   18738   18762       3   18729   18759       3   18720   18756
       3   18714   18753       3   18702   18750       3   18693   18747       3
   18687   18738       4   18681   18738       4   18675   18729       4   18669
   18729       4   18663   18720       4   18657   18720       4   18651   18714
       4   18645   18714       4   18642   18702       4   18636   18702       4
   18627   18693       4   18621   18693       4   18618   18687       4   18615
   18681       4   18612   18675       4   18609   18669       4   18606   18663
       4   18603   18657       4   18600   18651       4   18597   18645       4
   18594   18642       4   18591   18636       4   18588   18627       4   18585
   18621       4   18579   18615       4   18579   18618       4   18576   18609
       4   18576   18612       4   18570   18603       4   18570   18606       4
   18567   18597       4   18567   18600       4   18564   18591       4   18564
   18594       4   18561   18585       4   18561   18588       4   18552   18576
       6   18552   18579       6   18543   18567       6   18543   18570       6
   18540   18561       6   18540   18564       6   18525   18555       4   18522
   18552       6   18522   18555       4   18516   18546       4   18510   18543
       6   18510   18546       4   18504   18540       6   18498   18504       4
   18492   18525       7   18489   18522       4   18486   18492       8   18486
   18516       7   18483   18510       4   18480   18504       4   18477   18498
       4   18474   18495       2   18471   18489       4   18471   18492       7
   18468   18483       4   18468   18486       7   18465   18480       4   18462
   18465       7   18462   18477       7   18453   18474       3   18447   18465
       9   18447   18468       9   18447   18471       9   18444   18462       8
   18438   18453       4   18432   18453       4   18426   18444       7   18420
   18444       7   18420   18447       9   18417   18438       4   18414   18432
       4   18411   18426       4   18408   18420       4   18405   18414       4
   18405   18417       4   18402   18408       4   18402   18411       4   18399
   18402       6   18399   18405       6   18390   18399       6   18384   18390
       4   18378   18390       4   18366   18384       4   18363   18378       4
   18357   18363       4   18357   18366       4   18354   18357       3   18354
   18360       2   19245   19263       2   19242   19260       2   19239   19257
       2   19236   19254       2   19233   19251       2   19230   19248       2
   19221   19245       3   19212   19242       3   19203   19239       3   19197
   19236       3   19185   19233       3   19176   19230       3   19170   19221
       4   19164   19221       4   19158   19212       4   19152   19212       4
   19146   19203       4   19140   19203       4   19134   19197       4   19128
   19197       4   19125   19185       4   19119   19185       4   19110   19176
       4   19104   19176       4   19101   19170       4   19098   19164       4
   19095   19158       4   19092   19152       4   19089   19146       4   19086
   19140       4   19083   19134       4   19080   19128       4   19077   19125
       4   19074   19119       4   19071   19110       4   19068   19104       4
   19062   19098       4   19062   19101       4   19059   19092       4   19059
   19095       4   19053   19086       4   19053   19089       4   19050   19080
       4   19050   19083       4   19047   19074       4   19047   19077       4
   19044   19068       4   19044   19071       4   19035   19059       6   19035
   19062       6   19026   19050       6   19026   19053       6   19023   19044
       6   19023   19047       6   19008   19038       4   19005   19035       6
   19005   19038       4   18999   19029       4   18993   19026       6   18993
   19029       4   18987   19023       6   18981   18987       4   18975   19008
       7   18972   19005       4   18969   18975       8   18969   18999       7
   18966   18993       4   18963   18987       4   18960   18981       4   18957
   18978       2   18954   18972       4   18954   18975       7   18951   18966
       4   18951   18969       7   18948   18963       4   18945   18948       7
   18945   18960       7   18936   18957       3   18930   18948       9   18930
   18951       9   18930   18954       9   18927   18945       8   18921   18936
       4   18915   18936       4   18909   18927       7   18903   18927       7
   18903   18930       9   18900   18921       4   18897   18915       4   18894
   18909       4   18891   18903       4   18888   18897       4   18888   18900
       4   18885   18891       4   18885   18894       4   18882   18885       6
   18882   18888       6   18873   18882       6   18867   18873       4   18861
   18873       4   18849   18867       4   18846   18861       4   18840   18846
       4   18840   18849       4   18837   18840       3   18837   18843       2
   19728   19746       2   19725   19743       2   19722   19740       2   19719
   19737       2   19716   19734       2   19713   19731       2   19704   19728
       3   19695   19725       3   19686   19722       3   19680   19719       3
   19668   19716       3   19659   19713       3   19653   19704       4   19647
   19704       4   19641   19695       4   19635   19695       4   19629   19686
       4   19623   19686       4   19617   19680       4   19611   19680       4
   19608   19668       4   19602   19668       4   19593   19659       4   19587
   19659       4   19584   19653       4   19581   19647       4   19578   19641
       4   19575   19635       4   19572   19629       4   19569   19623       4
   19566   19617       4   19563   19611       4   19560   19608       4   19557
   19602       4   19554   19593       4   19551   19587       4   19545   19581
       4   19545   19584       4   19542   19575       4   19542   19578       4
   19536   19569       4   19536   19572       4   19533   19563       4   19533
   19566       4   19530   19557       4   19530   19560       4   19527   19551
       4   19527   19554       4   19518   19542       6   19518   19545       6
   19509   19533       6   19509   19536       6   19506   19527       6   19506
   19530       6   19491   19521       4   19488   19518       6   19488   19521
       4   19482   19512       4   19476   19509       6   19476   19512       4
   19470   19506       6   19464   19470       4   19458   19491       7   19455
   19488       4   19452   19458       8   19452   19482       7   19449   19476
       4   19446   19470       4   19443   19464       4   19440   19461       2
   19437   19455       4   19437   19458       7   19434   19449       4   19434
   19452       7   19431   19446       4   19428   19431       7   19428   19443
       7   19419   19440       3   19413   19431       9   19413   19434       9
   19413   19437       9   19410   19428       8   19404   19419       4   19398
   19419       4   19392   19410       7   19386   19410       7   19386   19413
       9   19383   19404       4   19380   19398       4   19377   19392       4
   19374   19386       4   19371   19380       4   19371   19383       4   19368
   19374       4   19368   19377       4   19365   19368       6   19365   19371
       6   19356   19365       6   19350   19356       4   19344   19356       4
   19332   19350       4   19329   19344       4   19323   19329       4   19323
   19332       4   19320   19323       3   19320   19326       2   20211   20229
       2   20208   20226       2   20205   20223       2   20202   20220       2
   20199   20217       2   20196   20214       2   20187   20211       3   20178
   20208       3   20169   20205       3   20163   20202       3   20151   20199
       3   20142   20196       3   20136   20187       4   20130   20187       4
   20124   20178       4   20118   20178       4   20112   20169       4   20106
   20169       4   20100   20163       4   20094   20163       4   20091   20151
       4   20085   20151       4   20076   20142       4   20070   20142       4
   20067   20136       4   20064   20130       4   20061   20124       4   20058
   20118       4   20055   20112       4   20052   20106       4   20049   20100
       4   20046   20094       4   20043   20091       4   20040   20085       4
   20037   20076       4   20034   20070       4   20028   20064       4   20028
   20067       4   20025   20058       4   20025   20061       4   20019   20052
       4   20019   20055       4   20016   20046       4   20016   20049       4
   20013   20040       4   20013   20043       4   20010   20034       4   20010
   20037       4   20001   20025       6   20001   20028       6   19992   20016
       6   19992   20019       6   19989   20010       6   19989   20013       6
   19974   20004       4   19971   20001       6   19971   20004       4   19965
   19995       4   19959   19992       6   19959   19995       4   19953   19989
       6   19947   19953       4   19941   19974       7   19938   19971       4
   19935   19941       8   19935   19965       7   19932   19959       4   19929
   19953       4   19926   19947       4   19923   19944       2   19920   19938
       4   19920   19941       7   19917   19932       4   19917   19935       7
   19914   19929       4   19911   19914       7   19911   19926       7   19902
   19923       3   19896   19914       9   19896   19917       9   19896   19920
       9   19893   19911       8   19887   19902       4   19881   19902       4
   19875   19893       7   19869   19893       7   19869   19896       9   19866
   19887       4   19863   19881       4   19860   19875       4   19857   19869
       4   19854   19863       4   19854   19866       4   19851   19857       4
   19851   19860       4   19848   19851       6   19848   19854       6   19839
   19848       6   19833   19839       4   19827   19839       4   19815   19833
       4   19812   19827       4   19806   19812       4   19806   19815       4
   19803   19806       3   19803   19809       2   20694   20712       2   20691
   20709       2   20688   20706       2   20685   20703       2   20682   20700
       2   20679   20697       2   20670   20694       3   20661   20691       3
   20652   20688       3   20646   20685       3   20634   20682       3   20625
   20679       3   20619   20670       4   20613   20670       4   20607   20661
       4   20601   20661       4   20595   20652       4   20589   20652       4
   20583   20646       4   20577   20646       4   20574   20634       4   20568
   20634       4   20559   20625       4   20553   20625       4   20550   20619
       4   20547   20613       4   20544   20607       4   20541   20601       4
   20538   20595       4   20535   20589       4   20532   20583       4   20529
   20577       4   20526   20574       4   20523   20568       4   20520   20559
       4   20517   20553       4   20511   20547       4   20511   20550       4
   20508   20541       4   20508   20544       4   20502   20535       4   20502
   20538       4   20499   20529       4   20499   20532       4   20496   20523
       4   20496   20526       4   20493   20517       4   20493   20520       4
   20484   20508       6   20484   20511       6   20475   20499       6   20475
   20502       6   20472   20493       6   20472   20496       6   20457   20487
       4   20454   20484       6   20454   20487       4   20448   20478       4
   20442   20475       6   20442   20478       4   20436   20472       6   20430
   20436       4   20424   20457       7   20421   20454       4   20418   20424
       8   20418   20448       7   20415   20442       4   20412   20436       4
   20409   20430       4   20406   20427       2   20403   20421       4   20403
   20424       7   20400   20415       4   20400   20418       7   20397   20412
       4   20394   20397       7   20394   20409       7   20385   20406       3
   20379   20397       9   20379   20400       9   20379   20403       9   20376
   20394       8   20370   20385       4   20364   20385       4   20358   20376
       7   20352   20376       7   20352   20379       9   20349   20370       4
   20346   20364       4   20343   20358       4   20340   20352       4   20337
   20346       4   20337   20349       4   20334   20340       4   20334   20343
       4   20331   20334       6   20331   20337       6   20322   20331       6
   20316   20322       4   20310   20322       4   20298   20316       4   20295
   20310       4   20289   20295       4   20289   20298       4   20286   20289
       3   20286   20292       2   21177   21195       2   21174   21192       2
   21171   21189       2   21168   21186       2   21165   21183       2   21162
   21180       2   21153   21177       3   21144   21174       3   21135   21171
       3   21129   21168       3   21117   21165       3   21108   21162       3
   21102   21153       4   21096   21153       4   21090   21144       4   21084
   21144       4   21078   21135       4   21072   21135       4   21066   21129
       4   21060   21129       4   21057   21117       4   21051   21117       4
   21042   21108       4   21036   21108       4   21033   21102       4   21030
   21096       4   21027   21090       4   21024   21084       4   21021   21078
       4   21018   21072       4   21015   21066       4   21012   21060       4
   21009   21057       4   21006   21051       4   21003   21042       4   21000
   21036       4   20994   21030       4   20994   21033       4   20991   21024
       4   20991   21027       4   20985   21018       4   20985   21021       4
   20982   21012       4   20982   21015       4   20979   21006       4   20979
   21009       4   20976   21000       4   20976   21003       4   20967   20991
       6   20967   20994       6   20958   20982       6   20958   20985       6
   20955   20976       6   20955   20979       6   20940   20970       4   20937
   20967       6   20937   20970       4   20931   20961       4   20925   20958
       6   20925   20961       4   20919   20955       6   20913   20919       4
   20907   20940       7   20904   20937       4   20901   20907       8   20901
   20931       7   20898   20925       4   20895   20919       4   20892   20913
       4   20889   20910       2   20886   20904       4   20886   20907       7
   20883   20898       4   20883   20901       7   20880   20895       4   20877
   20880       7   20877   20892       7   20868   20889       3   20862   20880
       9   20862   20883       9   20862   20886       9   20859   20877       8
   20853   20868       4   20847   20868       4   20841   20859       7   20835
   20859       7   20835   20862       9   20832   20853       4   20829   20847
       4   20826   20841       4   20823   20835       4   20820   20829       4
   20820   20832       4   20817   20823       4   20817   20826       4   20814
   20817       6   20814   20820       6   20805   20814       6   20799   20805
       4   20793   20805       4   20781   20799       4   20778   20793       4
   20772   20778       4   20772   20781       4   20769   20772       3   20769
   20775       2   21660   21678       2   21657   21675       2   21654   21672
       2   21651   21669       2   21648   21666       2   21645   21663       2
   21636   21660       3   21627   21657       3   21618   21654       3   21612
   21651       3   21600   21648       3   21591   21645       3   21585   21636
       4   21579   21636       4   21573   21627       4   21567   21627       4
   21561   21618       4   21555   21618       4   21549   21612       4   21543
   21612       4   21540   21600       4   21534   21600       4   21525   21591
       4   21519   21591       4   21516   21585       4   21513   21579       4
   21510   21573       4   21507   21567       4   21504   21561       4   21501
   21555       4   21498   21549       4   21495   21543       4   21492   21540
       4   21489   21534       4   21486   21525       4   21483   21519       4
   21477   21513       4   21477   21516       4   21474   21507       4   21474
   21510       4   21468   21501       4   21468   21504       4   21465   21495
       4   21465   21498       4   21462   21489       4   21462   21492       4
   21459   21483       4   21459   21486       4   21450   21474       6   21450
   21477       6   21441   21465       6   21441   21468       6   21438   21459
       6   21438   21462       6   21423   21453       4   21420   21450       6
   21420   21453       4   21414   21444       4   21408   21441       6   21408
   21444       4   21402   21438       6   21396   21402       4   21390   21423
       7   21387   21420       4   21384   21390       8   21384   21414       7
   21381   21408       4   21378   21402       4   21375   21396       4   21372
   21393       2   21369   21387       4   21369   21390       7   21366   21381
       4   21366   21384       7   21363   21378       4   21360   21363       7
   21360   21375       7   21351   21372       3   21345   21363       9   21345
   21366       9   21345   21369       9   21342   21360       8   21336   21351
       4   21330   21351       4   21324   21342       7   21318   21342       7
   21318   21345       9   21315   21336       4   21312   21330       4   21309
   21324       4   21306   21318       4   21303   21312       4   21303   21315
       4   21300   21306       4   21300   21309       4   21297   21300       6
   21297   21303       6   21288   21297       6   21282   21288       4   21276
   21288       4   21264   21282       4   21261   21276       4   21255   21261
       4   21255   21264       4   21252   21255       3   21252   21258       2
   22143   22161       2   22140   22158       2   22137   22155       2   22134
   22152       2   22131   22149       2   22128   22146       2   22119   22143
       3   22110   22140       3   22101   22137       3   22095   22134       3
   22083   22131       3   22074   22128       3   22068   22119       4   22062
   22119       4   22056   22110       4   22050   22110       4   22044   22101
       4   22038   22101       4   22032   22095       4   22026   22095       4
   22023   22083       4   22017   22083       4   22008   22074       4   22002
   22074       4   21999   22068       4   21996   22062       4   21993   22056
       4   21990   22050       4   21987   22044       4   21984   22038       4
   21981   22032       4   21978   22026       4   21975   22023       4   21972
   22017       4   21969   22008       4   21966   22002       4   21960   21996
       4   21960   21999       4   21957   21990       4   21957   21993       4
   21951   21984       4   21951   21987       4   21948   21978       4   21948
   21981       4   21945   21972       4   21945   21975       4   21942   21966
       4   21942   21969       4   21933   21957       6   21933   21960       6
   21924   21948       6   21924   21951       6   21921   21942       6   21921
   21945       6   21906   21936       4   21903   21933       6   21903   21936
       4   21897   21927       4   21891   21924       6   21891   21927       4
   21885   21921       6   21879   21885       4   21873   21906       7   21870
   21903       4   21867   21873       8   21867   21897       7   21864   21891
       4   21861   21885       4   21858   21879       4   21855   21876       2
   21852   21870       4   21852   21873       7   21849   21864       4   21849
   21867       7   21846   21861       4   21843   21846       7   21843   21858
       7   21834   21855       3   21828   21846       9   21828   21849       9
   21828   21852       9   21825   21843       8   21819   21834       4   21813
   21834       4   21807   21825       7   21801   21825       7   21801   21828
       9   21798   21819       4   21795   21813       4   21792   21807       4
   21789   21801       4   21786   21795       4   21786   21798       4   21783
   21789       4   21783   21792       4   21780   21783       6   21780   21786
       6   21771   21780       6   21765   21771       4   21759   21771       4
   21747   21765       4   21744   21759       4   21738   21744       4   21738
   21747       4   21735   21738       3   21735   21741       2   22626   22644
       2   22623   22641       2   22620   22638       2   22617   22635       2
   22614   22632       2   22611   22629       2   22602   22626       3   22593
   22623       3   22584   22620       3   22578   22617       3   22566   22614
       3   22557   22611       3   22551   22602       4   22545   22602       4
   22539   22593       4   22533   22593       4   22527   22584       4   22521
   22584       4   22515   22578       4   22509   22578       4   22506   22566
       4   22500   22566       4   22491   22557       4   22485   22557       4
   22482   22551       4   22479   22545       4   22476   22539       4   22473
   22533       4   22470   22527       4   22467   22521       4   22464   22515
       4   22461   22509       4   22458   22506       4   22455   22500       4
   22452   22491       4   22449   22485       4   22443   22479       4   22443
   22482       4   22440   22473       4   22440   22476       4   22434   22467
       4   22434   22470       4   22431   22461       4   22431   22464       4
   22428   22455       4   22428   22458       4   22425   22449       4   22425
   22452       4   22416   22440       6   22416   22443       6   22407   22431
       6   22407   22434       6   22404   22425       6   22404   22428       6
   22389   22419       4   22386   22416       6   22386   22419       4   22380
   22410       4   22374   22407       6   22374   22410       4   22368   22404
       6   22362   22368       4   22356   22389       7   22353   22386       4
   22350   22356       8   22350   22380       7   22347   22374       4   22344
   22368       4   22341   22362       4   22338   22359       2   22335   22353
       4   22335   22356       7   22332   22347       4   22332   22350       7
   22329   22344       4   22326   22329       7   22326   22341       7   22317
   22338       3   22311   22329       9   22311   22332       9   22311   22335
       9   22308   22326       8   22302   22317       4   22296   22317       4
   22290   22308       7   22284   22308       7   22284   22311       9   22281
   22302       4   22278   22296       4   22275   22290       4   22272   22284
       4   22269   22278       4   22269   22281       4   22266   22272       4
   22266   22275       4   22263   22266       6   22263   22269       6   22254
   22263       6   22248   22254       4   22242   22254       4   22230   22248
       4   22227   22242       4   22221   22227       4   22221   22230       4
   22218   22221       3   22218   22224       2   23109   23127       2   23106
   23124       2   23103   23121       2   23100   23118       2   23097   23115
       2   23094   23112       2   23085   23109       3   23076   23106       3
   23067   23103       3   23061   23100       3   23049   23097       3   23040
   23094       3   23034   23085       4   23028   23085       4   23022   23076
       4   23016   23076       4   23010   23067       4   23004   23067       4
   22998   23061       4   22992   23061       4   22989   23049       4   22983
   23049       4   22974   23040       4   22968   23040       4   22965   23034
       4   22962   23028       4   22959   23022       4   22956   23016       4
   22953   23010       4   22950   23004       4   22947   22998       4   22944
   22992       4   22941   22989       4   22938   22983       4   22935   22974
       4   22932   22968       4   22926   22962       4   22926   22965       4
   22923   22956       4   22923   22959       4   22917   22950       4   22917
   22953       4   22914   22944       4   22914   22947       4   22911   22938
       4   22911   22941       4   22908   22932       4   22908   22935       4
   22899   22923       6   22899   22926       6   22890   22914       6   22890
   22917       6   22887   22908       6   22887   22911       6   22872   22902
       4   22869   22899       6   22869   22902       4   22863   22893       4
   22857   22890       6   22857   22893       4   22851   22887       6   22845
   22851       4   22839   22872       7   22836   22869       4   22833   22839
       8   22833   22863       7   22830   22857       4   22827   22851       4
   22824   22845       4   22821   22842       2   22818   22836       4   22818
   22839       7   22815   22830       4   22815   22833       7   22812   22827
       4   22809   22812       7   22809   22824       7   22800   22821       3
   22794   22812       9   22794   22815       9   22794   22818       9   22791
   22809       8   22785   22800       4   22779   22800       4   22773   22791
       7   22767   22791       7   22767   22794       9   22764   22785       4
   22761   22779       4   22758   22773       4   22755   22767       4   22752
   22761       4   22752   22764       4   22749   22755       4   22749   22758
       4   22746   22749       6   22746   22752       6   22737   22746       6
   22731   22737       4   22725   22737       4   22713   22731       4   22710
   22725       4   22704   22710       4   22704   22713       4   22701   22704
       3   22701   22707       2   23592   23610       2   23589   23607       2
   23586   23604       2   23583   23601       2   23580   23598       2   23577
   23595       2   23568   23592       3   23559   23589       3   23550   23586
       3   23544   23583       3   23532   23580       3   23523   23577       3
   23517   23568       4   23511   23568       4   23505   23559       4   23499
   23559       4   23493   23550       4   23487   23550       4   23481   23544
       4   23475   23544       4   23472   23532       4   23466   23532       4
   23457   23523       4   23451   23523       4   23448   23517       4   23445
   23511       4   23442   23505       4   23439   23499       4   23436   23493
       4   23433   23487       4   23430   23481       4   23427   23475       4
   23424   23472       4   23421   23466       4   23418   23457       4   23415
   23451       4   23409   23445       4   23409   23448       4   23406   23439
       4   23406   23442       4   23400   23433       4   23400   23436       4
   23397   23427       4   23397   23430       4   23394   23421       4   23394
   23424       4   23391   23415       4   23391   23418       4   23382   23406
       6   23382   23409       6   23373   23397       6   23373   23400       6
   23370   23391       6   23370   23394       6   23355   23385       4   23352
   23382       6   23352   23385       4   23346   23376       4   23340   23373
       6   23340   23376       4   23334   23370       6   23328   23334       4
   23322   23355       7   23319   23352       4   23316   23322       8   23316
   23346       7   23313   23340       4   23310   23334       4   23307   23328
       4   23304   23325       2   23301   23319       4   23301   23322       7
   23298   23313       4   23298   23316       7   23295   23310       4   23292
   23295       7   23292   23307       7   23283   23304       3   23277   23295
       9   23277   23298       9   23277   23301       9   23274   23292       8
   23268   23283       4   23262   23283       4   23256   23274       7   23250
   23274       7   23250   23277       9   23247   23268       4   23244   23262
       4   23241   23256       4   23238   23250       4   23235   23244       4
   23235   23247       4   23232   23238       4   23232   23241       4   23229
   23232       6   23229   23235       6   23220   23229       6   23214   23220
       4   23208   23220       4   23196   23214       4   23193   23208       4
   23187   23193       4   23187   23196       4   23184   23187       3   23184
   23190       2   24075   24093       2   24072   24090       2   24069   24087
       2   24066   24084       2   24063   24081       2   24060   24078       2
   24051   24075       3   24042   24072       3   24033   24069       3   24027
   24066       3   24015   24063       3   24006   24060       3   24000   24051
       4   23994   24051       4   23988   24042       4   23982   24042       4
   23976   24033       4   23970   24033       4   23964   24027       4   23958
   24027       4   23955   24015       4   23949   24015       4   23940   24006
       4   23934   24006       4   23931   24000       4   23928   23994       4
   23925   23988       4   23922   23982       4   23919   23976       4   23916
   23970       4   23913   23964       4   23910   23958       4   23907   23955
       4   23904   23949       4   23901   23940       4   23898   23934       4
   23892   23928       4   23892   23931       4   23889   23922       4   23889
   23925       4   23883   23916       4   23883   23919       4   23880   23910
       4   23880   23913       4   23877   23904       4   23877   23907       4
   23874   23898       4   23874   23901       4   23865   23889       6   23865
   23892       6   23856   23880       6   23856   23883       6   23853   23874
       6   23853   23877       6   23838   23868       4   23835   23865       6
   23835   23868       4   23829   23859       4   23823   23856       6   23823
   23859       4   23817   23853       6   23811   23817       4   23805   23838
       7   23802   23835       4   23799   23805       8   23799   23829       7
   23796   23823       4   23793   23817       4   23790   23811       4   23787
   23808       2   23784   23802       4   23784   23805       7   23781   23796
       4   23781   23799       7   23778   23793       4   23775   23778       7
   23775   23790       7   23766   23787       3   23760   23778       9   23760
   23781       9   23760   23784       9   23757   23775       8   23751   23766
       4   23745   23766       4   23739   23757       7   23733   23757       7
   23733   23760       9   23730   23751       4   23727   23745       4   23724
   23739       4   23721   23733       4   23718   23727       4   23718   23730
       4   23715   23721       4   23715   23724       4   23712   23715       6
   23712   23718       6   23703   23712       6   23697   23703       4   23691
   23703       4   23679   23697       4   23676   23691       4   23670   23676
       4   23670   23679       4   23667   23670       3   23667   23673       2
   24558   24576       2   24555   24573       2   24552   24570       2   24549
   24567       2   24546   24564       2   24543   24561       2   24534   24558
       3   24525   24555       3   24516   24552       3   24510   24549       3
   24498   24546       3   24489   24543       3   24483   24534       4   24477
   24534       4   24471   24525       4   24465   24525       4   24459   24516
       4   24453   24516       4   24447   24510       4   24441   24510       4
   24438   24498       4   24432   24498       4   24423   24489       4   24417
   24489       4   24414   24483       4   24411   24477       4   24408   24471
       4   24405   24465       4   24402   24459       4   24399   24453       4
   24396   24447       4   24393   24441       4   24390   24438       4   24387
   24432       4   24384   24423       4   24381   24417       4   24375   24411
       4   24375   24414       4   24372   24405       4   24372   24408       4
   24366   24399       4   24366   24402       4   24363   24393       4   24363
   24396       4   24360   24387       4   24360   24390       4   24357   24381
       4   24357   24384       4   24348   24372       6   24348   24375       6
   24339   24363       6   24339   24366       6   24336   24357       6   24336
   24360       6   24321   24351       4   24318   24348       6   24318   24351
       4   24312   24342       4   24306   24339       6   24306   24342       4
   24300   24336       6   24294   24300       4   24288   24321       7   24285
   24318       4   24282   24288       8   24282   24312       7   24279   24306
       4   24276   24300       4   24273   24294       4   24270   24291       2
   24267   24285       4   24267   24288       7   24264   24279       4   24264
   24282       7   24261   24276       4   24258   24261       7   24258   24273
       7   24249   24270       3   24243   24261       9   24243   24264       9
   24243   24267       9   24240   24258       8   24234   24249       4   24228
   24249       4   24222   24240       7   24216   24240       7   24216   24243
       9   24213   24234       4   24210   24228       4   24207   24222       4
   24204   24216       4   24201   24210       4   24201   24213       4   24198
   24204       4   24198   24207       4   24195   24198       6   24195   24201
       6   24186   24195       6   24180   24186       4   24174   24186       4
   24162   24180       4   24159   24174       4   24153   24159       4   24153
   24162       4   24150   24153       3   24150   24156       2   25041   25059
       2   25038   25056       2   25035   25053       2   25032   25050       2
   25029   25047       2   25026   25044       2   25017   25041       3   25008
   25038       3   24999   25035       3   24993   25032       3   24981   25029
       3   24972   25026       3   24966   25017       4   24960   25017       4
   24954   25008       4   24948   25008       4   24942   24999       4   24936
   24999       4   24930   24993       4   24924   24993       4   24921   24981
       4   24915   24981       4   24906   24972       4   24900   24972       4
   24897   24966       4   24894   24960       4   24891   24954       4   24888
   24948       4   24885   24942       4   24882   24936       4   24879   24930
       4   24876   24924       4   24873   24921       4   24870   24915       4
   24867   24906       4   24864   24900       4   24858   24894       4   24858
   24897       4   24855   24888       4   24855   24891       4   24849   24882
       4   24849   24885       4   24846   24876       4   24846   24879       4
   24843   24870       4   24843   24873       4   24840   24864       4   24840
   24867       4   24831   24855       6   24831   24858       6   24822   24846
       6   24822   24849       6   24819   24840       6   24819   24843       6
   24804   24834       4   24801   24831       6   24801   24834       4   24795
   24825       4   24789   24822       6   24789   24825       4   24783   24819
       6   24777   24783       4   24771   24804       7   24768   24801       4
   24765   24771       8   24765   24795       7   24762   24789       4   24759
   24783       4   24756   24777       4   24753   24774       2   24750   24768
       4   24750   24771       7   24747   24762       4   24747   24765       7
   24744   24759       4   24741   24744       7   24741   24756       7   24732
   24753       3   24726   24744       9   24726   24747       9   24726   24750
       9   24723   24741       8   24717   24732       4   24711   24732       4
   24705   24723       7   24699   24723       7   24699   24726       9   24696
   24717       4   24693   24711       4   24690   24705       4   24687   24699
       4   24684   24693       4   24684   24696       4   24681   24687       4
   24681   24690       4   24678   24681       6   24678   24684       6   24669
   24678       6   24663   24669       4   24657   24669       4   24645   24663
       4   24642   24657       4   24636   24642       4   24636   24645       4
   24633   24636       3   24633   24639       2   25524   25542       2   25521
   25539       2   25518   25536       2   25515   25533       2   25512   25530
       2   25509   25527       2   25500   25524       3   25491   25521       3
   25482   25518       3   25476   25515       3   25464   25512       3   25455
   25509       3   25449   25500       4   25443   25500       4   25437   25491
       4   25431   25491       4   25425   25482       4   25419   25482       4
   25413   25476       4   25407   25476       4   25404   25464       4   25398
   25464       4   25389   25455       4   25383   25455       4   25380   25449
       4   25377   25443       4   25374   25437       4   25371   25431       4
   25368   25425       4   25365   25419       4   25362   25413       4   25359
   25407       4   25356   25404       4   25353   25398       4   25350   25389
       4   25347   25383       4   25341   25377       4   25341   25380       4
   25338   25371       4   25338   25374       4   25332   25365       4   25332
   25368       4   25329   25359       4   25329   25362       4   25326   25353
       4   25326   25356       4   25323   25347       4   25323   25350       4
   25314   25338       6   25314   25341       6   25305   25329       6   25305
   25332       6   25302   25323       6   25302   25326       6   25287   25317
       4   25284   25314       6   25284   25317       4   25278   25308       4
   25272   25305       6   25272   25308       4   25266   25302       6   25260
   25266       4   25254   25287       7   25251   25284       4   25248   25254
       8   25248   25278       7   25245   25272       4   25242   25266       4
   25239   25260       4   25236   25257       2   25233   25251       4   25233
   25254       7   25230   25245       4   25230   25248       7   25227   25242
       4   25224   25227       7   25224   25239       7   25215   25236       3
   25209   25227       9   25209   25230       9   25209   25233       9   25206
   25224       8   25200   25215       4   25194   25215       4   25188   25206
       7   25182   25206       7   25182   25209       9   25179   25200       4
   25176   25194       4   25173   25188       4   25170   25182       4   25167
   25176       4   25167   25179       4   25164   25170       4   25164   25173
       4   25161   25164       6   25161   25167       6   25152   25161       6
   25146   25152       4   25140   25152       4   25128   25146       4   25125
   25140       4   25119   25125       4   25119   25128       4   25116   25119
       3   25116   25122       2   26007   26025       2   26004   26022       2
   26001   26019       2   25998   26016       2   25995   26013       2   25992
   26010       2   25983   26007       3   25974   26004       3   25965   26001
       3   25959   25998       3   25947   25995       3   25938   25992       3
   25932   25983       4   25926   25983       4   25920   25974       4   25914
   25974       4   25908   25965       4   25902   25965       4   25896   25959
       4   25890   25959       4   25887   25947       4   25881   25947       4
   25872   25938       4   25866   25938       4   25863   25932       4   25860
   25926       4   25857   25920       4   25854   25914       4   25851   25908
       4   25848   25902       4   25845   25896       4   25842   25890       4
   25839   25887       4   25836   25881       4   25833   25872       4   25830
   25866       4   25824   25860       4   25824   25863       4   25821   25854
       4   25821   25857       4   25815   25848       4   25815   25851       4
   25812   25842       4   25812   25845       4   25809   25836       4   25809
   25839       4   25806   25830       4   25806   25833       4   25797   25821
       6   25797   25824       6   25788   25812       6   25788   25815       6
   25785   25806       6   25785   25809       6   25770   25800       4   25767
   25797       6   25767   25800       4   25761   25791       4   25755   25788
       6   25755   25791       4   25749   25785       6   25743   25749       4
   25737   25770       7   25734   25767       4   25731   25737       8   25731
   25761       7   25728   25755       4   25725   25749       4   25722   25743
       4   25719   25740       2   25716   25734       4   25716   25737       7
   25713   25728       4   25713   25731       7   25710   25725       4   25707
   25710       7   25707   25722       7   25698   25719       3   25692   25710
       9   25692   25713       9   25692   25716       9   25689   25707       8
   25683   25698       4   25677   25698       4   25671   25689       7   25665
   25689       7   25665   25692       9   25662   25683       4   25659   25677
       4   25656   25671       4   25653   25665       4   25650   25659       4
   25650   25662       4   25647   25653       4   25647   25656       4   25644
   25647       6   25644   25650       6   25635   25644       6   25629   25635
       4   25623   25635       4   25611   25629       4   25608   25623       4
   25602   25608       4   25602   25611       4   25599   25602       3   25599
   25605       2   26490   26508       2   26487   26505       2   26484   26502
       2   26481   26499       2   26478   26496       2   26475   26493       2
   26466   26490       3   26457   26487       3   26448   26484       3   26442
   26481       3   26430   26478       3   26421   26475       3   26415   26466
       4   26409   26466       4   26403   26457       4   26397   26457       4
   26391   26448       4   26385   26448       4   26379   26442       4   26373
   26442       4   26370   26430       4   26364   26430       4   26355   26421
       4   26349   26421       4   26346   26415       4   26343   26409       4
   26340   26403       4   26337   26397       4   26334   26391       4   26331
   26385       4   26328   26379       4   26325   26373       4   26322   26370
       4   26319   26364       4   26316   26355       4   26313   26349       4
   26307   26343       4   26307   26346       4   26304   26337       4   26304
   26340       4   26298   26331       4   26298   26334       4   26295   26325
       4   26295   26328       4   26292   26319       4   26292   26322       4
   26289   26313       4   26289   26316       4   26280   26304       6   26280
   26307       6   26271   26295       6   26271   26298       6   26268   26289
       6   26268   26292       6   26253   26283       4   26250   26280       6
   26250   26283       4   26244   26274       4   26238   26271       6   26238
   26274       4   26232   26268       6   26226   26232       4   26220   26253
       7   26217   26250       4   26214   26220       8   26214   26244       7
   26211   26238       4   26208   26232       4   26205   26226       4   26202
   26223       2   26199   26217       4   26199   26220       7   26196   26211
       4   26196   26214       7   26193   26208       4   26190   26193       7
   26190   26205       7   26181   26202       3   26175   26193       9   26175
   26196       9   26175   26199       9   26172   26190       8   26166   26181
       4   26160   26181       4   26154   26172       7   26148   26172       7
   26148   26175       9   26145   26166       4   26142   26160       4   26139
   26154       4   26136   26148       4   26133   26142       4   26133   26145
       4   26130   26136       4   26130   26139       4   26127   26130       6
   26127   26133       6   26118   26127       6   26112   26118       4   26106
   26118       4   26094   26112       4   26091   26106       4   26085   26091
       4   26085   26094       4   26082   26085       3   26082   26088       2
   26973   26991       2   26970   26988       2   26967   26985       2   26964
   26982       2   26961   26979       2   26958   26976       2   26949   26973
       3   26940   26970       3   26931   26967       3   26925   26964       3
   26913   26961       3   26904   26958       3   26898   26949       4   26892
   26949       4   26886   26940       4   26880   26940       4   26874   26931
       4   26868   26931       4   26862   26925       4   26856   26925       4
   26853   26913       4   26847   26913       4   26838   26904       4   26832
   26904       4   26829   26898       4   26826   26892       4   26823   26886
       4   26820   26880       4   26817   26874       4   26814   26868       4
   26811   26862       4   26808   26856       4   26805   26853       4   26802
   26847       4   26799   26838       4   26796   26832       4   26790   26826
       4   26790   26829       4   26787   26820       4   26787   26823       4
   26781   26814       4   26781   26817       4   26778   26808       4   26778
   26811       4   26775   26802       4   26775   26805       4   26772   26796
       4   26772   26799       4   26763   26787       6   26763   26790       6
   26754   26778       6   26754   26781       6   26751   26772       6   26751
   26775       6   26736   26766       4   26733   26763       6   26733   26766
       4   26727   26757       4   26721   26754       6   26721   26757       4
   26715   26751       6   26709   26715       4   26703   26736       7   26700
   26733       4   26697   26703       8   26697   26727       7   26694   26721
       4   26691   26715       4   26688   26709       4   26685   26706       2
   26682   26700       4   26682   26703       7   26679   26694       4   26679
   26697       7   26676   26691       4   26673   26676       7   26673   26688
       7   26664   26685       3   26658   26676       9   26658   26679       9
   26658   26682       9   26655   26673       8   26649   26664       4   26643
   26664       4   26637   26655       7   26631   26655       7   26631   26658
       9   26628   26649       4   26625   26643       4   26622   26637       4
   26619   26631       4   26616   26625       4   26616   26628       4   26613
   26619       4   26613   26622       4   26610   26613       6   26610   26616
       6   26601   26610       6   26595   26601       4   26589   26601       4
   26577   26595       4   26574   26589       4   26568   26574       4   26568
   26577       4   26565   26568       3   26565   26571       2   27456   27474
       2   27453   27471       2   27450   27468       2   27447   27465       2
   27444   27462       2   27441   27459       2   27432   27456       3   27423
   27453       3   27414   27450       3   27408   27447       3   27396   27444
       3   27387   27441       3   27381   27432       4   27375   27432       4
   27369   27423       4   27363   27423       4   27357   27414       4   27351
   27414       4   27345   27408       4   27339   27408       4   27336   27396
       4   27330   27396       4   27321   27387       4   27315   27387       4
   27312   27381       4   27309   27375       4   27306   27369       4   27303
   27363       4   27300   27357       4   27297   27351       4   27294   27345
       4   27291   27339       4   27288   27336       4   27285   27330       4
   27282   27321       4   27279   27315       4   27273   27309       4   27273
   27312       4   27270   27303       4   27270   27306       4   27264   27297
       4   27264   27300       4   27261   27291       4   27261   27294       4
   27258   27285       4   27258   27288       4   27255   27279       4   27255
   27282       4   27246   27270       6   27246   27273       6   27237   27261
       6   27237   27264       6   27234   27255       6   27234   27258       6
   27219   27249       4   27216   27246       6   27216   27249       4   27210
   27240       4   27204   27237       6   27204   27240       4   27198   27234
       6   27192   27198       4   27186   27219       7   27183   27216       4
   27180   27186       8   27180   27210       7   27177   27204       4   27174
   27198       4   27171   27192       4   27168   27189       2   27165   27183
       4   27165   27186       7   27162   27177       4   27162   27180       7
   27159   27174       4   27156   27159       7   27156   27171       7   27147
   27168       3   27141   27159       9   27141   27162       9   27141   27165
       9   27138   27156       8   27132   27147       4   27126   27147       4
   27120   27138       7   27114   27138       7   27114   27141       9   27111
   27132       4   27108   27126       4   27105   27120       4   27102   27114
       4   27099   27108       4   27099   27111       4   27096   27102       4
   27096   27105       4   27093   27096       6   27093   27099       6   27084
   27093       6   27078   27084       4   27072   27084       4   27060   27078
       4   27057   27072       4   27051   27057       4   27051   27060       4
   27048   27051       3   27048   27054       2   27939   27957       2   27936
   27954       2   27933   27951       2   27930   27948       2   27927   27945
       2   27924   27942       2   27915   27939       3   27906   27936       3
   27897   27933       3   27891   27930       3   27879   27927       3   27870
   27924       3   27864   27915       4   27858   27915       4   27852   27906
       4   27846   27906       4   27840   27897       4   27834   27897       4
   27828   27891       4   27822   27891       4   27819   27879       4   27813
   27879       4   27804   27870       4   27798   27870       4   27795   27864
       4   27792   27858       4   27789   27852       4   27786   27846       4
   27783   27840       4   27780   27834       4   27777   27828       4   27774
   27822       4   27771   27819       4   27768   27813       4   27765   27804
       4   27762   27798       4   27756   27792       4   27756   27795       4
   27753   27786       4   27753   27789       4   27747   27780       4   27747
   27783       4   27744   27774       4   27744   27777       4   27741   27768
       4   27741   27771       4   27738   27762       4   27738   27765       4
   27729   27753       6   27729   27756       6   27720   27744       6   27720
   27747       6   27717   27738       6   27717   27741       6   27702   27732
       4   27699   27729       6   27699   27732       4   27693   27723       4
   27687   27720       6   27687   27723       4   27681   27717       6   27675
   27681       4   27669   27702       7   27666   27699       4   27663   27669
       8   27663   27693       7   27660   27687       4   27657   27681       4
   27654   27675       4   27651   27672       2   27648   27666       4   27648
   27669       7   27645   27660       4   27645   27663       7   27642   27657
       4   27639   27642       7   27639   27654       7   27630   27651       3
   27624   27642       9   27624   27645       9   27624   27648       9   27621
   27639       8   27615   27630       4   27609   27630       4   27603   27621
       7   27597   27621       7   27597   27624       9   27594   27615       4
   27591   27609       4   27588   27603       4   27585   27597       4   27582
   27591       4   27582   27594       4   27579   27585       4   27579   27588
       4   27576   27579       6   27576   27582       6   27567   27576       6
   27561   27567       4   27555   27567       4   27543   27561       4   27540
   27555       4   27534   27540       4   27534   27543       4   27531   27534
       3   27531   27537       2   28422   28440       2   28419   28437       2
   28416   28434       2   28413   28431       2   28410   28428       2   28407
   28425       2   28398   28422       3   28389   28419       3   28380   28416
       3   28374   28413       3   28362   28410       3   28353   28407       3
   28347   28398       4   28341   28398       4   28335   28389       4   28329
   28389       4   28323   28380       4   28317   28380       4   28311   28374
       4   28305   28374       4   28302   28362       4   28296   28362       4
   28287   28353       4   28281   28353       4   28278   28347       4   28275
   28341       4   28272   28335       4   28269   28329       4   28266   28323
       4   28263   28317       4   28260   28311       4   28257   28305       4
   28254   28302       4   28251   28296       4   28248   28287       4   28245
   28281       4   28239   28275       4   28239   28278       4   28236   28269
       4   28236   28272       4   28230   28263       4   28230   28266       4
   28227   28257       4   28227   28260       4   28224   28251       4   28224
   28254       4   28221   28245       4   28221   28248       4   28212   28236
       6   28212   28239       6   28203   28227       6   28203   28230       6
   28200   28221       6   28200   28224       6   28185   28215       4   28182
   28212       6   28182   28215       4   28176   28206       4   28170   28203
       6   28170   28206       4   28164   28200       6   28158   28164       4
   28152   28185       7   28149   28182       4   28146   28152       8   28146
   28176       7   28143   28170       4   28140   28164       4   28137   28158
       4   28134   28155       2   28131   28149       4   28131   28152       7
   28128   28143       4   28128   28146       7   28125   28140       4   28122
   28125       7   28122   28137       7   28113   28134       3   28107   28125
       9   28107   28128       9   28107   28131       9   28104   28122       8
   28098   28113       4   28092   28113       4   28086   28104       7   28080
   28104       7   28080   28107       9   28077   28098       4   28074   28092
       4   28071   28086       4   28068   28080       4   28065   28074       4
   28065   28077       4   28062   28068       4   28062   28071       4   28059
   28062       6   28059   28065       6   28050   28059       6   28044   28050
       4   28038   28050       4   28026   28044       4   28023   28038       4
   28017   28023       4   28017   28026       4   28014   28017       3   28014
   28020       2   28905   28923       2   28902   28920       2   28899   28917
       2   28896   28914       2   28893   28911       2   28890   28908       2
   28881   28905       3   28872   28902       3   28863   28899       3   28857
   28896       3   28845   28893       3   28836   28890       3   28830   28881
       4   28824   28881       4   28818   28872       4   28812   28872       4
   28806   28863       4   28800   28863       4   28794   28857       4   28788
   28857       4   28785   28845       4   28779   28845       4   28770   28836
       4   28764   28836       4   28761   28830       4   28758   28824       4
   28755   28818       4   28752   28812       4   28749   28806       4   28746
   28800       4   28743   28794       4   28740   28788       4   28737   28785
       4   28734   28779       4   28731   28770       4   28728   28764       4
   28722   28758       4   28722   28761       4   28719   28752       4   28719
   28755       4   28713   28746       4   28713   28749       4   28710   28740
       4   28710   28743       4   28707   28734       4   28707   28737       4
   28704   28728       4   28704   28731       4   28695   28719       6   28695
   28722       6   28686   28710       6   28686   28713       6   28683   28704
       6   28683   28707       6   28668   28698       4   28665   28695       6
   28665   28698       4   28659   28689       4   28653   28686       6   28653
   28689       4   28647   28683       6   28641   28647       4   28635   28668
       7   28632   28665       4   28629   28635       8   28629   28659       7
   28626   28653       4   28623   28647       4   28620   28641       4   28617
   28638       2   28614   28632       4   28614   28635       7   28611   28626
       4   28611   28629       7   28608   28623       4   28605   28608       7
   28605   28620       7   28596   28617       3   28590   28608       9   28590
   28611       9   28590   28614       9   28587   28605       8   28581   28596
       4   28575   28596       4   28569   28587       7   28563   28587       7
   28563   28590       9   28560   28581       4   28557   28575       4   28554
   28569       4   28551   28563       4   28548   28557       4   28548   28560
       4   28545   28551       4   28545   28554       4   28542   28545       6
   28542   28548       6   28533   28542       6   28527   28533       4   28521
   28533       4   28509   28527       4   28506   28521       4   28500   28506
       4   28500   28509       4   28497   28500       3   28497   28503       2
   29388   29406       2   29385   29403       2   29382   29400       2   29379
   29397       2   29376   29394       2   29373   29391       2   29364   29388
       3   29355   29385       3   29346   29382       3   29340   29379       3
   29328   29376       3   29319   29373       3   29313   29364       4   29307
   29364       4   29301   29355       4   29295   29355       4   29289   29346
       4   29283   29346       4   29277   29340       4   29271   29340       4
   29268   29328       4   29262   29328       4   29253   29319       4   29247
   29319       4   29244   29313       4   29241   29307       4   29238   29301
       4   29235   29295       4   29232   29289       4   29229   29283       4
   29226   29277       4   29223   29271       4   29220   29268       4   29217
   29262       4   29214   29253       4   29211   29247       4   29205   29241
       4   29205   29244       4   29202   29235       4   29202   29238       4
   29196   29229       4   29196   29232       4   29193   29223       4   29193
   29226       4   29190   29217       4   29190   29220       4   29187   29211
       4   29187   29214       4   29178   29202       6   29178   29205       6
   29169   29193       6   29169   29196       6   29166   29187       6   29166
   29190       6   29151   29181       4   29148   29178       6   29148   29181
       4   29142   29172       4   29136   29169       6   29136   29172       4
   29130   29166       6   29124   29130       4   29118   29151       7   29115
   29148       4   29112   29118       8   29112   29142       7   29109   29136
       4   29106   29130       4   29103   29124       4   29100   29121       2
   29097   29115       4   29097   29118       7   29094   29109       4   29094
   29112       7   29091   29106       4   29088   29091       7   29088   29103
       7   29079   29100       3   29073   29091       9   29073   29094       9
   29073   29097       9   29070   29088       8   29064   29079       4   29058
   29079       4   29052   29070       7   29046   29070       7   29046   29073
       9   29043   29064       4   29040   29058       4   29037   29052       4
   29034   29046       4   29031   29040       4   29031   29043       4   29028
   29034       4   29028   29037       4   29025   29028       6   29025   29031
       6   29016   29025       6   29010   29016       4   29004   29016       4
   28992   29010       4   28989   29004       4   28983   28989       4   28983
   28992       4   28980   28983       3   28980   28986       2   29871   29889
       2   29868   29886       2   29865   29883       2   29862   29880       2
   29859   29877       2   29856   29874       2   29847   29871       3   29838
   29868       3   29829   29865       3   29823   29862       3   29811   29859
       3   29802   29856       3   29796   29847       4   29790   29847       4
   29784   29838       4   29778   29838       4   29772   29829       4   29766
   29829       4   29760   29823       4   29754   29823       4   29751   29811
       4   29745   29811       4   29736   29802       4   29730   29802       4
   29727   29796       4   29724   29790       4   29721   29784       4   29718
   29778       4   29715   29772       4   29712   29766       4   29709   29760
       4   29706   29754       4   29703   29751       4   29700   29745       4
   29697   29736       4   29694   29730       4   29688   29724       4   29688
   29727       4   29685   29718       4   29685   29721       4   29679   29712
       4   29679   29715       4   29676   29706       4   29676   29709       4
   29673   29700       4   29673   29703       4   29670   29694       4   29670
   29697       4   29661   29685       6   29661   29688       6   29652   29676
       6   29652   29679       6   29649   29670       6   29649   29673       6
   29634   29664       4   29631   29661       6   29631   29664       4   29625
   29655       4   29619   29652       6   29619   29655       4   29613   29649
       6   29607   29613       4   29601   29634       7   29598   29631       4
   29595   29601       8   29595   29625       7   29592   29619       4   29589
   29613       4   29586   29607       4   29583   29604       2   29580   29598
       4   29580   29601       7   29577   29592       4   29577   29595       7
   29574   29589       4   29571   29574       7   29571   29586       7   29562
   29583       3   29556   29574       9   29556   29577       9   29556   29580
       9   29553   29571       8   29547   29562       4   29541   29562       4
   29535   29553       7   29529   29553       7   29529   29556       9   29526
   29547       4   29523   29541       4   29520   29535       4   29517   29529
       4   29514   29523       4   29514   29526       4   29511   29517       4
   29511   29520       4   29508   29511       6   29508   29514       6   29499
   29508       6   29493   29499       4   29487   29499       4   29475   29493
       4   29472   29487       4   29466   29472       4   29466   29475       4
   29463   29466       3   29463   29469       2   30354   30372       2   30351
   30369       2   30348   30366       2   30345   30363       2   30342   30360
       2   30339   30357       2   30330   30354       3   30321   30351       3
   30312   30348       3   30306   30345       3   30294   30342       3   30285
   30339       3   30279   30330       4   30273   30330       4   30267   30321
       4   30261   30321       4   30255   30312       4   30249   30312       4
   30243   30306       4   30237   30306       4   30234   30294       4   30228
   30294       4   30219   30285       4   30213   30285       4   30210   30279
       4   30207   30273       4   30204   30267       4   30201   30261       4
   30198   30255       4   30195   30249       4   30192   30243       4   30189
   30237       4   30186   30234       4   30183   30228       4   30180   30219
       4   30177   30213       4   30171   30207       4   30171   30210       4
   30168   30201       4   30168   30204       4   30162   30195       4   30162
   30198       4   30159   30189       4   30159   30192       4   30156   30183
       4   30156   30186       4   30153   30177       4   30153   30180       4
   30144   30168       6   30144   30171       6   30135   30159       6   30135
   30162       6   30132   30153       6   30132   30156       6   30117   30147
       4   30114   30144       6   30114   30147       4   30108   30138       4
   30102   30135       6   30102   30138       4   30096   30132       6   30090
   30096       4   30084   30117       7   30081   30114       4   30078   30084
       8   30078   30108       7   30075   30102       4   30072   30096       4
   30069   30090       4   30066   30087       2   30063   30081       4   30063
   30084       7   30060   30075       4   30060   30078       7   30057   30072
       4   30054   30057       7   30054   30069       7   30045   30066       3
   30039   30057       9   30039   30060       9   30039   30063       9   30036
   30054       8   30030   30045       4   30024   30045       4   30018   30036
       7   30012   30036       7   30012   30039       9   30009   30030       4
   30006   30024       4   30003   30018       4   30000   30012       4   29997
   30006       4   29997   30009       4   29994   30000       4   29994   30003
       4   29991   29994       6   29991   29997       6   29982   29991       6
   29976   29982       4   29970   29982       4   29958   29976       4   29955
   29970       4   29949   29955       4   29949   29958       4   29946   29949
       3   29946   29952       2   30837   30855       2   30834   30852       2
   30831   30849       2   30828   30846       2   30825   30843       2   30822
   30840       2   30813   30837       3   30804   30834       3   30795   30831
       3   30789   30828       3   30777   30825       3   30768   30822       3
   30762   30813       4   30756   30813       4   30750   30804       4   30744
   30804       4   30738   30795       4   30732   30795       4   30726   30789
       4   30720   30789       4   30717   30777       4   30711   30777       4
   30702   30768       4   30696   30768       4   30693   30762       4   30690
   30756       4   30687   30750       4   30684   30744       4   30681   30738
       4   30678   30732       4   30675   30726       4   30672   30720       4
   30669   30717       4   30666   30711       4   30663   30702       4   30660
   30696       4   30654   30690       4   30654   30693       4   30651   30684
       4   30651   30687       4   30645   30678       4   30645   30681       4
   30642   30672       4   30642   30675       4   30639   30666       4   30639
   30669       4   30636   30660       4   30636   30663       4   30627   30651
       6   30627   30654       6   30618   30642       6   30618   30645       6
   30615   30636       6   30615   30639       6   30600   30630       4   30597
   30627       6   30597   30630       4   30591   30621       4   30585   30618
       6   30585   30621       4   30579   30615       6   30573   30579       4
   30567   30600       7   30564   30597       4   30561   30567       8   30561
   30591       7   30558   30585       4   30555   30579       4   30552   30573
       4   30549   30570       2   30546   30564       4   30546   30567       7
   30543   30558       4   30543   30561       7   30540   30555       4   30537
   30540       7   30537   30552       7   30528   30549       3   30522   30540
       9   30522   30543       9   30522   30546       9   30519   30537       8
   30513   30528       4   30507   30528       4   30501   30519       7   30495
   30519       7   30495   30522       9   30492   30513       4   30489   30507
       4   30486   30501       4   30483   30495       4   30480   30489       4
   30480   30492       4   30477   30483       4   30477   30486       4   30474
   30477       6   30474   30480       6   30465   30474       6   30459   30465
       4   30453   30465       4   30441   30459       4   30438   30453       4
   30432   30438       4   30432   30441       4   30429   30432       3   30429
   30435       2   31320   31338       2   31317   31335       2   31314   31332
       2   31311   31329       2   31308   31326       2   31305   31323       2
   31296   31320       3   31287   31317       3   31278   31314       3   31272
   31311       3   31260   31308       3   31251   31305       3   31245   31296
       4   31239   31296       4   31233   31287       4   31227   31287       4
   31221   31278       4   31215   31278       4   31209   31272       4   31203
   31272       4   31200   31260       4   31194   31260       4   31185   31251
       4   31179   31251       4   31176   31245       4   31173   31239       4
   31170   31233       4   31167   31227       4   31164   31221       4   31161
   31215       4   31158   31209       4   31155   31203       4   31152   31200
       4   31149   31194       4   31146   31185       4   31143   31179       4
   31137   31173       4   31137   31176       4   31134   31167       4   31134
   31170       4   31128   31161       4   31128   31164       4   31125   31155
       4   31125   31158       4   31122   31149       4   31122   31152       4
   31119   31143       4   31119   31146       4   31110   31134       6   31110
   31137       6   31101   31125       6   31101   31128       6   31098   31119
       6   31098   31122       6   31083   31113       4   31080   31110       6
   31080   31113       4   31074   31104       4   31068   31101       6   31068
   31104       4   31062   31098       6   31056   31062       4   31050   31083
       7   31047   31080       4   31044   31050       8   31044   31074       7
   31041   31068       4   31038   31062       4   31035   31056       4   31032
   31053       2   31029   31047       4   31029   31050       7   31026   31041
       4   31026   31044       7   31023   31038       4   31020   31023       7
   31020   31035       7   31011   31032       3   31005   31023       9   31005
   31026       9   31005   31029       9   31002   31020       8   30996   31011
       4   30990   31011       4   30984   31002       7   30978   31002       7
   30978   31005       9   30975   30996       4   30972   30990       4   30969
   30984       4   30966   30978       4   30963   30972       4   30963   30975
       4   30960   30966       4   30960   30969       4   30957   30960       6
   30957   30963       6   30948   30957       6   30942   30948       4   30936
   30948       4   30924   30942       4   30921   30936       4   30915   30921
       4   30915   30924       4   30912   30915       3   30912   30918       2
   31803   31821       2   31800   31818       2   31797   31815       2   31794
   31812       2   31791   31809       2   31788   31806       2   31779   31803
       3   31770   31800       3   31761   31797       3   31755   31794       3
   31743   31791       3   31734   31788       3   31728   31779       4   31722
   31779       4   31716   31770       4   31710   31770       4   31704   31761
       4   31698   31761       4   31692   31755       4   31686   31755       4
   31683   31743       4   31677   31743       4   31668   31734       4   31662
   31734       4   31659   31728       4   31656   31722       4   31653   31716
       4   31650   31710       4   31647   31704       4   31644   31698       4
   31641   31692       4   31638   31686       4   31635   31683       4   31632
   31677       4   31629   31668       4   31626   31662       4   31620   31656
       4   31620   31659       4   31617   31650       4   31617   31653       4
   31611   31644       4   31611   31647       4   31608   31638       4   31608
   31641       4   31605   31632       4   31605   31635       4   31602   31626
       4   31602   31629       4   31593   31617       6   31593   31620       6
   31584   31608       6   31584   31611       6   31581   31602       6   31581
   31605       6   31566   31596       4   31563   31593       6   31563   31596
       4   31557   31587       4   31551   31584       6   31551   31587       4
   31545   31581       6   31539   31545       4   31533   31566       7   31530
   31563       4   31527   31533       8   31527   31557       7   31524   31551
       4   31521   31545       4   31518   31539       4   31515   31536       2
   31512   31530       4   31512   31533       7   31509   31524       4   31509
   31527       7   31506   31521       4   31503   31506       7   31503   31518
       7   31494   31515       3   31488   31506       9   31488   31509       9
   31488   31512       9   31485   31503       8   31479   31494       4   31473
   31494       4   31467   31485       7   31461   31485       7   31461   31488
       9   31458   31479       4   31455   31473       4   31452   31467       4
   31449   31461       4   31446   31455       4   31446   31458       4   31443
   31449       4   31443   31452       4   31440   31443       6   31440   31446
       6   31431   31440       6   31425   31431       4   31419   31431       4
   31407   31425       4   31404   31419       4   31398   31404       4   31398
   31407       4   31395   31398       3   31395   31401       2   32286   32304
       2   32283   32301       2   32280   32298       2   32277   32295       2
   32274   32292       2   32271   32289       2   32262   32286       3   32253
   32283       3   32244   32280       3   32238   32277       3   32226   32274
       3   32217   32271       3   32211   32262       4   32205   32262       4
   32199   32253       4   32193   32253       4   32187   32244       4   32181
   32244       4   32175   32238       4   32169   32238       4   32166   32226
       4   32160   32226       4   32151   32217       4   32145   32217       4
   32142   32211       4   32139   32205       4   32136   32199       4   32133
   32193       4   32130   32187       4   32127   32181       4   32124   32175
       4   32121   32169       4   32118   32166       4   32115   32160       4
   32112   32151       4   32109   32145       4   32103   32139       4   32103
   32142       4   32100   32133       4   32100   32136       4   32094   32127
       4   32094   32130       4   32091   32121       4   32091   32124       4
   32088   32115       4   32088   32118       4   32085   32109       4   32085
   32112       4   32076   32100       6   32076   32103       6   32067   32091
       6   32067   32094       6   32064   32085       6   32064   32088       6
   32049   32079       4   32046   32076       6   32046   32079       4   32040
   32070       4   32034   32067       6   32034   32070       4   32028   32064
       6   32022   32028       4   32016   32049       7   32013   32046       4
   32010   32016       8   32010   32040       7   32007   32034       4   32004
   32028       4   32001   32022       4   31998   32019       2   31995   32013
       4   31995   32016       7   31992   32007       4   31992   32010       7
   31989   32004       4   31986   31989       7   31986   32001       7   31977
   31998       3   31971   31989       9   31971   31992       9   31971   31995
       9   31968   31986       8   31962   31977       4   31956   31977       4
   31950   31968       7   31944   31968       7   31944   31971       9   31941
   31962       4   31938   31956       4   31935   31950       4   31932   31944
       4   31929   31938       4   31929   31941       4   31926   31932       4
   31926   31935       4   31923   31926       6   31923   31929       6   31914
   31923       6   31908   31914       4   31902   31914       4   31890   31908
       4   31887   31902       4   31881   31887       4   31881   31890       4
   31878   31881       3   31878   31884       2   32769   32787       2   32766
   32784       2   32763   32781       2   32760   32778       2   32757   32775
       2   32754   32772       2   32745   32769       3   32736   32766       3
   32727   32763       3   32721   32760       3   32709   32757       3   32700
   32754       3   32694   32745       4   32688   32745       4   32682   32736
       4   32676   32736       4   32670   32727       4   32664   32727       4
   32658   32721       4   32652   32721       4   32649   32709       4   32643
   32709       4   32634   32700       4   32628   32700       4   32625   32694
       4   32622   32688       4   32619   32682       4   32616   32676       4
   32613   32670       4   32610   32664       4   32607   32658       4   32604
   32652       4   32601   32649       4   32598   32643       4   32595   32634
       4   32592   32628       4   32586   32622       4   32586   32625       4
   32583   32616       4   32583   32619       4   32577   32610       4   32577
   32613       4   32574   32604       4   32574   32607       4   32571   32598
       4   32571   32601       4   32568   32592       4   32568   32595       4
   32559   32583       6   32559   32586       6   32550   32574       6   32550
   32577       6   32547   32568       6   32547   32571       6   32532   32562
       4   32529   32559       6   32529   32562       4   32523   32553       4
   32517   32550       6   32517   32553       4   32511   32547       6   32505
   32511       4   32499   32532       7   32496   32529       4   32493   32499
       8   32493   32523       7   32490   32517       4   32487   32511       4
   32484   32505       4   32481   32502       2   32478   32496       4   32478
   32499       7   32475   32490       4   32475   32493       7   32472   32487
       4   32469   32472       7   32469   32484       7   32460   32481       3
   32454   32472       9   32454   32475       9   32454   32478       9   32451
   32469       8   32445   32460       4   32439   32460       4   32433   32451
       7   32427   32451       7   32427   32454       9   32424   32445       4
   32421   32439       4   32418   32433       4   32415   32427       4   32412
   32421       4   32412   32424       4   32409   32415       4   32409   32418
       4   32406   32409       6   32406   32412       6   32397   32406       6
   32391   32397       4   32385   32397       4   32373   32391       4   32370
   32385       4   32364   32370       4   32364   32373       4   32361   32364
       3   32361   32367       2   33252   33270       2   33249   33267       2
   33246   33264       2   33243   33261       2   33240   33258       2   33237
   33255       2   33228   33252       3   33219   33249       3   33210   33246
       3   33204   33243       3   33192   33240       3   33183   33237       3
   33177   33228       4   33171   33228       4   33165   33219       4   33159
   33219       4   33153   33210       4   33147   33210       4   33141   33204
       4   33135   33204       4   33132   33192       4   33126   33192       4
   33117   33183       4   33111   33183       4   33108   33177       4   33105
   33171       4   33102   33165       4   33099   33159       4   33096   33153
       4   33093   33147       4   33090   33141       4   33087   33135       4
   33084   33132       4   33081   33126       4   33078   33117       4   33075
   33111       4   33069   33105       4   33069   33108       4   33066   33099
       4   33066   33102       4   33060   33093       4   33060   33096       4
   33057   33087       4   33057   33090       4   33054   33081       4   33054
   33084       4   33051   33075       4   33051   33078       4   33042   33066
       6   33042   33069       6   33033   33057       6   33033   33060       6
   33030   33051       6   33030   33054       6   33015   33045       4   33012
   33042       6   33012   33045       4   33006   33036       4   33000   33033
       6   33000   33036       4   32994   33030       6   32988   32994       4
   32982   33015       7   32979   33012       4   32976   32982       8   32976
   33006       7   32973   33000       4   32970   32994       4   32967   32988
       4   32964   32985       2   32961   32979       4   32961   32982       7
   32958   32973       4   32958   32976       7   32955   32970       4   32952
   32955       7   32952   32967       7   32943   32964       3   32937   32955
       9   32937   32958       9   32937   32961       9   32934   32952       8
   32928   32943       4   32922   32943       4   32916   32934       7   32910
   32934       7   32910   32937       9   32907   32928       4   32904   32922
       4   32901   32916       4   32898   32910       4   32895   32904       4
   32895   32907       4   32892   32898       4   32892   32901       4   32889
   32892       6   32889   32895       6   32880   32889       6   32874   32880
       4   32868   32880       4   32856   32874       4   32853   32868       4
   32847   32853       4   32847   32856       4   32844   32847       3   32844
   32850       2   33735   33753       2   33732   33750       2   33729   33747
       2   33726   33744       2   33723   33741       2   33720   33738       2
   33711   33735       3   33702   33732       3   33693   33729       3   33687
   33726       3   33675   33723       3   33666   33720       3   33660   33711
       4   33654   33711       4   33648   33702       4   33642   33702       4
   33636   33693       4   33630   33693       4   33624   33687       4   33618
   33687       4   33615   33675       4   33609   33675       4   33600   33666
       4   33594   33666       4   33591   33660       4   33588   33654       4
   33585   33648       4   33582   33642       4   33579   33636       4   33576
   33630       4   33573   33624       4   33570   33618       4   33567   33615
       4   33564   33609       4   33561   33600       4   33558   33594       4
   33552   33588       4   33552   33591       4   33549   33582       4   33549
   33585       4   33543   33576       4   33543   33579       4   33540   33570
       4   33540   33573       4   33537   33564       4   33537   33567       4
   33534   33558       4   33534   33561       4   33525   33549       6   33525
   33552       6   33516   33540       6   33516   33543       6   33513   33534
       6   33513   33537       6   33498   33528       4   33495   33525       6
   33495   33528       4   33489   33519       4   33483   33516       6   33483
   33519       4   33477   33513       6   33471   33477       4   33465   33498
       7   33462   33495       4   33459   33465       8   33459   33489       7
   33456   33483       4   33453   33477       4   33450   33471       4   33447
   33468       2   33444   33462       4   33444   33465       7   33441   33456
       4   33441   33459       7   33438   33453       4   33435   33438       7
   33435   33450       7   33426   33447       3   33420   33438       9   33420
   33441       9   33420   33444       9   33417   33435       8   33411   33426
       4   33405   33426       4   33399   33417       7   33393   33417       7
   33393   33420       9   33390   33411       4   33387   33405       4   33384
   33399       4   33381   33393       4   33378   33387       4   33378   33390
       4   33375   33381       4   33375   33384       4   33372   33375       6
   33372   33378       6   33363   33372       6   33357   33363       4   33351
   33363       4   33339   33357       4   33336   33351       4   33330   33336
       4   33330   33339       4   33327   33330       3   33327   33333       2
   34218   34236       2   34215   34233       2   34212   34230       2   34209
   34227       2   34206   34224       2   34203   34221       2   34194   34218
       3   34185   34215       3   34176   34212       3   34170   34209       3
   34158   34206       3   34149   34203       3   34143   34194       4   34137
   34194       4   34131   34185       4   34125   34185       4   34119   34176
       4   34113   34176       4   34107   34170       4   34101   34170       4
   34098   34158       4   34092   34158       4   34083   34149       4   34077
   34149       4   34074   34143       4   34071   34137       4   34068   34131
       4   34065   34125       4   34062   34119       4   34059   34113       4
   34056   34107       4   34053   34101       4   34050   34098       4   34047
   34092       4   34044   34083       4   34041   34077       4   34035   34071
       4   34035   34074       4   34032   34065       4   34032   34068       4
   34026   34059       4   34026   34062       4   34023   34053       4   34023
   34056       4   34020   34047       4   34020   34050       4   34017   34041
       4   34017   34044       4   34008   34032       6   34008   34035       6
   33999   34023       6   33999   34026       6   33996   34017       6   33996
   34020       6   33981   34011       4   33978   34008       6   33978   34011
       4   33972   34002       4   33966   33999       6   33966   34002       4
   33960   33996       6   33954   33960       4   33948   33981       7   33945
   33978       4   33942   33948       8   33942   33972       7   33939   33966
       4   33936   33960       4   33933   33954       4   33930   33951       2
   33927   33945       4   33927   33948       7   33924   33939       4   33924
   33942       7   33921   33936       4   33918   33921       7   33918   33933
       7   33909   33930       3   33903   33921       9   33903   33924       9
   33903   33927       9   33900   33918       8   33894   33909       4   33888
   33909       4   33882   33900       7   33876   33900       7   33876   33903
       9   33873   33894       4   33870   33888       4   33867   33882       4
   33864   33876       4   33861   33870       4   33861   33873       4   33858
   33864       4   33858   33867       4   33855   33858       6   33855   33861
       6   33846   33855       6   33840   33846       4   33834   33846       4
   33822   33840       4   33819   33834       4   33813   33819       4   33813
   33822       4   33810   33813       3   33810   33816       2   34701   34719
       2   34698   34716       2   34695   34713       2   34692   34710       2
   34689   34707       2   34686   34704       2   34677   34701       3   34668
   34698       3   34659   34695       3   34653   34692       3   34641   34689
       3   34632   34686       3   34626   34677       4   34620   34677       4
   34614   34668       4   34608   34668       4   34602   34659       4   34596
   34659       4   34590   34653       4   34584   34653       4   34581   34641
       4   34575   34641       4   34566   34632       4   34560   34632       4
   34557   34626       4   34554   34620       4   34551   34614       4   34548
   34608       4   34545   34602       4   34542   34596       4   34539   34590
       4   34536   34584       4   34533   34581       4   34530   34575       4
   34527   34566       4   34524   34560       4   34518   34554       4   34518
   34557       4   34515   34548       4   34515   34551       4   34509   34542
       4   34509   34545       4   34506   34536       4   34506   34539       4
   34503   34530       4   34503   34533       4   34500   34524       4   34500
   34527       4   34491   34515       6   34491   34518       6   34482   34506
       6   34482   34509       6   34479   34500       6   34479   34503       6
   34464   34494       4   34461   34491       6   34461   34494       4   34455
   34485       4   34449   34482       6   34449   34485       4   34443   34479
       6   34437   34443       4   34431   34464       7   34428   34461       4
   34425   34431       8   34425   34455       7   34422   34449       4   34419
   34443       4   34416   34437       4   34413   34434       2   34410   34428
       4   34410   34431       7   34407   34422       4   34407   34425       7
   34404   34419       4   34401   34404       7   34401   34416       7   34392
   34413       3   34386   34404       9   34386   34407       9   34386   34410
       9   34383   34401       8   34377   34392       4   34371   34392       4
   34365   34383       7   34359   34383       7   34359   34386       9   34356
   34377       4   34353   34371       4   34350   34365       4   34347   34359
       4   34344   34353       4   34344   34356       4   34341   34347       4
   34341   34350       4   34338   34341       6   34338   34344       6   34329
   34338       6   34323   34329       4   34317   34329       4   34305   34323
       4   34302   34317       4   34296   34302       4   34296   34305       4
   34293   34296       3   34293   34299       2   35184   35202       2   35181
   35199       2   35178   35196       2   35175   35193       2   35172   35190
       2   35169   35187       2   35160   35184       3   35151   35181       3
   35142   35178       3   35136   35175       3   35124   35172       3   35115
   35169       3   35109   35160       4   35103   35160       4   35097   35151
       4   35091   35151       4   35085   35142       4   35079   35142       4
   35073   35136       4   35067   35136       4   35064   35124       4   35058
   35124       4   35049   35115       4   35043   35115       4   35040   35109
       4   35037   35103       4   35034   35097       4   35031   35091       4
   35028   35085       4   35025   35079       4   35022   35073       4   35019
   35067       4   35016   35064       4   35013   35058       4   35010   35049
       4   35007   35043       4   35001   35037       4   35001   35040       4
   34998   35031       4   34998   35034       4   34992   35025       4   34992
   35028       4   34989   35019       4   34989   35022       4   34986   35013
       4   34986   35016       4   34983   35007       4   34983   35010       4
   34974   34998       6   34974   35001       6   34965   34989       6   34965
   34992       6   34962   34983       6   34962   34986       6   34947   34977
       4   34944   34974       6   34944   34977       4   34938   34968       4
   34932   34965       6   34932   34968       4   34926   34962       6   34920
   34926       4   34914   34947       7   34911   34944       4   34908   34914
       8   34908   34938       7   34905   34932       4   34902   34926       4
   34899   34920       4   34896   34917       2   34893   34911       4   34893
   34914       7   34890   34905       4   34890   34908       7   34887   34902
       4   34884   34887       7   34884   34899       7   34875   34896       3
   34869   34887       9   34869   34890       9   34869   34893       9   34866
   34884       8   34860   34875       4   34854   34875       4   34848   34866
       7   34842   34866       7   34842   34869       9   34839   34860       4
   34836   34854       4   34833   34848       4   34830   34842       4   34827
   34836       4   34827   34839       4   34824   34830       4   34824   34833
       4   34821   34824       6   34821   34827       6   34812   34821       6
   34806   34812       4   34800   34812       4   34788   34806       4   34785
   34800       4   34779   34785       4   34779   34788       4   34776   34779
       3   34776   34782       2   35667   35685       2   35664   35682       2
   35661   35679       2   35658   35676       2   35655   35673       2   35652
   35670       2   35643   35667       3   35634   35664       3   35625   35661
       3   35619   35658       3   35607   35655       3   35598   35652       3
   35592   35643       4   35586   35643       4   35580   35634       4   35574
   35634       4   35568   35625       4   35562   35625       4   35556   35619
       4   35550   35619       4   35547   35607       4   35541   35607       4
   35532   35598       4   35526   35598       4   35523   35592       4   35520
   35586       4   35517   35580       4   35514   35574       4   35511   35568
       4   35508   35562       4   35505   35556       4   35502   35550       4
   35499   35547       4   35496   35541       4   35493   35532       4   35490
   35526       4   35484   35520       4   35484   35523       4   35481   35514
       4   35481   35517       4   35475   35508       4   35475   35511       4
   35472   35502       4   35472   35505       4   35469   35496       4   35469
   35499       4   35466   35490       4   35466   35493       4   35457   35481
       6   35457   35484       6   35448   35472       6   35448   35475       6
   35445   35466       6   35445   35469       6   35430   35460       4   35427
   35457       6   35427   35460       4   35421   35451       4   35415   35448
       6   35415   35451       4   35409   35445       6   35403   35409       4
   35397   35430       7   35394   35427       4   35391   35397       8   35391
   35421       7   35388   35415       4   35385   35409       4   35382   35403
       4   35379   35400       2   35376   35394       4   35376   35397       7
   35373   35388       4   35373   35391       7   35370   35385       4   35367
   35370       7   35367   35382       7   35358   35379       3   35352   35370
       9   35352   35373       9   35352   35376       9   35349   35367       8
   35343   35358       4   35337   35358       4   35331   35349       7   35325
   35349       7   35325   35352       9   35322   35343       4   35319   35337
       4   35316   35331       4   35313   35325       4   35310   35319       4
   35310   35322       4   35307   35313       4   35307   35316       4   35304
   35307       6   35304   35310       6   35295   35304       6   35289   35295
       4   35283   35295       4   35271   35289       4   35268   35283       4
   35262   35268       4   35262   35271       4   35259   35262       3   35259
   35265       2   36150   36168       2   36147   36165       2   36144   36162
       2   36141   36159       2   36138   36156       2   36135   36153       2
   36126   36150       3   36117   36147       3   36108   36144       3   36102
   36141       3   36090   36138       3   36081   36135       3   36075   36126
       4   36069   36126       4   36063   36117       4   36057   36117       4
   36051   36108       4   36045   36108       4   36039   36102       4   36033
   36102       4   36030   36090       4   36024   36090       4   36015   36081
       4   36009   36081       4   36006   36075       4   36003   36069       4
   36000   36063       4   35997   36057       4   35994   36051       4   35991
   36045       4   35988   36039       4   35985   36033       4   35982   36030
       4   35979   36024       4   35976   36015       4   35973   36009       4
   35967   36003       4   35967   36006       4   35964   35997       4   35964
   36000       4   35958   35991       4   35958   35994       4   35955   35985
       4   35955   35988       4   35952   35979       4   35952   35982       4
   35949   35973       4   35949   35976       4   35940   35964       6   35940
   35967       6   35931   35955       6   35931   35958       6   35928   35949
       6   35928   35952       6   35913   35943       4   35910   35940       6
   35910   35943       4   35904   35934       4   35898   35931       6   35898
   35934       4   35892   35928       6   35886   35892       4   35880   35913
       7   35877   35910       4   35874   35880       8   35874   35904       7
   35871   35898       4   35868   35892       4   35865   35886       4   35862
   35883       2   35859   35877       4   35859   35880       7   35856   35871
       4   35856   35874       7   35853   35868       4   35850   35853       7
   35850   35865       7   35841   35862       3   35835   35853       9   35835
   35856       9   35835   35859       9   35832   35850       8   35826   35841
       4   35820   35841       4   35814   35832       7   35808   35832       7
   35808   35835       9   35805   35826       4   35802   35820       4   35799
   35814       4   35796   35808       4   35793   35802       4   35793   35805
       4   35790   35796       4   35790   35799       4   35787   35790       6
   35787   35793       6   35778   35787       6   35772   35778       4   35766
   35778       4   35754   35772       4   35751   35766       4   35745   35751
       4   35745   35754       4   35742   35745       3   35742   35748       2
   36633   36651       2   36630   36648       2   36627   36645       2   36624
   36642       2   36621   36639       2   36618   36636       2   36609   36633
       3   36600   36630       3   36591   36627       3   36585   36624       3
   36573   36621       3   36564   36618       3   36558   36609       4   36552
   36609       4   36546   36600       4   36540   36600       4   36534   36591
       4   36528   36591       4   36522   36585       4   36516   36585       4
   36513   36573       4   36507   36573       4   36498   36564       4   36492
   36564       4   36489   36558       4   36486   36552       4   36483   36546
       4   36480   36540       4   36477   36534       4   36474   36528       4
   36471   36522       4   36468   36516       4   36465   36513       4   36462
   36507       4   36459   36498       4   36456   36492       4   36450   36486
       4   36450   36489       4   36447   36480       4   36447   36483       4
   36441   36474       4   36441   36477       4   36438   36468       4   36438
   36471       4   36435   36462       4   36435   36465       4   36432   36456
       4   36432   36459       4   36423   36447       6   36423   36450       6
   36414   36438       6   36414   36441       6   36411   36432       6   36411
   36435       6   36396   36426       4   36393   36423       6   36393   36426
       4   36387   36417       4   36381   36414       6   36381   36417       4
   36375   36411       6   36369   36375       4   36363   36396       7   36360
   36393       4   36357   36363       8   36357   36387       7   36354   36381
       4   36351   36375       4   36348   36369       4   36345   36366       2
   36342   36360       4   36342   36363       7   36339   36354       4   36339
   36357       7   36336   36351       4   36333   36336       7   36333   36348
       7   36324   36345       3   36318   36336       9   36318   36339       9
   36318   36342       9   36315   36333       8   36309   36324       4   36303
   36324       4   36297   36315       7   36291   36315       7   36291   36318
       9   36288   36309       4   36285   36303       4   36282   36297       4
   36279   36291       4   36276   36285       4   36276   36288       4   36273
   36279       4   36273   36282       4   36270   36273       6   36270   36276
       6   36261   36270       6   36255   36261       4   36249   36261       4
   36237   36255       4   36234   36249       4   36228   36234       4   36228
   36237       4   36225   36228       3   36225   36231       2   37116   37134
       2   37113   37131       2   37110   37128       2   37107   37125       2
   37104   37122       2   37101   37119       2   37092   37116       3   37083
   37113       3   37074   37110       3   37068   37107       3   37056   37104
       3   37047   37101       3   37041   37092       4   37035   37092       4
   37029   37083       4   37023   37083       4   37017   37074       4   37011
   37074       4   37005   37068       4   36999   37068       4   36996   37056
       4   36990   37056       4   36981   37047       4   36975   37047       4
   36972   37041       4   36969   37035       4   36966   37029       4   36963
   37023       4   36960   37017       4   36957   37011       4   36954   37005
       4   36951   36999       4   36948   36996       4   36945   36990       4
   36942   36981       4   36939   36975       4   36933   36969       4   36933
   36972       4   36930   36963       4   36930   36966       4   36924   36957
       4   36924   36960       4   36921   36951       4   36921   36954       4
   36918   36945       4   36918   36948       4   36915   36939       4   36915
   36942       4   36906   36930       6   36906   36933       6   36897   36921
       6   36897   36924       6   36894   36915       6   36894   36918       6
   36879   36909       4   36876   36906       6   36876   36909       4   36870
   36900       4   36864   36897       6   36864   36900       4   36858   36894
       6   36852   36858       4   36846   36879       7   36843   36876       4
   36840   36846       8   36840   36870       7   36837   36864       4   36834
   36858       4   36831   36852       4   36828   36849       2   36825   36843
       4   36825   36846       7   36822   36837       4   36822   36840       7
   36819   36834       4   36816   36819       7   36816   36831       7   36807
   36828       3   36801   36819       9   36801   36822       9   36801   36825
       9   36798   36816       8   36792   36807       4   36786   36807       4
   36780   36798       7   36774   36798       7   36774   36801       9   36771
   36792       4   36768   36786       4   36765   36780       4   36762   36774
       4   36759   36768       4   36759   36771       4   36756   36762       4
   36756   36765       4   36753   36756       6   36753   36759       6   36744
   36753       6   36738   36744       4   36732   36744       4   36720   36738
       4   36717   36732       4   36711   36717       4   36711   36720       4
   36708   36711       3   36708   36714       2   37599   37617       2   37596
   37614       2   37593   37611       2   37590   37608       2   37587   37605
       2   37584   37602       2   37575   37599       3   37566   37596       3
   37557   37593       3   37551   37590       3   37539   37587       3   37530
   37584       3   37524   37575       4   37518   37575       4   37512   37566
       4   37506   37566       4   37500   37557       4   37494   37557       4
   37488   37551       4   37482   37551       4   37479   37539       4   37473
   37539       4   37464   37530       4   37458   37530       4   37455   37524
       4   37452   37518       4   37449   37512       4   37446   37506       4
   37443   37500       4   37440   37494       4   37437   37488       4   37434
   37482       4   37431   37479       4   37428   37473       4   37425   37464
       4   37422   37458       4   37416   37452       4   37416   37455       4
   37413   37446       4   37413   37449       4   37407   37440       4   37407
   37443       4   37404   37434       4   37404   37437       4   37401   37428
       4   37401   37431       4   37398   37422       4   37398   37425       4
   37389   37413       6   37389   37416       6   37380   37404       6   37380
   37407       6   37377   37398       6   37377   37401       6   37362   37392
       4   37359   37389       6   37359   37392       4   37353   37383       4
   37347   37380       6   37347   37383       4   37341   37377       6   37335
   37341       4   37329   37362       7   37326   37359       4   37323   37329
       8   37323   37353       7   37320   37347       4   37317   37341       4
   37314   37335       4   37311   37332       2   37308   37326       4   37308
   37329       7   37305   37320       4   37305   37323       7   37302   37317
       4   37299   37302       7   37299   37314       7   37290   37311       3
   37284   37302       9   37284   37305       9   37284   37308       9   37281
   37299       8   37275   37290       4   37269   37290       4   37263   37281
       7   37257   37281       7   37257   37284       9   37254   37275       4
   37251   37269       4   37248   37263       4   37245   37257       4   37242
   37251       4   37242   37254       4   37239   37245       4   37239   37248
       4   37236   37239       6   37236   37242       6   37227   37236       6
   37221   37227       4   37215   37227       4   37203   37221       4   37200
   37215       4   37194   37200       4   37194   37203       4   37191   37194
       3   37191   37197       2   38082   38100       2   38079   38097       2
   38076   38094       2   38073   38091       2   38070   38088       2   38067
   38085       2   38058   38082       3   38049   38079       3   38040   38076
       3   38034   38073       3   38022   38070       3   38013   38067       3
   38007   38058       4   38001   38058       4   37995   38049       4   37989
   38049       4   37983   38040       4   37977   38040       4   37971   38034
       4   37965   38034       4   37962   38022       4   37956   38022       4
   37947   38013       4   37941   38013       4   37938   38007       4   37935
   38001       4   37932   37995       4   37929   37989       4   37926   37983
       4   37923   37977       4   37920   37971       4   37917   37965       4
   37914   37962       4   37911   37956       4   37908   37947       4   37905
   37941       4   37899   37935       4   37899   37938       4   37896   37929
       4   37896   37932       4   37890   37923       4   37890   37926       4
   37887   37917       4   37887   37920       4   37884   37911       4   37884
   37914       4   37881   37905       4   37881   37908       4   37872   37896
       6   37872   37899       6   37863   37887       6   37863   37890       6
   37860   37881       6   37860   37884       6   37845   37875       4   37842
   37872       6   37842   37875       4   37836   37866       4   37830   37863
       6   37830   37866       4   37824   37860       6   37818   37824       4
   37812   37845       7   37809   37842       4   37806   37812       8   37806
   37836       7   37803   37830       4   37800   37824       4   37797   37818
       4   37794   37815       2   37791   37809       4   37791   37812       7
   37788   37803       4   37788   37806       7   37785   37800       4   37782
   37785       7   37782   37797       7   37773   37794       3   37767   37785
       9   37767   37788       9   37767   37791       9   37764   37782       8
   37758   37773       4   37752   37773       4   37746   37764       7   37740
   37764       7   37740   37767       9   37737   37758       4   37734   37752
       4   37731   37746       4   37728   37740       4   37725   37734       4
   37725   37737       4   37722   37728       4   37722   37731       4   37719
   37722       6   37719   37725       6   37710   37719       6   37704   37710
       4   37698   37710       4   37686   37704       4   37683   37698       4
   37677   37683       4   37677   37686       4   37674   37677       3   37674
   37680       2   38565   38583       2   38562   38580       2   38559   38577
       2   38556   38574       2   38553   38571       2   38550   38568       2
   38541   38565       3   38532   38562       3   38523   38559       3   38517
   38556       3   38505   38553       3   38496   38550       3   38490   38541
       4   38484   38541       4   38478   38532       4   38472   38532       4
   38466   38523       4   38460   38523       4   38454   38517       4   38448
   38517       4   38445   38505       4   38439   38505       4   38430   38496
       4   38424   38496       4   38421   38490       4   38418   38484       4
   38415   38478       4   38412   38472       4   38409   38466       4   38406
   38460       4   38403   38454       4   38400   38448       4   38397   38445
       4   38394   38439       4   38391   38430       4   38388   38424       4
   38382   38418       4   38382   38421       4   38379   38412       4   38379
   38415       4   38373   38406       4   38373   38409       4   38370   38400
       4   38370   38403       4   38367   38394       4   38367   38397       4
   38364   38388       4   38364   38391       4   38355   38379       6   38355
   38382       6   38346   38370       6   38346   38373       6   38343   38364
       6   38343   38367       6   38328   38358       4   38325   38355       6
   38325   38358       4   38319   38349       4   38313   38346       6   38313
   38349       4   38307   38343       6   38301   38307       4   38295   38328
       7   38292   38325       4   38289   38295       8   38289   38319       7
   38286   38313       4   38283   38307       4   38280   38301       4   38277
   38298       2   38274   38292       4   38274   38295       7   38271   38286
       4   38271   38289       7   38268   38283       4   38265   38268       7
   38265   38280       7   38256   38277       3   38250   38268       9   38250
   38271       9   38250   38274       9   38247   38265       8   38241   38256
       4   38235   38256       4   38229   38247       7   38223   38247       7
   38223   38250       9   38220   38241       4   38217   38235       4   38214
   38229       4   38211   38223       4   38208   38217       4   38208   38220
       4   38205   38211       4   38205   38214       4   38202   38205       6
   38202   38208       6   38193   38202       6   38187   38193       4   38181
   38193       4   38169   38187       4   38166   38181       4   38160   38166
       4   38160   38169       4   38157   38160       3   38157   38163       2
   39048   39066       2   39045   39063       2   39042   39060       2   39039
   39057       2   39036   39054       2   39033   39051       2   39024   39048
       3   39015   39045       3   39006   39042       3   39000   39039       3
   38988   39036       3   38979   39033       3   38973   39024       4   38967
   39024       4   38961   39015       4   38955   39015       4   38949   39006
       4   38943   39006       4   38937   39000       4   38931   39000       4
   38928   38988       4   38922   38988       4   38913   38979       4   38907
   38979       4   38904   38973       4   38901   38967       4   38898   38961
       4   38895   38955       4   38892   38949       4   38889   38943       4
   38886   38937       4   38883   38931       4   38880   38928       4   38877
   38922       4   38874   38913       4   38871   38907       4   38865   38901
       4   38865   38904       4   38862   38895       4   38862   38898       4
   38856   38889       4   38856   38892       4   38853   38883       4   38853
   38886       4   38850   38877       4   38850   38880       4   38847   38871
       4   38847   38874       4   38838   38862       6   38838   38865       6
   38829   38853       6   38829   38856       6   38826   38847       6   38826
   38850       6   38811   38841       4   38808   38838       6   38808   38841
       4   38802   38832       4   38796   38829       6   38796   38832       4
   38790   38826       6   38784   38790       4   38778   38811       7   38775
   38808       4   38772   38778       8   38772   38802       7   38769   38796
       4   38766   38790       4   38763   38784       4   38760   38781       2
   38757   38775       4   38757   38778       7   38754   38769       4   38754
   38772       7   38751   38766       4   38748   38751       7   38748   38763
       7   38739   38760       3   38733   38751       9   38733   38754       9
   38733   38757       9   38730   38748       8   38724   38739       4   38718
   38739       4   38712   38730       7   38706   38730       7   38706   38733
       9   38703   38724       4   38700   38718       4   38697   38712       4
   38694   38706       4   38691   38700       4   38691   38703       4   38688
   38694       4   38688   38697       4   38685   38688       6   38685   38691
       6   38676   38685       6   38670   38676       4   38664   38676       4
   38652   38670       4   38649   38664       4   38643   38649       4   38643
   38652       4   38640   38643       3   38640   38646       2   39531   39549
       2   39528   39546       2   39525   39543       2   39522   39540       2
   39519   39537       2   39516   39534       2   39507   39531       3   39498
   39528       3   39489   39525       3   39483   39522       3   39471   39519
       3   39462   39516       3   39456   39507       4   39450   39507       4
   39444   39498       4   39438   39498       4   39432   39489       4   39426
   39489       4   39420   39483       4   39414   39483       4   39411   39471
       4   39405   39471       4   39396   39462       4   39390   39462       4
   39387   39456       4   39384   39450       4   39381   39444       4   39378
   39438       4   39375   39432       4   39372   39426       4   39369   39420
       4   39366   39414       4   39363   39411       4   39360   39405       4
   39357   39396       4   39354   39390       4   39348   39384       4   39348
   39387       4   39345   39378       4   39345   39381       4   39339   39372
       4   39339   39375       4   39336   39366       4   39336   39369       4
   39333   39360       4   39333   39363       4   39330   39354       4   39330
   39357       4   39321   39345       6   39321   39348       6   39312   39336
       6   39312   39339       6   39309   39330       6   39309   39333       6
   39294   39324       4   39291   39321       6   39291   39324       4   39285
   39315       4   39279   39312       6   39279   39315       4   39273   39309
       6   39267   39273       4   39261   39294       7   39258   39291       4
   39255   39261       8   39255   39285       7   39252   39279       4   39249
   39273       4   39246   39267       4   39243   39264       2   39240   39258
       4   39240   39261       7   39237   39252       4   39237   39255       7
   39234   39249       4   39231   39234       7   39231   39246       7   39222
   39243       3   39216   39234       9   39216   39237       9   39216   39240
       9   39213   39231       8   39207   39222       4   39201   39222       4
   39195   39213       7   39189   39213       7   39189   39216       9   39186
   39207       4   39183   39201       4   39180   39195       4   39177   39189
       4   39174   39183       4   39174   39186       4   39171   39177       4
   39171   39180       4   39168   39171       6   39168   39174       6   39159
   39168       6   39153   39159       4   39147   39159       4   39135   39153
       4   39132   39147       4   39126   39132       4   39126   39135       4
   39123   39126       3   39123   39129       2   40014   40032       2   40011
   40029       2   40008   40026       2   40005   40023       2   40002   40020
       2   39999   40017       2   39990   40014       3   39981   40011       3
   39972   40008       3   39966   40005       3   39954   40002       3   39945
   39999       3   39939   39990       4   39933   39990       4   39927   39981
       4   39921   39981       4   39915   39972       4   39909   39972       4
   39903   39966       4   39897   39966       4   39894   39954       4   39888
   39954       4   39879   39945       4   39873   39945       4   39870   39939
       4   39867   39933       4   39864   39927       4   39861   39921       4
   39858   39915       4   39855   39909       4   39852   39903       4   39849
   39897       4   39846   39894       4   39843   39888       4   39840   39879
       4   39837   39873       4   39831   39867       4   39831   39870       4
   39828   39861       4   39828   39864       4   39822   39855       4   39822
   39858       4   39819   39849       4   39819   39852       4   39816   39843
       4   39816   39846       4   39813   39837       4   39813   39840       4
   39804   39828       6   39804   39831       6   39795   39819       6   39795
   39822       6   39792   39813       6   39792   39816       6   39777   39807
       4   39774   39804       6   39774   39807       4   39768   39798       4
   39762   39795       6   39762   39798       4   39756   39792       6   39750
   39756       4   39744   39777       7   39741   39774       4   39738   39744
       8   39738   39768       7   39735   39762       4   39732   39756       4
   39729   39750       4   39726   39747       2   39723   39741       4   39723
   39744       7   39720   39735       4   39720   39738       7   39717   39732
       4   39714   39717       7   39714   39729       7   39705   39726       3
   39699   39717       9   39699   39720       9   39699   39723       9   39696
   39714       8   39690   39705       4   39684   39705       4   39678   39696
       7   39672   39696       7   39672   39699       9   39669   39690       4
   39666   39684       4   39663   39678       4   39660   39672       4   39657
   39666       4   39657   39669       4   39654   39660       4   39654   39663
       4   39651   39654       6   39651   39657       6   39642   39651       6
   39636   39642       4   39630   39642       4   39618   39636       4   39615
   39630       4   39609   39615       4   39609   39618       4   39606   39609
       3   39606   39612       2   40497   40515       2   40494   40512       2
   40491   40509       2   40488   40506       2   40485   40503       2   40482
   40500       2   40473   40497       3   40464   40494       3   40455   40491
       3   40449   40488       3   40437   40485       3   40428   40482       3
   40422   40473       4   40416   40473       4   40410   40464       4   40404
   40464       4   40398   40455       4   40392   40455       4   40386   40449
       4   40380   40449       4   40377   40437       4   40371   40437       4
   40362   40428       4   40356   40428       4   40353   40422       4   40350
   40416       4   40347   40410       4   40344   40404       4   40341   40398
       4   40338   40392       4   40335   40386       4   40332   40380       4
   40329   40377       4   40326   40371       4   40323   40362       4   40320
   40356       4   40314   40350       4   40314   40353       4   40311   40344
       4   40311   40347       4   40305   40338       4   40305   40341       4
   40302   40332       4   40302   40335       4   40299   40326       4   40299
   40329       4   40296   40320       4   40296   40323       4   40287   40311
       6   40287   40314       6   40278   40302       6   40278   40305       6
   40275   40296       6   40275   40299       6   40260   40290       4   40257
   40287       6   40257   40290       4   40251   40281       4   40245   40278
       6   40245   40281       4   40239   40275       6   40233   40239       4
   40227   40260       7   40224   40257       4   40221   40227       8   40221
   40251       7   40218   40245       4   40215   40239       4   40212   40233
       4   40209   40230       2   40206   40224       4   40206   40227       7
   40203   40218       4   40203   40221       7   40200   40215       4   40197
   40200       7   40197   40212       7   40188   40209       3   40182   40200
       9   40182   40203       9   40182   40206       9   40179   40197       8
   40173   40188       4   40167   40188       4   40161   40179       7   40155
   40179       7   40155   40182       9   40152   40173       4   40149   40167
       4   40146   40161       4   40143   40155       4   40140   40149       4
   40140   40152       4   40137   40143       4   40137   40146       4   40134
   40137       6   40134   40140       6   40125   40134       6   40119   40125
       4   40113   40125       4   40101   40119       4   40098   40113       4
   40092   40098       4   40092   40101       4   40089   40092       3   40089
   40095       2   40980   40998       2   40977   40995       2   40974   40992
       2   40971   40989       2   40968   40986       2   40965   40983       2
   40956   40980       3   40947   40977       3   40938   40974       3   40932
   40971       3   40920   40968       3   40911   40965       3   40905   40956
       4   40899   40956       4   40893   40947       4   40887   40947       4
   40881   40938       4   40875   40938       4   40869   40932       4   40863
   40932       4   40860   40920       4   40854   40920       4   40845   40911
       4   40839   40911       4   40836   40905       4   40833   40899       4
   40830   40893       4   40827   40887       4   40824   40881       4   40821
   40875       4   40818   40869       4   40815   40863       4   40812   40860
       4   40809   40854       4   40806   40845       4   40803   40839       4
   40797   40833       4   40797   40836       4   40794   40827       4   40794
   40830       4   40788   40821       4   40788   40824       4   40785   40815
       4   40785   40818       4   40782   40809       4   40782   40812       4
   40779   40803       4   40779   40806       4   40770   40794       6   40770
   40797       6   40761   40785       6   40761   40788       6   40758   40779
       6   40758   40782       6   40743   40773       4   40740   40770       6
   40740   40773       4   40734   40764       4   40728   40761       6   40728
   40764       4   40722   40758       6   40716   40722       4   40710   40743
       7   40707   40740       4   40704   40710       8   40704   40734       7
   40701   40728       4   40698   40722       4   40695   40716       4   40692
   40713       2   40689   40707       4   40689   40710       7   40686   40701
       4   40686   40704       7   40683   40698       4   40680   40683       7
   40680   40695       7   40671   40692       3   40665   40683       9   40665
   40686       9   40665   40689       9   40662   40680       8   40656   40671
       4   40650   40671       4   40644   40662       7   40638   40662       7
   40638   40665       9   40635   40656       4   40632   40650       4   40629
   40644       4   40626   40638       4   40623   40632       4   40623   40635
       4   40620   40626       4   40620   40629       4   40617   40620       6
   40617   40623       6   40608   40617       6   40602   40608       4   40596
   40608       4   40584   40602       4   40581   40596       4   40575   40581
       4   40575   40584       4   40572   40575       3   40572   40578       2
   41463   41481       2   41460   41478       2   41457   41475       2   41454
   41472       2   41451   41469       2   41448   41466       2   41439   41463
       3   41430   41460       3   41421   41457       3   41415   41454       3
   41403   41451       3   41394   41448       3   41388   41439       4   41382
   41439       4   41376   41430       4   41370   41430       4   41364   41421
       4   41358   41421       4   41352   41415       4   41346   41415       4
   41343   41403       4   41337   41403       4   41328   41394       4   41322
   41394       4   41319   41388       4   41316   41382       4   41313   41376
       4   41310   41370       4   41307   41364       4   41304   41358       4
   41301   41352       4   41298   41346       4   41295   41343       4   41292
   41337       4   41289   41328       4   41286   41322       4   41280   41316
       4   41280   41319       4   41277   41310       4   41277   41313       4
   41271   41304       4   41271   41307       4   41268   41298       4   41268
   41301       4   41265   41292       4   41265   41295       4   41262   41286
       4   41262   41289       4   41253   41277       6   41253   41280       6
   41244   41268       6   41244   41271       6   41241   41262       6   41241
   41265       6   41226   41256       4   41223   41253       6   41223   41256
       4   41217   41247       4   41211   41244       6   41211   41247       4
   41205   41241       6   41199   41205       4   41193   41226       7   41190
   41223       4   41187   41193       8   41187   41217       7   41184   41211
       4   41181   41205       4   41178   41199       4   41175   41196       2
   41172   41190       4   41172   41193       7   41169   41184       4   41169
   41187       7   41166   41181       4   41163   41166       7   41163   41178
       7   41154   41175       3   41148   41166       9   41148   41169       9
   41148   41172       9   41145   41163       8   41139   41154       4   41133
   41154       4   41127   41145       7   41121   41145       7   41121   41148
       9   41118   41139       4   41115   41133       4   41112   41127       4
   41109   41121       4   41106   41115       4   41106   41118       4   41103
   41109       4   41103   41112       4   41100   41103       6   41100   41106
       6   41091   41100       6   41085   41091       4   41079   41091       4
   41067   41085       4   41064   41079       4   41058   41064       4   41058
   41067       4   41055   41058       3   41055   41061       2   41946   41964
       2   41943   41961       2   41940   41958       2   41937   41955       2
   41934   41952       2   41931   41949       2   41922   41946       3   41913
   41943       3   41904   41940       3   41898   41937       3   41886   41934
       3   41877   41931       3   41871   41922       4   41865   41922       4
   41859   41913       4   41853   41913       4   41847   41904       4   41841
   41904       4   41835   41898       4   41829   41898       4   41826   41886
       4   41820   41886       4   41811   41877       4   41805   41877       4
   41802   41871       4   41799   41865       4   41796   41859       4   41793
   41853       4   41790   41847       4   41787   41841       4   41784   41835
       4   41781   41829       4   41778   41826       4   41775   41820       4
   41772   41811       4   41769   41805       4   41763   41799       4   41763
   41802       4   41760   41793       4   41760   41796       4   41754   41787
       4   41754   41790       4   41751   41781       4   41751   41784       4
   41748   41775       4   41748   41778       4   41745   41769       4   41745
   41772       4   41736   41760       6   41736   41763       6   41727   41751
       6   41727   41754       6   41724   41745       6   41724   41748       6
   41709   41739       4   41706   41736       6   41706   41739       4   41700
   41730       4   41694   41727       6   41694   41730       4   41688   41724
       6   41682   41688       4   41676   41709       7   41673   41706       4
   41670   41676       8   41670   41700       7   41667   41694       4   41664
   41688       4   41661   41682       4   41658   41679       2   41655   41673
       4   41655   41676       7   41652   41667       4   41652   41670       7
   41649   41664       4   41646   41649       7   41646   41661       7   41637
   41658       3   41631   41649       9   41631   41652       9   41631   41655
       9   41628   41646       8   41622   41637       4   41616   41637       4
   41610   41628       7   41604   41628       7   41604   41631       9   41601
   41622       4   41598   41616       4   41595   41610       4   41592   41604
       4   41589   41598       4   41589   41601       4   41586   41592       4
   41586   41595       4   41583   41586       6   41583   41589       6   41574
   41583       6   41568   41574       4   41562   41574       4   41550   41568
       4   41547   41562       4   41541   41547       4   41541   41550       4
   41538   41541       3   41538   41544       2   42429   42447       2   42426
   42444       2   42423   42441       2   42420   42438       2   42417   42435
       2   42414   42432       2   42405   42429       3   42396   42426       3
   42387   42423       3   42381   42420       3   42369   42417       3   42360
   42414       3   42354   42405       4   42348   42405       4   42342   42396
       4   42336   42396       4   42330   42387       4   42324   42387       4
   42318   42381       4   42312   42381       4   42309   42369       4   42303
   42369       4   42294   42360       4   42288   42360       4   42285   42354
       4   42282   42348       4   42279   42342       4   42276   42336       4
   42273   42330       4   42270   42324       4   42267   42318       4   42264
   42312       4   42261   42309       4   42258   42303       4   42255   42294
       4   42252   42288       4   42246   42282       4   42246   42285       4
   42243   42276       4   42243   42279       4   42237   42270       4   42237
   42273       4   42234   42264       4   42234   42267       4   42231   42258
       4   42231   42261       4   42228   42252       4   42228   42255       4
   42219   42243       6   42219   42246       6   42210   42234       6   42210
   42237       6   42207   42228       6   42207   42231       6   42192   42222
       4   42189   42219       6   42189   42222       4   42183   42213       4
   42177   42210       6   42177   42213       4   42171   42207       6   42165
   42171       4   42159   42192       7   42156   42189       4   42153   42159
       8   42153   42183       7   42150   42177       4   42147   42171       4
   42144   42165       4   42141   42162       2   42138   42156       4   42138
   42159       7   42135   42150       4   42135   42153       7   42132   42147
       4   42129   42132       7   42129   42144       7   42120   42141       3
   42114   42132       9   42114   42135       9   42114   42138       9   42111
   42129       8   42105   42120       4   42099   42120       4   42093   42111
       7   42087   42111       7   42087   42114       9   42084   42105       4
   42081   42099       4   42078   42093       4   42075   42087       4   42072
   42081       4   42072   42084       4   42069   42075       4   42069   42078
       4   42066   42069       6   42066   42072       6   42057   42066       6
   42051   42057       4   42045   42057       4   42033   42051       4   42030
   42045       4   42024   42030       4   42024   42033       4   42021   42024
       3   42021   42027       2   42912   42930       2   42909   42927       2
   42906   42924       2   42903   42921       2   42900   42918       2   42897
   42915       2   42888   42912       3   42879   42909       3   42870   42906
       3   42864   42903       3   42852   42900       3   42843   42897       3
   42837   42888       4   42831   42888       4   42825   42879       4   42819
   42879       4   42813   42870       4   42807   42870       4   42801   42864
       4   42795   42864       4   42792   42852       4   42786   42852       4
   42777   42843       4   42771   42843       4   42768   42837       4   42765
   42831       4   42762   42825       4   42759   42819       4   42756   42813
       4   42753   42807       4   42750   42801       4   42747   42795       4
   42744   42792       4   42741   42786       4   42738   42777       4   42735
   42771       4   42729   42765       4   42729   42768       4   42726   42759
       4   42726   42762       4   42720   42753       4   42720   42756       4
   42717   42747       4   42717   42750       4   42714   42741       4   42714
   42744       4   42711   42735       4   42711   42738       4   42702   42726
       6   42702   42729       6   42693   42717       6   42693   42720       6
   42690   42711       6   42690   42714       6   42675   42705       4   42672
   42702       6   42672   42705       4   42666   42696       4   42660   42693
       6   42660   42696       4   42654   42690       6   42648   42654       4
   42642   42675       7   42639   42672       4   42636   42642       8   42636
   42666       7   42633   42660       4   42630   42654       4   42627   42648
       4   42624   42645       2   42621   42639       4   42621   42642       7
   42618   42633       4   42618   42636       7   42615   42630       4   42612
   42615       7   42612   42627       7   42603   42624       3   42597   42615
       9   42597   42618       9   42597   42621       9   42594   42612       8
   42588   42603       4   42582   42603       4   42576   42594       7   42570
   42594       7   42570   42597       9   42567   42588       4   42564   42582
       4   42561   42576       4   42558   42570       4   42555   42564       4
   42555   42567       4   42552   42558       4   42552   42561       4   42549
   42552       6   42549   42555       6   42540   42549       6   42534   42540
       4   42528   42540       4   42516   42534       4   42513   42528       4
   42507   42513       4   42507   42516       4   42504   42507       3   42504
   42510       2   43395   43413       2   43392   43410       2   43389   43407
       2   43386   43404       2   43383   43401       2   43380   43398       2
   43371   43395       3   43362   43392       3   43353   43389       3   43347
   43386       3   43335   43383       3   43326   43380       3   43320   43371
       4   43314   43371       4   43308   43362       4   43302   43362       4
   43296   43353       4   43290   43353       4   43284   43347       4   43278
   43347       4   43275   43335       4   43269   43335       4   43260   43326
       4   43254   43326       4   43251   43320       4   43248   43314       4
   43245   43308       4   43242   43302       4   43239   43296       4   43236
   43290       4   43233   43284       4   43230   43278       4   43227   43275
       4   43224   43269       4   43221   43260       4   43218   43254       4
   43212   43248       4   43212   43251       4   43209   43242       4   43209
   43245       4   43203   43236       4   43203   43239       4   43200   43230
       4   43200   43233       4   43197   43224       4   43197   43227       4
   43194   43218       4   43194   43221       4   43185   43209       6   43185
   43212       6   43176   43200       6   43176   43203       6   43173   43194
       6   43173   43197       6   43158   43188       4   43155   43185       6
   43155   43188       4   43149   43179       4   43143   43176       6   43143
   43179       4   43137   43173       6   43131   43137       4   43125   43158
       7   43122   43155       4   43119   43125       8   43119   43149       7
   43116   43143       4   43113   43137       4   43110   43131       4   43107
   43128       2   43104   43122       4   43104   43125       7   43101   43116
       4   43101   43119       7   43098   43113       4   43095   43098       7
   43095   43110       7   43086   43107       3   43080   43098       9   43080
   43101       9   43080   43104       9   43077   43095       8   43071   43086
       4   43065   43086       4   43059   43077       7   43053   43077       7
   43053   43080       9   43050   43071       4   43047   43065       4   43044
   43059       4   43041   43053       4   43038   43047       4   43038   43050
       4   43035   43041       4   43035   43044       4   43032   43035       6
   43032   43038       6   43023   43032       6   43017   43023       4   43011
   43023       4   42999   43017       4   42996   43011       4   42990   42996
       4   42990   42999       4   42987   42990       3   42987   42993       2
   43878   43896       2   43875   43893       2   43872   43890       2   43869
   43887       2   43866   43884       2   43863   43881       2   43854   43878
       3   43845   43875       3   43836   43872       3   43830   43869       3
   43818   43866       3   43809   43863       3   43803   43854       4   43797
   43854       4   43791   43845       4   43785   43845       4   43779   43836
       4   43773   43836       4   43767   43830       4   43761   43830       4
   43758   43818       4   43752   43818       4   43743   43809       4   43737
   43809       4   43734   43803       4   43731   43797       4   43728   43791
       4   43725   43785       4   43722   43779       4   43719   43773       4
   43716   43767       4   43713   43761       4   43710   43758       4   43707
   43752       4   43704   43743       4   43701   43737       4   43695   43731
       4   43695   43734       4   43692   43725       4   43692   43728       4
   43686   43719       4   43686   43722       4   43683   43713       4   43683
   43716       4   43680   43707       4   43680   43710       4   43677   43701
       4   43677   43704       4   43668   43692       6   43668   43695       6
   43659   43683       6   43659   43686       6   43656   43677       6   43656
   43680       6   43641   43671       4   43638   43668       6   43638   43671
       4   43632   43662       4   43626   43659       6   43626   43662       4
   43620   43656       6   43614   43620       4   43608   43641       7   43605
   43638       4   43602   43608       8   43602   43632       7   43599   43626
       4   43596   43620       4   43593   43614       4   43590   43611       2
   43587   43605       4   43587   43608       7   43584   43599       4   43584
   43602       7   43581   43596       4   43578   43581       7   43578   43593
       7   43569   43590       3   43563   43581       9   43563   43584       9
   43563   43587       9   43560   43578       8   43554   43569       4   43548
   43569       4   43542   43560       7   43536   43560       7   43536   43563
       9   43533   43554       4   43530   43548       4   43527   43542       4
   43524   43536       4   43521   43530       4   43521   43533       4   43518
   43524       4   43518   43527       4   43515   43518       6   43515   43521
       6   43506   43515       6   43500   43506       4   43494   43506       4
   43482   43500       4   43479   43494       4   43473   43479       4   43473
   43482       4   43470   43473       3   43470   43476       2   44361   44379
       2   44358   44376       2   44355   44373       2   44352   44370       2
   44349   44367       2   44346   44364       2   44337   44361       3   44328
   44358       3   44319   44355       3   44313   44352       3   44301   44349
       3   44292   44346       3   44286   44337       4   44280   44337       4
   44274   44328       4   44268   44328       4   44262   44319       4   44256
   44319       4   44250   44313       4   44244   44313       4   44241   44301
       4   44235   44301       4   44226   44292       4   44220   44292       4
   44217   44286       4   44214   44280       4   44211   44274       4   44208
   44268       4   44205   44262       4   44202   44256       4   44199   44250
       4   44196   44244       4   44193   44241       4   44190   44235       4
   44187   44226       4   44184   44220       4   44178   44214       4   44178
   44217       4   44175   44208       4   44175   44211       4   44169   44202
       4   44169   44205       4   44166   44196       4   44166   44199       4
   44163   44190       4   44163   44193       4   44160   44184       4   44160
   44187       4   44151   44175       6   44151   44178       6   44142   44166
       6   44142   44169       6   44139   44160       6   44139   44163       6
   44124   44154       4   44121   44151       6   44121   44154       4   44115
   44145       4   44109   44142       6   44109   44145       4   44103   44139
       6   44097   44103       4   44091   44124       7   44088   44121       4
   44085   44091       8   44085   44115       7   44082   44109       4   44079
   44103       4   44076   44097       4   44073   44094       2   44070   44088
       4   44070   44091       7   44067   44082       4   44067   44085       7
   44064   44079       4   44061   44064       7   44061   44076       7   44052
   44073       3   44046   44064       9   44046   44067       9   44046   44070
       9   44043   44061       8   44037   44052       4   44031   44052       4
   44025   44043       7   44019   44043       7   44019   44046       9   44016
   44037       4   44013   44031       4   44010   44025       4   44007   44019
       4   44004   44013       4   44004   44016       4   44001   44007       4
   44001   44010       4   43998   44001       6   43998   44004       6   43989
   43998       6   43983   43989       4   43977   43989       4   43965   43983
       4   43962   43977       4   43956   43962       4   43956   43965       4
   43953   43956       3   43953   43959       2   44844   44862       2   44841
   44859       2   44838   44856       2   44835   44853       2   44832   44850
       2   44829   44847       2   44820   44844       3   44811   44841       3
   44802   44838       3   44796   44835       3   44784   44832       3   44775
   44829       3   44769   44820       4   44763   44820       4   44757   44811
       4   44751   44811       4   44745   44802       4   44739   44802       4
   44733   44796       4   44727   44796       4   44724   44784       4   44718
   44784       4   44709   44775       4   44703   44775       4   44700   44769
       4   44697   44763       4   44694   44757       4   44691   44751       4
   44688   44745       4   44685   44739       4   44682   44733       4   44679
   44727       4   44676   44724       4   44673   44718       4   44670   44709
       4   44667   44703       4   44661   44697       4   44661   44700       4
   44658   44691       4   44658   44694       4   44652   44685       4   44652
   44688       4   44649   44679       4   44649   44682       4   44646   44673
       4   44646   44676       4   44643   44667       4   44643   44670       4
   44634   44658       6   44634   44661       6   44625   44649       6   44625
   44652       6   44622   44643       6   44622   44646       6   44607   44637
       4   44604   44634       6   44604   44637       4   44598   44628       4
   44592   44625       6   44592   44628       4   44586   44622       6   44580
   44586       4   44574   44607       7   44571   44604       4   44568   44574
       8   44568   44598       7   44565   44592       4   44562   44586       4
   44559   44580       4   44556   44577       2   44553   44571       4   44553
   44574       7   44550   44565       4   44550   44568       7   44547   44562
       4   44544   44547       7   44544   44559       7   44535   44556       3
   44529   44547       9   44529   44550       9   44529   44553       9   44526
   44544       8   44520   44535       4   44514   44535       4   44508   44526
       7   44502   44526       7   44502   44529       9   44499   44520       4
   44496   44514       4   44493   44508       4   44490   44502       4   44487
   44496       4   44487   44499       4   44484   44490       4   44484   44493
       4   44481   44484       6   44481   44487       6   44472   44481       6
   44466   44472       4   44460   44472       4   44448   44466       4   44445
   44460       4   44439   44445       4   44439   44448       4   44436   44439
       3   44436   44442       2   45327   45345       2   45324   45342       2
   45321   45339       2   45318   45336       2   45315   45333       2   45312
   45330       2   45303   45327       3   45294   45324       3   45285   45321
       3   45279   45318       3   45267   45315       3   45258   45312       3
   45252   45303       4   45246   45303       4   45240   45294       4   45234
   45294       4   45228   45285       4   45222   45285       4   45216   45279
       4   45210   45279       4   45207   45267       4   45201   45267       4
   45192   45258       4   45186   45258       4   45183   45252       4   45180
   45246       4   45177   45240       4   45174   45234       4   45171   45228
       4   45168   45222       4   45165   45216       4   45162   45210       4
   45159   45207       4   45156   45201       4   45153   45192       4   45150
   45186       4   45144   45180       4   45144   45183       4   45141   45174
       4   45141   45177       4   45135   45168       4   45135   45171       4
   45132   45162       4   45132   45165       4   45129   45156       4   45129
   45159       4   45126   45150       4   45126   45153       4   45117   45141
       6   45117   45144       6   45108   45132       6   45108   45135       6
   45105   45126       6   45105   45129       6   45090   45120       4   45087
   45117       6   45087   45120       4   45081   45111       4   45075   45108
       6   45075   45111       4   45069   45105       6   45063   45069       4
   45057   45090       7   45054   45087       4   45051   45057       8   45051
   45081       7   45048   45075       4   45045   45069       4   45042   45063
       4   45039   45060       2   45036   45054       4   45036   45057       7
   45033   45048       4   45033   45051       7   45030   45045       4   45027
   45030       7   45027   45042       7   45018   45039       3   45012   45030
       9   45012   45033       9   45012   45036       9   45009   45027       8
   45003   45018       4   44997   45018       4   44991   45009       7   44985
   45009       7   44985   45012       9   44982   45003       4   44979   44997
       4   44976   44991       4   44973   44985       4   44970   44979       4
   44970   44982       4   44967   44973       4   44967   44976       4   44964
   44967       6   44964   44970       6   44955   44964       6   44949   44955
       4   44943   44955       4   44931   44949       4   44928   44943       4
   44922   44928       4   44922   44931       4   44919   44922       3   44919
   44925       2   45810   45828       2   45807   45825       2   45804   45822
       2   45801   45819       2   45798   45816       2   45795   45813       2
   45786   45810       3   45777   45807       3   45768   45804       3   45762
   45801       3   45750   45798       3   45741   45795       3   45735   45786
       4   45729   45786       4   45723   45777       4   45717   45777       4
   45711   45768       4   45705   45768       4   45699   45762       4   45693
   45762       4   45690   45750       4   45684   45750       4   45675   45741
       4   45669   45741       4   45666   45735       4   45663   45729       4
   45660   45723       4   45657   45717       4   45654   45711       4   45651
   45705       4   45648   45699       4   45645   45693       4   45642   45690
       4   45639   45684       4   45636   45675       4   45633   45669       4
   45627   45663       4   45627   45666       4   45624   45657       4   45624
   45660       4   45618   45651       4   45618   45654       4   45615   45645
       4   45615   45648       4   45612   45639       4   45612   45642       4
   45609   45633       4   45609   45636       4   45600   45624       6   45600
   45627       6   45591   45615       6   45591   45618       6   45588   45609
       6   45588   45612       6   45573   45603       4   45570   45600       6
   45570   45603       4   45564   45594       4   45558   45591       6   45558
   45594       4   45552   45588       6   45546   45552       4   45540   45573
       7   45537   45570       4   45534   45540       8   45534   45564       7
   45531   45558       4   45528   45552       4   45525   45546       4   45522
   45543       2   45519   45537       4   45519   45540       7   45516   45531
       4   45516   45534       7   45513   45528       4   45510   45513       7
   45510   45525       7   45501   45522       3   45495   45513       9   45495
   45516       9   45495   45519       9   45492   45510       8   45486   45501
       4   45480   45501       4   45474   45492       7   45468   45492       7
   45468   45495       9   45465   45486       4   45462   45480       4   45459
   45474       4   45456   45468       4   45453   45462       4   45453   45465
       4   45450   45456       4   45450   45459       4   45447   45450       6
   45447   45453       6   45438   45447       6   45432   45438       4   45426
   45438       4   45414   45432       4   45411   45426       4   45405   45411
       4   45405   45414       4   45402   45405       3   45402   45408       2
   46293   46311       2   46290   46308       2   46287   46305       2   46284
   46302       2   46281   46299       2   46278   46296       2   46269   46293
       3   46260   46290       3   46251   46287       3   46245   46284       3
   46233   46281       3   46224   46278       3   46218   46269       4   46212
   46269       4   46206   46260       4   46200   46260       4   46194   46251
       4   46188   46251       4   46182   46245       4   46176   46245       4
   46173   46233       4   46167   46233       4   46158   46224       4   46152
   46224       4   46149   46218       4   46146   46212       4   46143   46206
       4   46140   46200       4   46137   46194       4   46134   46188       4
   46131   46182       4   46128   46176       4   46125   46173       4   46122
   46167       4   46119   46158       4   46116   46152       4   46110   46146
       4   46110   46149       4   46107   46140       4   46107   46143       4
   46101   46134       4   46101   46137       4   46098   46128       4   46098
   46131       4   46095   46122       4   46095   46125       4   46092   46116
       4   46092   46119       4   46083   46107       6   46083   46110       6
   46074   46098       6   46074   46101       6   46071   46092       6   46071
   46095       6   46056   46086       4   46053   46083       6   46053   46086
       4   46047   46077       4   46041   46074       6   46041   46077       4
   46035   46071       6   46029   46035       4   46023   46056       7   46020
   46053       4   46017   46023       8   46017   46047       7   46014   46041
       4   46011   46035       4   46008   46029       4   46005   46026       2
   46002   46020       4   46002   46023       7   45999   46014       4   45999
   46017       7   45996   46011       4   45993   45996       7   45993   46008
       7   45984   46005       3   45978   45996       9   45978   45999       9
   45978   46002       9   45975   45993       8   45969   45984       4   45963
   45984       4   45957   45975       7   45951   45975       7   45951   45978
       9   45948   45969       4   45945   45963       4   45942   45957       4
   45939   45951       4   45936   45945       4   45936   45948       4   45933
   45939       4   45933   45942       4   45930   45933       6   45930   45936
       6   45921   45930       6   45915   45921       4   45909   45921       4
   45897   45915       4   45894   45909       4   45888   45894       4   45888
   45897       4   45885   45888       3   45885   45891       2   46776   46794
       2   46773   46791       2   46770   46788       2   46767   46785       2
   46764   46782       2   46761   46779       2   46752   46776       3   46743
   46773       3   46734   46770       3   46728   46767       3   46716   46764
       3   46707   46761       3   46701   46752       4   46695   46752       4
   46689   46743       4   46683   46743       4   46677   46734       4   46671
   46734       4   46665   46728       4   46659   46728       4   46656   46716
       4   46650   46716       4   46641   46707       4   46635   46707       4
   46632   46701       4   46629   46695       4   46626   46689       4   46623
   46683       4   46620   46677       4   46617   46671       4   46614   46665
       4   46611   46659       4   46608   46656       4   46605   46650       4
   46602   46641       4   46599   46635       4   46593   46629       4   46593
   46632       4   46590   46623       4   46590   46626       4   46584   46617
       4   46584   46620       4   46581   46611       4   46581   46614       4
   46578   46605       4   46578   46608       4   46575   46599       4   46575
   46602       4   46566   46590       6   46566   46593       6   46557   46581
       6   46557   46584       6   46554   46575       6   46554   46578       6
   46539   46569       4   46536   46566       6   46536   46569       4   46530
   46560       4   46524   46557       6   46524   46560       4   46518   46554
       6   46512   46518       4   46506   46539       7   46503   46536       4
   46500   46506       8   46500   46530       7   46497   46524       4   46494
   46518       4   46491   46512       4   46488   46509       2   46485   46503
       4   46485   46506       7   46482   46497       4   46482   46500       7
   46479   46494       4   46476   46479       7   46476   46491       7   46467
   46488       3   46461   46479       9   46461   46482       9   46461   46485
       9   46458   46476       8   46452   46467       4   46446   46467       4
   46440   46458       7   46434   46458       7   46434   46461       9   46431
   46452       4   46428   46446       4   46425   46440       4   46422   46434
       4   46419   46428       4   46419   46431       4   46416   46422       4
   46416   46425       4   46413   46416       6   46413   46419       6   46404
   46413       6   46398   46404       4   46392   46404       4   46380   46398
       4   46377   46392       4   46371   46377       4   46371   46380       4
   46368   46371       3   46368   46374       2   47259   47277       2   47256
   47274       2   47253   47271       2   47250   47268       2   47247   47265
       2   47244   47262       2   47235   47259       3   47226   47256       3
   47217   47253       3   47211   47250       3   47199   47247       3   47190
   47244       3   47184   47235       4   47178   47235       4   47172   47226
       4   47166   47226       4   47160   47217       4   47154   47217       4
   47148   47211       4   47142   47211       4   47139   47199       4   47133
   47199       4   47124   47190       4   47118   47190       4   47115   47184
       4   47112   47178       4   47109   47172       4   47106   47166       4
   47103   47160       4   47100   47154       4   47097   47148       4   47094
   47142       4   47091   47139       4   47088   47133       4   47085   47124
       4   47082   47118       4   47076   47112       4   47076   47115       4
   47073   47106       4   47073   47109       4   47067   47100       4   47067
   47103       4   47064   47094       4   47064   47097       4   47061   47088
       4   47061   47091       4   47058   47082       4   47058   47085       4
   47049   47073       6   47049   47076       6   47040   47064       6   47040
   47067       6   47037   47058       6   47037   47061       6   47022   47052
       4   47019   47049       6   47019   47052       4   47013   47043       4
   47007   47040       6   47007   47043       4   47001   47037       6   46995
   47001       4   46989   47022       7   46986   47019       4   46983   46989
       8   46983   47013       7   46980   47007       4   46977   47001       4
   46974   46995       4   46971   46992       2   46968   46986       4   46968
   46989       7   46965   46980       4   46965   46983       7   46962   46977
       4   46959   46962       7   46959   46974       7   46950   46971       3
   46944   46962       9   46944   46965       9   46944   46968       9   46941
   46959       8   46935   46950       4   46929   46950       4   46923   46941
       7   46917   46941       7   46917   46944       9   46914   46935       4
   46911   46929       4   46908   46923       4   46905   46917       4   46902
   46911       4   46902   46914       4   46899   46905       4   46899   46908
       4   46896   46899       6   46896   46902       6   46887   46896       6
   46881   46887       4   46875   46887       4   46863   46881       4   46860
   46875       4   46854   46860       4   46854   46863       4   46851   46854
       3   46851   46857       2   47742   47760       2   47739   47757       2
   47736   47754       2   47733   47751       2   47730   47748       2   47727
   47745       2   47718   47742       3   47709   47739       3   47700   47736
       3   47694   47733       3   47682   47730       3   47673   47727       3
   47667   47718       4   47661   47718       4   47655   47709       4   47649
   47709       4   47643   47700       4   47637   47700       4   47631   47694
       4   47625   47694       4   47622   47682       4   47616   47682       4
   47607   47673       4   47601   47673       4   47598   47667       4   47595
   47661       4   47592   47655       4   47589   47649       4   47586   47643
       4   47583   47637       4   47580   47631       4   47577   47625       4
   47574   47622       4   47571   47616       4   47568   47607       4   47565
   47601       4   47559   47595       4   47559   47598       4   47556   47589
       4   47556   47592       4   47550   47583       4   47550   47586       4
   47547   47577       4   47547   47580       4   47544   47571       4   47544
   47574       4   47541   47565       4   47541   47568       4   47532   47556
       6   47532   47559       6   47523   47547       6   47523   47550       6
   47520   47541       6   47520   47544       6   47505   47535       4   47502
   47532       6   47502   47535       4   47496   47526       4   47490   47523
       6   47490   47526       4   47484   47520       6   47478   47484       4
   47472   47505       7   47469   47502       4   47466   47472       8   47466
   47496       7   47463   47490       4   47460   47484       4   47457   47478
       4   47454   47475       2   47451   47469       4   47451   47472       7
   47448   47463       4   47448   47466       7   47445   47460       4   47442
   47445       7   47442   47457       7   47433   47454       3   47427   47445
       9   47427   47448       9   47427   47451       9   47424   47442       8
   47418   47433       4   47412   47433       4   47406   47424       7   47400
   47424       7   47400   47427       9   47397   47418       4   47394   47412
       4   47391   47406       4   47388   47400       4   47385   47394       4
   47385   47397       4   47382   47388       4   47382   47391       4   47379
   47382       6   47379   47385       6   47370   47379       6   47364   47370
       4   47358   47370       4   47346   47364       4   47343   47358       4
   47337   47343       4   47337   47346       4   47334   47337       3   47334
   47340       2   48225   48243       2   48222   48240       2   48219   48237
       2   48216   48234       2   48213   48231       2   48210   48228       2
   48201   48225       3   48192   48222       3   48183   48219       3   48177
   48216       3   48165   48213       3   48156   48210       3   48150   48201
       4   48144   48201       4   48138   48192       4   48132   48192       4
   48126   48183       4   48120   48183       4   48114   48177       4   48108
   48177       4   48105   48165       4   48099   48165       4   48090   48156
       4   48084   48156       4   48081   48150       4   48078   48144       4
   48075   48138       4   48072   48132       4   48069   48126       4   48066
   48120       4   48063   48114       4   48060   48108       4   48057   48105
       4   48054   48099       4   48051   48090       4   48048   48084       4
   48042   48078       4   48042   48081       4   48039   48072       4   48039
   48075       4   48033   48066       4   48033   48069       4   48030   48060
       4   48030   48063       4   48027   48054       4   48027   48057       4
   48024   48048       4   48024   48051       4   48015   48039       6   48015
   48042       6   48006   48030       6   48006   48033       6   48003   48024
       6   48003   48027       6   47988   48018       4   47985   48015       6
   47985   48018       4   47979   48009       4   47973   48006       6   47973
   48009       4   47967   48003       6   47961   47967       4   47955   47988
       7   47952   47985       4   47949   47955       8   47949   47979       7
   47946   47973       4   47943   47967       4   47940   47961       4   47937
   47958       2   47934   47952       4   47934   47955       7   47931   47946
       4   47931   47949       7   47928   47943       4   47925   47928       7
   47925   47940       7   47916   47937       3   47910   47928       9   47910
   47931       9   47910   47934       9   47907   47925       8   47901   47916
       4   47895   47916       4   47889   47907       7   47883   47907       7
   47883   47910       9   47880   47901       4   47877   47895       4   47874
   47889       4   47871   47883       4   47868   47877       4   47868   47880
       4   47865   47871       4   47865   47874       4   47862   47865       6
   47862   47868       6   47853   47862       6   47847   47853       4   47841
   47853       4   47829   47847       4   47826   47841       4   47820   47826
       4   47820   47829       4   47817   47820       3   47817   47823       2
   48708   48726       2   48705   48723       2   48702   48720       2   48699
   48717       2   48696   48714       2   48693   48711       2   48684   48708
       3   48675   48705       3   48666   48702       3   48660   48699       3
   48648   48696       3   48639   48693       3   48633   48684       4   48627
   48684       4   48621   48675       4   48615   48675       4   48609   48666
       4   48603   48666       4   48597   48660       4   48591   48660       4
   48588   48648       4   48582   48648       4   48573   48639       4   48567
   48639       4   48564   48633       4   48561   48627       4   48558   48621
       4   48555   48615       4   48552   48609       4   48549   48603       4
   48546   48597       4   48543   48591       4   48540   48588       4   48537
   48582       4   48534   48573       4   48531   48567       4   48525   48561
       4   48525   48564       4   48522   48555       4   48522   48558       4
   48516   48549       4   48516   48552       4   48513   48543       4   48513
   48546       4   48510   48537       4   48510   48540       4   48507   48531
       4   48507   48534       4   48498   48522       6   48498   48525       6
   48489   48513       6   48489   48516       6   48486   48507       6   48486
   48510       6   48471   48501       4   48468   48498       6   48468   48501
       4   48462   48492       4   48456   48489       6   48456   48492       4
   48450   48486       6   48444   48450       4   48438   48471       7   48435
   48468       4   48432   48438       8   48432   48462       7   48429   48456
       4   48426   48450       4   48423   48444       4   48420   48441       2
   48417   48435       4   48417   48438       7   48414   48429       4   48414
   48432       7   48411   48426       4   48408   48411       7   48408   48423
       7   48399   48420       3   48393   48411       9   48393   48414       9
   48393   48417       9   48390   48408       8   48384   48399       4   48378
   48399       4   48372   48390       7   48366   48390       7   48366   48393
       9   48363   48384       4   48360   48378       4   48357   48372       4
   48354   48366       4   48351   48360       4   48351   48363       4   48348
   48354       4   48348   48357       4   48345   48348       6   48345   48351
       6   48336   48345       6   48330   48336       4   48324   48336       4
   48312   48330       4   48309   48324       4   48303   48309       4   48303
   48312       4   48300   48303       3   48300   48306       2   49191   49209
       2   49188   49206       2   49185   49203       2   49182   49200       2
   49179   49197       2   49176   49194       2   49167   49191       3   49158
   49188       3   49149   49185       3   49143   49182       3   49131   49179
       3   49122   49176       3   49116   49167       4   49110   49167       4
   49104   49158       4   49098   49158       4   49092   49149       4   49086
   49149       4   49080   49143       4   49074   49143       4   49071   49131
       4   49065   49131       4   49056   49122       4   49050   49122       4
   49047   49116       4   49044   49110       4   49041   49104       4   49038
   49098       4   49035   49092       4   49032   49086       4   49029   49080
       4   49026   49074       4   49023   49071       4   49020   49065       4
   49017   49056       4   49014   49050       4   49008   49044       4   49008
   49047       4   49005   49038       4   49005   49041       4   48999   49032
       4   48999   49035       4   48996   49026       4   48996   49029       4
   48993   49020       4   48993   49023       4   48990   49014       4   48990
   49017       4   48981   49005       6   48981   49008       6   48972   48996
       6   48972   48999       6   48969   48990       6   48969   48993       6
   48954   48984       4   48951   48981       6   48951   48984       4   48945
   48975       4   48939   48972       6   48939   48975       4   48933   48969
       6   48927   48933       4   48921   48954       7   48918   48951       4
   48915   48921       8   48915   48945       7   48912   48939       4   48909
   48933       4   48906   48927       4   48903   48924       2   48900   48918
       4   48900   48921       7   48897   48912       4   48897   48915       7
   48894   48909       4   48891   48894       7   48891   48906       7   48882
   48903       3   48876   48894       9   48876   48897       9   48876   48900
       9   48873   48891       8   48867   48882       4   48861   48882       4
   48855   48873       7   48849   48873       7   48849   48876       9   48846
   48867       4   48843   48861       4   48840   48855       4   48837   48849
       4   48834   48843       4   48834   48846       4   48831   48837       4
   48831   48840       4   48828   48831       6   48828   48834       6   48819
   48828       6   48813   48819       4   48807   48819       4   48795   48813
       4   48792   48807       4   48786   48792       4   48786   48795       4
   48783   48786       3   48783   48789       2   49674   49692       2   49671
   49689       2   49668   49686       2   49665   49683       2   49662   49680
       2   49659   49677       2   49650   49674       3   49641   49671       3
   49632   49668       3   49626   49665       3   49614   49662       3   49605
   49659       3   49599   49650       4   49593   49650       4   49587   49641
       4   49581   49641       4   49575   49632       4   49569   49632       4
   49563   49626       4   49557   49626       4   49554   49614       4   49548
   49614       4   49539   49605       4   49533   49605       4   49530   49599
       4   49527   49593       4   49524   49587       4   49521   49581       4
   49518   49575       4   49515   49569       4   49512   49563       4   49509
   49557       4   49506   49554       4   49503   49548       4   49500   49539
       4   49497   49533       4   49491   49527       4   49491   49530       4
   49488   49521       4   49488   49524       4   49482   49515       4   49482
   49518       4   49479   49509       4   49479   49512       4   49476   49503
       4   49476   49506       4   49473   49497       4   49473   49500       4
   49464   49488       6   49464   49491       6   49455   49479       6   49455
   49482       6   49452   49473       6   49452   49476       6   49437   49467
       4   49434   49464       6   49434   49467       4   49428   49458       4
   49422   49455       6   49422   49458       4   49416   49452       6   49410
   49416       4   49404   49437       7   49401   49434       4   49398   49404
       8   49398   49428       7   49395   49422       4   49392   49416       4
   49389   49410       4   49386   49407       2   49383   49401       4   49383
   49404       7   49380   49395       4   49380   49398       7   49377   49392
       4   49374   49377       7   49374   49389       7   49365   49386       3
   49359   49377       9   49359   49380       9   49359   49383       9   49356
   49374       8   49350   49365       4   49344   49365       4   49338   49356
       7   49332   49356       7   49332   49359       9   49329   49350       4
   49326   49344       4   49323   49338       4   49320   49332       4   49317
   49326       4   49317   49329       4   49314   49320       4   49314   49323
       4   49311   49314       6   49311   49317       6   49302   49311       6
   49296   49302       4   49290   49302       4   49278   49296       4   49275
   49290       4   49269   49275       4   49269   49278       4   49266   49269
       3   49266   49272       2   50157   50175       2   50154   50172       2
   50151   50169       2   50148   50166       2   50145   50163       2   50142
   50160       2   50133   50157       3   50124   50154       3   50115   50151
       3   50109   50148       3   50097   50145       3   50088   50142       3
   50082   50133       4   50076   50133       4   50070   50124       4   50064
   50124       4   50058   50115       4   50052   50115       4   50046   50109
       4   50040   50109       4   50037   50097       4   50031   50097       4
   50022   50088       4   50016   50088       4   50013   50082       4   50010
   50076       4   50007   50070       4   50004   50064       4   50001   50058
       4   49998   50052       4   49995   50046       4   49992   50040       4
   49989   50037       4   49986   50031       4   49983   50022       4   49980
   50016       4   49974   50010       4   49974   50013       4   49971   50004
       4   49971   50007       4   49965   49998       4   49965   50001       4
   49962   49992       4   49962   49995       4   49959   49986       4   49959
   49989       4   49956   49980       4   49956   49983       4   49947   49971
       6   49947   49974       6   49938   49962       6   49938   49965       6
   49935   49956       6   49935   49959       6   49920   49950       4   49917
   49947       6   49917   49950       4   49911   49941       4   49905   49938
       6   49905   49941       4   49899   49935       6   49893   49899       4
   49887   49920       7   49884   49917       4   49881   49887       8   49881
   49911       7   49878   49905       4   49875   49899       4   49872   49893
       4   49869   49890       2   49866   49884       4   49866   49887       7
   49863   49878       4   49863   49881       7   49860   49875       4   49857
   49860       7   49857   49872       7   49848   49869       3   49842   49860
       9   49842   49863       9   49842   49866       9   49839   49857       8
   49833   49848       4   49827   49848       4   49821   49839       7   49815
   49839       7   49815   49842       9   49812   49833       4   49809   49827
       4   49806   49821       4   49803   49815       4   49800   49809       4
   49800   49812       4   49797   49803       4   49797   49806       4   49794
   49797       6   49794   49800       6   49785   49794       6   49779   49785
       4   49773   49785       4   49761   49779       4   49758   49773       4
   49752   49758       4   49752   49761       4   49749   49752       3   49749
   49755       2   50640   50658       2   50637   50655       2   50634   50652
       2   50631   50649       2   50628   50646       2   50625   50643       2
   50616   50640       3   50607   50637       3   50598   50634       3   50592
   50631       3   50580   50628       3   50571   50625       3   50565   50616
       4   50559   50616       4   50553   50607       4   50547   50607       4
   50541   50598       4   50535   50598       4   50529   50592       4   50523
   50592       4   50520   50580       4   50514   50580       4   50505   50571
       4   50499   50571       4   50496   50565       4   50493   50559       4
   50490   50553       4   50487   50547       4   50484   50541       4   50481
   50535       4   50478   50529       4   50475   50523       4   50472   50520
       4   50469   50514       4   50466   50505       4   50463   50499       4
   50457   50493       4   50457   50496       4   50454   50487       4   50454
   50490       4   50448   50481       4   50448   50484       4   50445   50475
       4   50445   50478       4   50442   50469       4   50442   50472       4
   50439   50463       4   50439   50466       4   50430   50454       6   50430
   50457       6   50421   50445       6   50421   50448       6   50418   50439
       6   50418   50442       6   50403   50433       4   50400   50430       6
   50400   50433       4   50394   50424       4   50388   50421       6   50388
   50424       4   50382   50418       6   50376   50382       4   50370   50403
       7   50367   50400       4   50364   50370       8   50364   50394       7
   50361   50388       4   50358   50382       4   50355   50376       4   50352
   50373       2   50349   50367       4   50349   50370       7   50346   50361
       4   50346   50364       7   50343   50358       4   50340   50343       7
   50340   50355       7   50331   50352       3   50325   50343       9   50325
   50346       9   50325   50349       9   50322   50340       8   50316   50331
       4   50310   50331       4   50304   50322       7   50298   50322       7
   50298   50325       9   50295   50316       4   50292   50310       4   50289
   50304       4   50286   50298       4   50283   50292       4   50283   50295
       4   50280   50286       4   50280   50289       4   50277   50280       6
   50277   50283       6   50268   50277       6   50262   50268       4   50256
   50268       4   50244   50262       4   50241   50256       4   50235   50241
       4   50235   50244       4   50232   50235       3   50232   50238       2
   51123   51141       2   51120   51138       2   51117   51135       2   51114
   51132       2   51111   51129       2   51108   51126       2   51099   51123
       3   51090   51120       3   51081   51117       3   51075   51114       3
   51063   51111       3   51054   51108       3   51048   51099       4   51042
   51099       4   51036   51090       4   51030   51090       4   51024   51081
       4   51018   51081       4   51012   51075       4   51006   51075       4
   51003   51063       4   50997   51063       4   50988   51054       4   50982
   51054       4   50979   51048       4   50976   51042       4   50973   51036
       4   50970   51030       4   50967   51024       4   50964   51018       4
   50961   51012       4   50958   51006       4   50955   51003       4   50952
   50997       4   50949   50988       4   50946   50982       4   50940   50976
       4   50940   50979       4   50937   50970       4   50937   50973       4
   50931   50964       4   50931   50967       4   50928   50958       4   50928
   50961       4   50925   50952       4   50925   50955       4   50922   50946
       4   50922   50949       4   50913   50937       6   50913   50940       6
   50904   50928       6   50904   50931       6   50901   50922       6   50901
   50925       6   50886   50916       4   50883   50913       6   50883   50916
       4   50877   50907       4   50871   50904       6   50871   50907       4
   50865   50901       6   50859   50865       4   50853   50886       7   50850
   50883       4   50847   50853       8   50847   50877       7   50844   50871
       4   50841   50865       4   50838   50859       4   50835   50856       2
   50832   50850       4   50832   50853       7   50829   50844       4   50829
   50847       7   50826   50841       4   50823   50826       7   50823   50838
       7   50814   50835       3   50808   50826       9   50808   50829       9
   50808   50832       9   50805   50823       8   50799   50814       4   50793
   50814       4   50787   50805       7   50781   50805       7   50781   50808
       9   50778   50799       4   50775   50793       4   50772   50787       4
   50769   50781       4   50766   50775       4   50766   50778       4   50763
   50769       4   50763   50772       4   50760   50763       6   50760   50766
       6   50751   50760       6   50745   50751       4   50739   50751       4
   50727   50745       4   50724   50739       4   50718   50724       4   50718
   50727       4   50715   50718       3   50715   50721       2   51606   51624
       2   51603   51621       2   51600   51618       2   51597   51615       2
   51594   51612       2   51591   51609       2   51582   51606       3   51573
   51603       3   51564   51600       3   51558   51597       3   51546   51594
       3   51537   51591       3   51531   51582       4   51525   51582       4
   51519   51573       4   51513   51573       4   51507   51564       4   51501
   51564       4   51495   51558       4   51489   51558       4   51486   51546
       4   51480   51546       4   51471   51537       4   51465   51537       4
   51462   51531       4   51459   51525       4   51456   51519       4   51453
   51513       4   51450   51507       4   51447   51501       4   51444   51495
       4   51441   51489       4   51438   51486       4   51435   51480       4
   51432   51471       4   51429   51465       4   51423   51459       4   51423
   51462       4   51420   51453       4   51420   51456       4   51414   51447
       4   51414   51450       4   51411   51441       4   51411   51444       4
   51408   51435       4   51408   51438       4   51405   51429       4   51405
   51432       4   51396   51420       6   51396   51423       6   51387   51411
       6   51387   51414       6   51384   51405       6   51384   51408       6
   51369   51399       4   51366   51396       6   51366   51399       4   51360
   51390       4   51354   51387       6   51354   51390       4   51348   51384
       6   51342   51348       4   51336   51369       7   51333   51366       4
   51330   51336       8   51330   51360       7   51327   51354       4   51324
   51348       4   51321   51342       4   51318   51339       2   51315   51333
       4   51315   51336       7   51312   51327       4   51312   51330       7
   51309   51324       4   51306   51309       7   51306   51321       7   51297
   51318       3   51291   51309       9   51291   51312       9   51291   51315
       9   51288   51306       8   51282   51297       4   51276   51297       4
   51270   51288       7   51264   51288       7   51264   51291       9   51261
   51282       4   51258   51276       4   51255   51270       4   51252   51264
       4   51249   51258       4   51249   51261       4   51246   51252       4
   51246   51255       4   51243   51246       6   51243   51249       6   51234
   51243       6   51228   51234       4   51222   51234       4   51210   51228
       4   51207   51222       4   51201   51207       4   51201   51210       4
   51198   51201       3   51198   51204       2   52089   52107       2   52086
   52104       2   52083   52101       2   52080   52098       2   52077   52095
       2   52074   52092       2   52065   52089       3   52056   52086       3
   52047   52083       3   52041   52080       3   52029   52077       3   52020
   52074       3   52014   52065       4   52008   52065       4   52002   52056
       4   51996   52056       4   51990   52047       4   51984   52047       4
   51978   52041       4   51972   52041       4   51969   52029       4   51963
   52029       4   51954   52020       4   51948   52020       4   51945   52014
       4   51942   52008       4   51939   52002       4   51936   51996       4
   51933   51990       4   51930   51984       4   51927   51978       4   51924
   51972       4   51921   51969       4   51918   51963       4   51915   51954
       4   51912   51948       4   51906   51942       4   51906   51945       4
   51903   51936       4   51903   51939       4   51897   51930       4   51897
   51933       4   51894   51924       4   51894   51927       4   51891   51918
       4   51891   51921       4   51888   51912       4   51888   51915       4
   51879   51903       6   51879   51906       6   51870   51894       6   51870
   51897       6   51867   51888       6   51867   51891       6   51852   51882
       4   51849   51879       6   51849   51882       4   51843   51873       4
   51837   51870       6   51837   51873       4   51831   51867       6   51825
   51831       4   51819   51852       7   51816   51849       4   51813   51819
       8   51813   51843       7   51810   51837       4   51807   51831       4
   51804   51825       4   51801   51822       2   51798   51816       4   51798
   51819       7   51795   51810       4   51795   51813       7   51792   51807
       4   51789   51792       7   51789   51804       7   51780   51801       3
   51774   51792       9   51774   51795       9   51774   51798       9   51771
   51789       8   51765   51780       4   51759   51780       4   51753   51771
       7   51747   51771       7   51747   51774       9   51744   51765       4
   51741   51759       4   51738   51753       4   51735   51747       4   51732
   51741       4   51732   51744       4   51729   51735       4   51729   51738
       4   51726   51729       6   51726   51732       6   51717   51726       6
   51711   51717       4   51705   51717       4   51693   51711       4   51690
   51705       4   51684   51690       4   51684   51693       4   51681   51684
       3   51681   51687       2   52572   52590       2   52569   52587       2
   52566   52584       2   52563   52581       2   52560   52578       2   52557
   52575       2   52548   52572       3   52539   52569       3   52530   52566
       3   52524   52563       3   52512   52560       3   52503   52557       3
   52497   52548       4   52491   52548       4   52485   52539       4   52479
   52539       4   52473   52530       4   52467   52530       4   52461   52524
       4   52455   52524       4   52452   52512       4   52446   52512       4
   52437   52503       4   52431   52503       4   52428   52497       4   52425
   52491       4   52422   52485       4   52419   52479       4   52416   52473
       4   52413   52467       4   52410   52461       4   52407   52455       4
   52404   52452       4   52401   52446       4   52398   52437       4   52395
   52431       4   52389   52425       4   52389   52428       4   52386   52419
       4   52386   52422       4   52380   52413       4   52380   52416       4
   52377   52407       4   52377   52410       4   52374   52401       4   52374
   52404       4   52371   52395       4   52371   52398       4   52362   52386
       6   52362   52389       6   52353   52377       6   52353   52380       6
   52350   52371       6   52350   52374       6   52335   52365       4   52332
   52362       6   52332   52365       4   52326   52356       4   52320   52353
       6   52320   52356       4   52314   52350       6   52308   52314       4
   52302   52335       7   52299   52332       4   52296   52302       8   52296
   52326       7   52293   52320       4   52290   52314       4   52287   52308
       4   52284   52305       2   52281   52299       4   52281   52302       7
   52278   52293       4   52278   52296       7   52275   52290       4   52272
   52275       7   52272   52287       7   52263   52284       3   52257   52275
       9   52257   52278       9   52257   52281       9   52254   52272       8
   52248   52263       4   52242   52263       4   52236   52254       7   52230
   52254       7   52230   52257       9   52227   52248       4   52224   52242
       4   52221   52236       4   52218   52230       4   52215   52224       4
   52215   52227       4   52212   52218       4   52212   52221       4   52209
   52212       6   52209   52215       6   52200   52209       6   52194   52200
       4   52188   52200       4   52176   52194       4   52173   52188       4
   52167   52173       4   52167   52176       4   52164   52167       3   52164
   52170       2   53055   53073       2   53052   53070       2   53049   53067
       2   53046   53064       2   53043   53061       2   53040   53058       2
   53031   53055       3   53022   53052       3   53013   53049       3   53007
   53046       3   52995   53043       3   52986   53040       3   52980   53031
       4   52974   53031       4   52968   53022       4   52962   53022       4
   52956   53013       4   52950   53013       4   52944   53007       4   52938
   53007       4   52935   52995       4   52929   52995       4   52920   52986
       4   52914   52986       4   52911   52980       4   52908   52974       4
   52905   52968       4   52902   52962       4   52899   52956       4   52896
   52950       4   52893   52944       4   52890   52938       4   52887   52935
       4   52884   52929       4   52881   52920       4   52878   52914       4
   52872   52908       4   52872   52911       4   52869   52902       4   52869
   52905       4   52863   52896       4   52863   52899       4   52860   52890
       4   52860   52893       4   52857   52884       4   52857   52887       4
   52854   52878       4   52854   52881       4   52845   52869       6   52845
   52872       6   52836   52860       6   52836   52863       6   52833   52854
       6   52833   52857       6   52818   52848       4   52815   52845       6
   52815   52848       4   52809   52839       4   52803   52836       6   52803
   52839       4   52797   52833       6   52791   52797       4   52785   52818
       7   52782   52815       4   52779   52785       8   52779   52809       7
   52776   52803       4   52773   52797       4   52770   52791       4   52767
   52788       2   52764   52782       4   52764   52785       7   52761   52776
       4   52761   52779       7   52758   52773       4   52755   52758       7
   52755   52770       7   52746   52767       3   52740   52758       9   52740
   52761       9   52740   52764       9   52737   52755       8   52731   52746
       4   52725   52746       4   52719   52737       7   52713   52737       7
   52713   52740       9   52710   52731       4   52707   52725       4   52704
   52719       4   52701   52713       4   52698   52707       4   52698   52710
       4   52695   52701       4   52695   52704       4   52692   52695       6
   52692   52698       6   52683   52692       6   52677   52683       4   52671
   52683       4   52659   52677       4   52656   52671       4   52650   52656
       4   52650   52659       4   52647   52650       3   52647   52653       2
   53538   53556       2   53535   53553       2   53532   53550       2   53529
   53547       2   53526   53544       2   53523   53541       2   53514   53538
       3   53505   53535       3   53496   53532       3   53490   53529       3
   53478   53526       3   53469   53523       3   53463   53514       4   53457
   53514       4   53451   53505       4   53445   53505       4   53439   53496
       4   53433   53496       4   53427   53490       4   53421   53490       4
   53418   53478       4   53412   53478       4   53403   53469       4   53397
   53469       4   53394   53463       4   53391   53457       4   53388   53451
       4   53385   53445       4   53382   53439       4   53379   53433       4
   53376   53427       4   53373   53421       4   53370   53418       4   53367
   53412       4   53364   53403       4   53361   53397       4   53355   53391
       4   53355   53394       4   53352   53385       4   53352   53388       4
   53346   53379       4   53346   53382       4   53343   53373       4   53343
   53376       4   53340   53367       4   53340   53370       4   53337   53361
       4   53337   53364       4   53328   53352       6   53328   53355       6
   53319   53343       6   53319   53346       6   53316   53337       6   53316
   53340       6   53301   53331       4   53298   53328       6   53298   53331
       4   53292   53322       4   53286   53319       6   53286   53322       4
   53280   53316       6   53274   53280       4   53268   53301       7   53265
   53298       4   53262   53268       8   53262   53292       7   53259   53286
       4   53256   53280       4   53253   53274       4   53250   53271       2
   53247   53265       4   53247   53268       7   53244   53259       4   53244
   53262       7   53241   53256       4   53238   53241       7   53238   53253
       7   53229   53250       3   53223   53241       9   53223   53244       9
   53223   53247       9   53220   53238       8   53214   53229       4   53208
   53229       4   53202   53220       7   53196   53220       7   53196   53223
       9   53193   53214       4   53190   53208       4   53187   53202       4
   53184   53196       4   53181   53190       4   53181   53193       4   53178
   53184       4   53178   53187       4   53175   53178       6   53175   53181
       6   53166   53175       6   53160   53166       4   53154   53166       4
   53142   53160       4   53139   53154       4   53133   53139       4   53133
   53142       4   53130   53133       3   53130   53136       2   54021   54039
       2   54018   54036       2   54015   54033       2   54012   54030       2
   54009   54027       2   54006   54024       2   53997   54021       3   53988
   54018       3   53979   54015       3   53973   54012       3   53961   54009
       3   53952   54006       3   53946   53997       4   53940   53997       4
   53934   53988       4   53928   53988       4   53922   53979       4   53916
   53979       4   53910   53973       4   53904   53973       4   53901   53961
       4   53895   53961       4   53886   53952       4   53880   53952       4
   53877   53946       4   53874   53940       4   53871   53934       4   53868
   53928       4   53865   53922       4   53862   53916       4   53859   53910
       4   53856   53904       4   53853   53901       4   53850   53895       4
   53847   53886       4   53844   53880       4   53838   53874       4   53838
   53877       4   53835   53868       4   53835   53871       4   53829   53862
       4   53829   53865       4   53826   53856       4   53826   53859       4
   53823   53850       4   53823   53853       4   53820   53844       4   53820
   53847       4   53811   53835       6   53811   53838       6   53802   53826
       6   53802   53829       6   53799   53820       6   53799   53823       6
   53784   53814       4   53781   53811       6   53781   53814       4   53775
   53805       4   53769   53802       6   53769   53805       4   53763   53799
       6   53757   53763       4   53751   53784       7   53748   53781       4
   53745   53751       8   53745   53775       7   53742   53769       4   53739
   53763       4   53736   53757       4   53733   53754       2   53730   53748
       4   53730   53751       7   53727   53742       4   53727   53745       7
   53724   53739       4   53721   53724       7   53721   53736       7   53712
   53733       3   53706   53724       9   53706   53727       9   53706   53730
       9   53703   53721       8   53697   53712       4   53691   53712       4
   53685   53703       7   53679   53703       7   53679   53706       9   53676
   53697       4   53673   53691       4   53670   53685       4   53667   53679
       4   53664   53673       4   53664   53676       4   53661   53667       4
   53661   53670       4   53658   53661       6   53658   53664       6   53649
   53658       6   53643   53649       4   53637   53649       4   53625   53643
       4   53622   53637       4   53616   53622       4   53616   53625       4
   53613   53616       3   53613   53619       2   54504   54522       2   54501
   54519       2   54498   54516       2   54495   54513       2   54492   54510
       2   54489   54507       2   54480   54504       3   54471   54501       3
   54462   54498       3   54456   54495       3   54444   54492       3   54435
   54489       3   54429   54480       4   54423   54480       4   54417   54471
       4   54411   54471       4   54405   54462       4   54399   54462       4
   54393   54456       4   54387   54456       4   54384   54444       4   54378
   54444       4   54369   54435       4   54363   54435       4   54360   54429
       4   54357   54423       4   54354   54417       4   54351   54411       4
   54348   54405       4   54345   54399       4   54342   54393       4   54339
   54387       4   54336   54384       4   54333   54378       4   54330   54369
       4   54327   54363       4   54321   54357       4   54321   54360       4
   54318   54351       4   54318   54354       4   54312   54345       4   54312
   54348       4   54309   54339       4   54309   54342       4   54306   54333
       4   54306   54336       4   54303   54327       4   54303   54330       4
   54294   54318       6   54294   54321       6   54285   54309       6   54285
   54312       6   54282   54303       6   54282   54306       6   54267   54297
       4   54264   54294       6   54264   54297       4   54258   54288       4
   54252   54285       6   54252   54288       4   54246   54282       6   54240
   54246       4   54234   54267       7   54231   54264       4   54228   54234
       8   54228   54258       7   54225   54252       4   54222   54246       4
   54219   54240       4   54216   54237       2   54213   54231       4   54213
   54234       7   54210   54225       4   54210   54228       7   54207   54222
       4   54204   54207       7   54204   54219       7   54195   54216       3
   54189   54207       9   54189   54210       9   54189   54213       9   54186
   54204       8   54180   54195       4   54174   54195       4   54168   54186
       7   54162   54186       7   54162   54189       9   54159   54180       4
   54156   54174       4   54153   54168       4   54150   54162       4   54147
   54156       4   54147   54159       4   54144   54150       4   54144   54153
       4   54141   54144       6   54141   54147       6   54132   54141       6
   54126   54132       4   54120   54132       4   54108   54126       4   54105
   54120       4   54099   54105       4   54099   54108       4   54096   54099
       3   54096   54102       2   54987   55005       2   54984   55002       2
   54981   54999       2   54978   54996       2   54975   54993       2   54972
   54990       2   54963   54987       3   54954   54984       3   54945   54981
       3   54939   54978       3   54927   54975       3   54918   54972       3
   54912   54963       4   54906   54963       4   54900   54954       4   54894
   54954       4   54888   54945       4   54882   54945       4   54876   54939
       4   54870   54939       4   54867   54927       4   54861   54927       4
   54852   54918       4   54846   54918       4   54843   54912       4   54840
   54906       4   54837   54900       4   54834   54894       4   54831   54888
       4   54828   54882       4   54825   54876       4   54822   54870       4
   54819   54867       4   54816   54861       4   54813   54852       4   54810
   54846       4   54804   54840       4   54804   54843       4   54801   54834
       4   54801   54837       4   54795   54828       4   54795   54831       4
   54792   54822       4   54792   54825       4   54789   54816       4   54789
   54819       4   54786   54810       4   54786   54813       4   54777   54801
       6   54777   54804       6   54768   54792       6   54768   54795       6
   54765   54786       6   54765   54789       6   54750   54780       4   54747
   54777       6   54747   54780       4   54741   54771       4   54735   54768
       6   54735   54771       4   54729   54765       6   54723   54729       4
   54717   54750       7   54714   54747       4   54711   54717       8   54711
   54741       7   54708   54735       4   54705   54729       4   54702   54723
       4   54699   54720       2   54696   54714       4   54696   54717       7
   54693   54708       4   54693   54711       7   54690   54705       4   54687
   54690       7   54687   54702       7   54678   54699       3   54672   54690
       9   54672   54693       9   54672   54696       9   54669   54687       8
   54663   54678       4   54657   54678       4   54651   54669       7   54645
   54669       7   54645   54672       9   54642   54663       4   54639   54657
       4   54636   54651       4   54633   54645       4   54630   54639       4
   54630   54642       4   54627   54633       4   54627   54636       4   54624
   54627       6   54624   54630       6   54615   54624       6   54609   54615
       4   54603   54615       4   54591   54609       4   54588   54603       4
   54582   54588       4   54582   54591       4   54579   54582       3   54579
   54585       2   55470   55488       2   55467   55485       2   55464   55482
       2   55461   55479       2   55458   55476       2   55455   55473       2
   55446   55470       3   55437   55467       3   55428   55464       3   55422
   55461       3   55410   55458       3   55401   55455       3   55395   55446
       4   55389   55446       4   55383   55437       4   55377   55437       4
   55371   55428       4   55365   55428       4   55359   55422       4   55353
   55422       4   55350   55410       4   55344   55410       4   55335   55401
       4   55329   55401       4   55326   55395       4   55323   55389       4
   55320   55383       4   55317   55377       4   55314   55371       4   55311
   55365       4   55308   55359       4   55305   55353       4   55302   55350
       4   55299   55344       4   55296   55335       4   55293   55329       4
   55287   55323       4   55287   55326       4   55284   55317       4   55284
   55320       4   55278   55311       4   55278   55314       4   55275   55305
       4   55275   55308       4   55272   55299       4   55272   55302       4
   55269   55293       4   55269   55296       4   55260   55284       6   55260
   55287       6   55251   55275       6   55251   55278       6   55248   55269
       6   55248   55272       6   55233   55263       4   55230   55260       6
   55230   55263       4   55224   55254       4   55218   55251       6   55218
   55254       4   55212   55248       6   55206   55212       4   55200   55233
       7   55197   55230       4   55194   55200       8   55194   55224       7
   55191   55218       4   55188   55212       4   55185   55206       4   55182
   55203       2   55179   55197       4   55179   55200       7   55176   55191
       4   55176   55194       7   55173   55188       4   55170   55173       7
   55170   55185       7   55161   55182       3   55155   55173       9   55155
   55176       9   55155   55179       9   55152   55170       8   55146   55161
       4   55140   55161       4   55134   55152       7   55128   55152       7
   55128   55155       9   55125   55146       4   55122   55140       4   55119
   55134       4   55116   55128       4   55113   55122       4   55113   55125
       4   55110   55116       4   55110   55119       4   55107   55110       6
   55107   55113       6   55098   55107       6   55092   55098       4   55086
   55098       4   55074   55092       4   55071   55086       4   55065   55071
       4   55065   55074       4   55062   55065       3   55062   55068       2
   55953   55971       2   55950   55968       2   55947   55965       2   55944
   55962       2   55941   55959       2   55938   55956       2   55929   55953
       3   55920   55950       3   55911   55947       3   55905   55944       3
   55893   55941       3   55884   55938       3   55878   55929       4   55872
   55929       4   55866   55920       4   55860   55920       4   55854   55911
       4   55848   55911       4   55842   55905       4   55836   55905       4
   55833   55893       4   55827   55893       4   55818   55884       4   55812
   55884       4   55809   55878       4   55806   55872       4   55803   55866
       4   55800   55860       4   55797   55854       4   55794   55848       4
   55791   55842       4   55788   55836       4   55785   55833       4   55782
   55827       4   55779   55818       4   55776   55812       4   55770   55806
       4   55770   55809       4   55767   55800       4   55767   55803       4
   55761   55794       4   55761   55797       4   55758   55788       4   55758
   55791       4   55755   55782       4   55755   55785       4   55752   55776
       4   55752   55779       4   55743   55767       6   55743   55770       6
   55734   55758       6   55734   55761       6   55731   55752       6   55731
   55755       6   55716   55746       4   55713   55743       6   55713   55746
       4   55707   55737       4   55701   55734       6   55701   55737       4
   55695   55731       6   55689   55695       4   55683   55716       7   55680
   55713       4   55677   55683       8   55677   55707       7   55674   55701
       4   55671   55695       4   55668   55689       4   55665   55686       2
   55662   55680       4   55662   55683       7   55659   55674       4   55659
   55677       7   55656   55671       4   55653   55656       7   55653   55668
       7   55644   55665       3   55638   55656       9   55638   55659       9
   55638   55662       9   55635   55653       8   55629   55644       4   55623
   55644       4   55617   55635       7   55611   55635       7   55611   55638
       9   55608   55629       4   55605   55623       4   55602   55617       4
   55599   55611       4   55596   55605       4   55596   55608       4   55593
   55599       4   55593   55602       4   55590   55593       6   55590   55596
       6   55581   55590       6   55575   55581       4   55569   55581       4
   55557   55575       4   55554   55569       4   55548   55554       4   55548
   55557       4   55545   55548       3   55545   55551       2   56436   56454
       2   56433   56451       2   56430   56448       2   56427   56445       2
   56424   56442       2   56421   56439       2   56412   56436       3   56403
   56433       3   56394   56430       3   56388   56427       3   56376   56424
       3   56367   56421       3   56361   56412       4   56355   56412       4
   56349   56403       4   56343   56403       4   56337   56394       4   56331
   56394       4   56325   56388       4   56319   56388       4   56316   56376
       4   56310   56376       4   56301   56367       4   56295   56367       4
   56292   56361       4   56289   56355       4   56286   56349       4   56283
   56343       4   56280   56337       4   56277   56331       4   56274   56325
       4   56271   56319       4   56268   56316       4   56265   56310       4
   56262   56301       4   56259   56295       4   56253   56289       4   56253
   56292       4   56250   56283       4   56250   56286       4   56244   56277
       4   56244   56280       4   56241   56271       4   56241   56274       4
   56238   56265       4   56238   56268       4   56235   56259       4   56235
   56262       4   56226   56250       6   56226   56253       6   56217   56241
       6   56217   56244       6   56214   56235       6   56214   56238       6
   56199   56229       4   56196   56226       6   56196   56229       4   56190
   56220       4   56184   56217       6   56184   56220       4   56178   56214
       6   56172   56178       4   56166   56199       7   56163   56196       4
   56160   56166       8   56160   56190       7   56157   56184       4   56154
   56178       4   56151   56172       4   56148   56169       2   56145   56163
       4   56145   56166       7   56142   56157       4   56142   56160       7
   56139   56154       4   56136   56139       7   56136   56151       7   56127
   56148       3   56121   56139       9   56121   56142       9   56121   56145
       9   56118   56136       8   56112   56127       4   56106   56127       4
   56100   56118       7   56094   56118       7   56094   56121       9   56091
   56112       4   56088   56106       4   56085   56100       4   56082   56094
       4   56079   56088       4   56079   56091       4   56076   56082       4
   56076   56085       4   56073   56076       6   56073   56079       6   56064
   56073       6   56058   56064       4   56052   56064       4   56040   56058
       4   56037   56052       4   56031   56037       4   56031   56040       4
   56028   56031       3   56028   56034       2   56919   56937       2   56916
   56934       2   56913   56931       2   56910   56928       2   56907   56925
       2   56904   56922       2   56895   56919       3   56886   56916       3
   56877   56913       3   56871   56910       3   56859   56907       3   56850
   56904       3   56844   56895       4   56838   56895       4   56832   56886
       4   56826   56886       4   56820   56877       4   56814   56877       4
   56808   56871       4   56802   56871       4   56799   56859       4   56793
   56859       4   56784   56850       4   56778   56850       4   56775   56844
       4   56772   56838       4   56769   56832       4   56766   56826       4
   56763   56820       4   56760   56814       4   56757   56808       4   56754
   56802       4   56751   56799       4   56748   56793       4   56745   56784
       4   56742   56778       4   56736   56772       4   56736   56775       4
   56733   56766       4   56733   56769       4   56727   56760       4   56727
   56763       4   56724   56754       4   56724   56757       4   56721   56748
       4   56721   56751       4   56718   56742       4   56718   56745       4
   56709   56733       6   56709   56736       6   56700   56724       6   56700
   56727       6   56697   56718       6   56697   56721       6   56682   56712
       4   56679   56709       6   56679   56712       4   56673   56703       4
   56667   56700       6   56667   56703       4   56661   56697       6   56655
   56661       4   56649   56682       7   56646   56679       4   56643   56649
       8   56643   56673       7   56640   56667       4   56637   56661       4
   56634   56655       4   56631   56652       2   56628   56646       4   56628
   56649       7   56625   56640       4   56625   56643       7   56622   56637
       4   56619   56622       7   56619   56634       7   56610   56631       3
   56604   56622       9   56604   56625       9   56604   56628       9   56601
   56619       8   56595   56610       4   56589   56610       4   56583   56601
       7   56577   56601       7   56577   56604       9   56574   56595       4
   56571   56589       4   56568   56583       4   56565   56577       4   56562
   56571       4   56562   56574       4   56559   56565       4   56559   56568
       4   56556   56559       6   56556   56562       6   56547   56556       6
   56541   56547       4   56535   56547       4   56523   56541       4   56520
   56535       4   56514   56520       4   56514   56523       4   56511   56514
       3   56511   56517       2   57402   57420       2   57399   57417       2
   57396   57414       2   57393   57411       2   57390   57408       2   57387
   57405       2   57378   57402       3   57369   57399       3   57360   57396
       3   57354   57393       3   57342   57390       3   57333   57387       3
   57327   57378       4   57321   57378       4   57315   57369       4   57309
   57369       4   57303   57360       4   57297   57360       4   57291   57354
       4   57285   57354       4   57282   57342       4   57276   57342       4
   57267   57333       4   57261   57333       4   57258   57327       4   57255
   57321       4   57252   57315       4   57249   57309       4   57246   57303
       4   57243   57297       4   57240   57291       4   57237   57285       4
   57234   57282       4   57231   57276       4   57228   57267       4   57225
   57261       4   57219   57255       4   57219   57258       4   57216   57249
       4   57216   57252       4   57210   57243       4   57210   57246       4
   57207   57237       4   57207   57240       4   57204   57231       4   57204
   57234       4   57201   57225       4   57201   57228       4   57192   57216
       6   57192   57219       6   57183   57207       6   57183   57210       6
   57180   57201       6   57180   57204       6   57165   57195       4   57162
   57192       6   57162   57195       4   57156   57186       4   57150   57183
       6   57150   57186       4   57144   57180       6   57138   57144       4
   57132   57165       7   57129   57162       4   57126   57132       8   57126
   57156       7   57123   57150       4   57120   57144       4   57117   57138
       4   57114   57135       2   57111   57129       4   57111   57132       7
   57108   57123       4   57108   57126       7   57105   57120       4   57102
   57105       7   57102   57117       7   57093   57114       3   57087   57105
       9   57087   57108       9   57087   57111       9   57084   57102       8
   57078   57093       4   57072   57093       4   57066   57084       7   57060
   57084       7   57060   57087       9   57057   57078       4   57054   57072
       4   57051   57066       4   57048   57060       4   57045   57054       4
   57045   57057       4   57042   57048       4   57042   57051       4   57039
   57042       6   57039   57045       6   57030   57039       6   57024   57030
       4   57018   57030       4   57006   57024       4   57003   57018       4
   56997   57003       4   56997   57006       4   56994   56997       3   56994
   57000       2   57885   57903       2   57882   57900       2   57879   57897
       2   57876   57894       2   57873   57891       2   57870   57888       2
   57861   57885       3   57852   57882       3   57843   57879       3   57837
   57876       3   57825   57873       3   57816   57870       3   57810   57861
       4   57804   57861       4   57798   57852       4   57792   57852       4
   57786   57843       4   57780   57843       4   57774   57837       4   57768
   57837       4   57765   57825       4   57759   57825       4   57750   57816
       4   57744   57816       4   57741   57810       4   57738   57804       4
   57735   57798       4   57732   57792       4   57729   57786       4   57726
   57780       4   57723   57774       4   57720   57768       4   57717   57765
       4   57714   57759       4   57711   57750       4   57708   57744       4
   57702   57738       4   57702   57741       4   57699   57732       4   57699
   57735       4   57693   57726       4   57693   57729       4   57690   57720
       4   57690   57723       4   57687   57714       4   57687   57717       4
   57684   57708       4   57684   57711       4   57675   57699       6   57675
   57702       6   57666   57690       6   57666   57693       6   57663   57684
       6   57663   57687       6   57648   57678       4   57645   57675       6
   57645   57678       4   57639   57669       4   57633   57666       6   57633
   57669       4   57627   57663       6   57621   57627       4   57615   57648
       7   57612   57645       4   57609   57615       8   57609   57639       7
   57606   57633       4   57603   57627       4   57600   57621       4   57597
   57618       2   57594   57612       4   57594   57615       7   57591   57606
       4   57591   57609       7   57588   57603       4   57585   57588       7
   57585   57600       7   57576   57597       3   57570   57588       9   57570
   57591       9   57570   57594       9   57567   57585       8   57561   57576
       4   57555   57576       4   57549   57567       7   57543   57567       7
   57543   57570       9   57540   57561       4   57537   57555       4   57534
   57549       4   57531   57543       4   57528   57537       4   57528   57540
       4   57525   57531       4   57525   57534       4   57522   57525       6
   57522   57528       6   57513   57522       6   57507   57513       4   57501
   57513       4   57489   57507       4   57486   57501       4   57480   57486
       4   57480   57489       4   57477   57480       3   57477   57483       2
   58368   58386       2   58365   58383       2   58362   58380       2   58359
   58377       2   58356   58374       2   58353   58371       2   58344   58368
       3   58335   58365       3   58326   58362       3   58320   58359       3
   58308   58356       3   58299   58353       3   58293   58344       4   58287
   58344       4   58281   58335       4   58275   58335       4   58269   58326
       4   58263   58326       4   58257   58320       4   58251   58320       4
   58248   58308       4   58242   58308       4   58233   58299       4   58227
   58299       4   58224   58293       4   58221   58287       4   58218   58281
       4   58215   58275       4   58212   58269       4   58209   58263       4
   58206   58257       4   58203   58251       4   58200   58248       4   58197
   58242       4   58194   58233       4   58191   58227       4   58185   58221
       4   58185   58224       4   58182   58215       4   58182   58218       4
   58176   58209       4   58176   58212       4   58173   58203       4   58173
   58206       4   58170   58197       4   58170   58200       4   58167   58191
       4   58167   58194       4   58158   58182       6   58158   58185       6
   58149   58173       6   58149   58176       6   58146   58167       6   58146
   58170       6   58131   58161       4   58128   58158       6   58128   58161
       4   58122   58152       4   58116   58149       6   58116   58152       4
   58110   58146       6   58104   58110       4   58098   58131       7   58095
   58128       4   58092   58098       8   58092   58122       7   58089   58116
       4   58086   58110       4   58083   58104       4   58080   58101       2
   58077   58095       4   58077   58098       7   58074   58089       4   58074
   58092       7   58071   58086       4   58068   58071       7   58068   58083
       7   58059   58080       3   58053   58071       9   58053   58074       9
   58053   58077       9   58050   58068       8   58044   58059       4   58038
   58059       4   58032   58050       7   58026   58050       7   58026   58053
       9   58023   58044       4   58020   58038       4   58017   58032       4
   58014   58026       4   58011   58020       4   58011   58023       4   58008
   58014       4   58008   58017       4   58005   58008       6   58005   58011
       6   57996   58005       6   57990   57996       4   57984   57996       4
   57972   57990       4   57969   57984       4   57963   57969       4   57963
   57972       4   57960   57963       3   57960   57966       2   58851   58869
       2   58848   58866       2   58845   58863       2   58842   58860       2
   58839   58857       2   58836   58854       2   58827   58851       3   58818
   58848       3   58809   58845       3   58803   58842       3   58791   58839
       3   58782   58836       3   58776   58827       4   58770   58827       4
   58764   58818       4   58758   58818       4   58752   58809       4   58746
   58809       4   58740   58803       4   58734   58803       4   58731   58791
       4   58725   58791       4   58716   58782       4   58710   58782       4
   58707   58776       4   58704   58770       4   58701   58764       4   58698
   58758       4   58695   58752       4   58692   58746       4   58689   58740
       4   58686   58734       4   58683   58731       4   58680   58725       4
   58677   58716       4   58674   58710       4   58668   58704       4   58668
   58707       4   58665   58698       4   58665   58701       4   58659   58692
       4   58659   58695       4   58656   58686       4   58656   58689       4
   58653   58680       4   58653   58683       4   58650   58674       4   58650
   58677       4   58641   58665       6   58641   58668       6   58632   58656
       6   58632   58659       6   58629   58650       6   58629   58653       6
   58614   58644       4   58611   58641       6   58611   58644       4   58605
   58635       4   58599   58632       6   58599   58635       4   58593   58629
       6   58587   58593       4   58581   58614       7   58578   58611       4
   58575   58581       8   58575   58605       7   58572   58599       4   58569
   58593       4   58566   58587       4   58563   58584       2   58560   58578
       4   58560   58581       7   58557   58572       4   58557   58575       7
   58554   58569       4   58551   58554       7   58551   58566       7   58542
   58563       3   58536   58554       9   58536   58557       9   58536   58560
       9   58533   58551       8   58527   58542       4   58521   58542       4
   58515   58533       7   58509   58533       7   58509   58536       9   58506
   58527       4   58503   58521       4   58500   58515       4   58497   58509
       4   58494   58503       4   58494   58506       4   58491   58497       4
   58491   58500       4   58488   58491       6   58488   58494       6   58479
   58488       6   58473   58479       4   58467   58479       4   58455   58473
       4   58452   58467       4   58446   58452       4   58446   58455       4
   58443   58446       3   58443   58449       2   59334   59352       2   59331
   59349       2   59328   59346       2   59325   59343       2   59322   59340
       2   59319   59337       2   59310   59334       3   59301   59331       3
   59292   59328       3   59286   59325       3   59274   59322       3   59265
   59319       3   59259   59310       4   59253   59310       4   59247   59301
       4   59241   59301       4   59235   59292       4   59229   59292       4
   59223   59286       4   59217   59286       4   59214   59274       4   59208
   59274       4   59199   59265       4   59193   59265       4   59190   59259
       4   59187   59253       4   59184   59247       4   59181   59241       4
   59178   59235       4   59175   59229       4   59172   59223       4   59169
   59217       4   59166   59214       4   59163   59208       4   59160   59199
       4   59157   59193       4   59151   59187       4   59151   59190       4
   59148   59181       4   59148   59184       4   59142   59175       4   59142
   59178       4   59139   59169       4   59139   59172       4   59136   59163
       4   59136   59166       4   59133   59157       4   59133   59160       4
   59124   59148       6   59124   59151       6   59115   59139       6   59115
   59142       6   59112   59133       6   59112   59136       6   59097   59127
       4   59094   59124       6   59094   59127       4   59088   59118       4
   59082   59115       6   59082   59118       4   59076   59112       6   59070
   59076       4   59064   59097       7   59061   59094       4   59058   59064
       8   59058   59088       7   59055   59082       4   59052   59076       4
   59049   59070       4   59046   59067       2   59043   59061       4   59043
   59064       7   59040   59055       4   59040   59058       7   59037   59052
       4   59034   59037       7   59034   59049       7   59025   59046       3
   59019   59037       9   59019   59040       9   59019   59043       9   59016
   59034       8   59010   59025       4   59004   59025       4   58998   59016
       7   58992   59016       7   58992   59019       9   58989   59010       4
   58986   59004       4   58983   58998       4   58980   58992       4   58977
   58986       4   58977   58989       4   58974   58980       4   58974   58983
       4   58971   58974       6   58971   58977       6   58962   58971       6
   58956   58962       4   58950   58962       4   58938   58956       4   58935
   58950       4   58929   58935       4   58929   58938       4   58926   58929
       3   58926   58932       2   59817   59835       2   59814   59832       2
   59811   59829       2   59808   59826       2   59805   59823       2   59802
   59820       2   59793   59817       3   59784   59814       3   59775   59811
       3   59769   59808       3   59757   59805       3   59748   59802       3
   59742   59793       4   59736   59793       4   59730   59784       4   59724
   59784       4   59718   59775       4   59712   59775       4   59706   59769
       4   59700   59769       4   59697   59757       4   59691   59757       4
   59682   59748       4   59676   59748       4   59673   59742       4   59670
   59736       4   59667   59730       4   59664   59724       4   59661   59718
       4   59658   59712       4   59655   59706       4   59652   59700       4
   59649   59697       4   59646   59691       4   59643   59682       4   59640
   59676       4   59634   59670       4   59634   59673       4   59631   59664
       4   59631   59667       4   59625   59658       4   59625   59661       4
   59622   59652       4   59622   59655       4   59619   59646       4   59619
   59649       4   59616   59640       4   59616   59643       4   59607   59631
       6   59607   59634       6   59598   59622       6   59598   59625       6
   59595   59616       6   59595   59619       6   59580   59610       4   59577
   59607       6   59577   59610       4   59571   59601       4   59565   59598
       6   59565   59601       4   59559   59595       6   59553   59559       4
   59547   59580       7   59544   59577       4   59541   59547       8   59541
   59571       7   59538   59565       4   59535   59559       4   59532   59553
       4   59529   59550       2   59526   59544       4   59526   59547       7
   59523   59538       4   59523   59541       7   59520   59535       4   59517
   59520       7   59517   59532       7   59508   59529       3   59502   59520
       9   59502   59523       9   59502   59526       9   59499   59517       8
   59493   59508       4   59487   59508       4   59481   59499       7   59475
   59499       7   59475   59502       9   59472   59493       4   59469   59487
       4   59466   59481       4   59463   59475       4   59460   59469       4
   59460   59472       4   59457   59463       4   59457   59466       4   59454
   59457       6   59454   59460       6   59445   59454       6   59439   59445
       4   59433   59445       4   59421   59439       4   59418   59433       4
   59412   59418       4   59412   59421       4   59409   59412       3   59409
   59415       2   60300   60318       2   60297   60315       2   60294   60312
       2   60291   60309       2   60288   60306       2   60285   60303       2
   60276   60300       3   60267   60297       3   60258   60294       3   60252
   60291       3   60240   60288       3   60231   60285       3   60225   60276
       4   60219   60276       4   60213   60267       4   60207   60267       4
   60201   60258       4   60195   60258       4   60189   60252       4   60183
   60252       4   60180   60240       4   60174   60240       4   60165   60231
       4   60159   60231       4   60156   60225       4   60153   60219       4
   60150   60213       4   60147   60207       4   60144   60201       4   60141
   60195       4   60138   60189       4   60135   60183       4   60132   60180
       4   60129   60174       4   60126   60165       4   60123   60159       4
   60117   60153       4   60117   60156       4   60114   60147       4   60114
   60150       4   60108   60141       4   60108   60144       4   60105   60135
       4   60105   60138       4   60102   60129       4   60102   60132       4
   60099   60123       4   60099   60126       4   60090   60114       6   60090
   60117       6   60081   60105       6   60081   60108       6   60078   60099
       6   60078   60102       6   60063   60093       4   60060   60090       6
   60060   60093       4   60054   60084       4   60048   60081       6   60048
   60084       4   60042   60078       6   60036   60042       4   60030   60063
       7   60027   60060       4   60024   60030       8   60024   60054       7
   60021   60048       4   60018   60042       4   60015   60036       4   60012
   60033       2   60009   60027       4   60009   60030       7   60006   60021
       4   60006   60024       7   60003   60018       4   60000   60003       7
   60000   60015       7   59991   60012       3   59985   60003       9   59985
   60006       9   59985   60009       9   59982   60000       8   59976   59991
       4   59970   59991       4   59964   59982       7   59958   59982       7
   59958   59985       9   59955   59976       4   59952   59970       4   59949
   59964       4   59946   59958       4   59943   59952       4   59943   59955
       4   59940   59946       4   59940   59949       4   59937   59940       6
   59937   59943       6   59928   59937       6   59922   59928       4   59916
   59928       4   59904   59922       4   59901   59916       4   59895   59901
       4   59895   59904       4   59892   59895       3   59892   59898       2
   60783   60801       2   60780   60798       2   60777   60795       2   60774
   60792       2   60771   60789       2   60768   60786       2   60759   60783
       3   60750   60780       3   60741   60777       3   60735   60774       3
   60723   60771       3   60714   60768       3   60708   60759       4   60702
   60759       4   60696   60750       4   60690   60750       4   60684   60741
       4   60678   60741       4   60672   60735       4   60666   60735       4
   60663   60723       4   60657   60723       4   60648   60714       4   60642
   60714       4   60639   60708       4   60636   60702       4   60633   60696
       4   60630   60690       4   60627   60684       4   60624   60678       4
   60621   60672       4   60618   60666       4   60615   60663       4   60612
   60657       4   60609   60648       4   60606   60642       4   60600   60636
       4   60600   60639       4   60597   60630       4   60597   60633       4
   60591   60624       4   60591   60627       4   60588   60618       4   60588
   60621       4   60585   60612       4   60585   60615       4   60582   60606
       4   60582   60609       4   60573   60597       6   60573   60600       6
   60564   60588       6   60564   60591       6   60561   60582       6   60561
   60585       6   60546   60576       4   60543   60573       6   60543   60576
       4   60537   60567       4   60531   60564       6   60531   60567       4
   60525   60561       6   60519   60525       4   60513   60546       7   60510
   60543       4   60507   60513       8   60507   60537       7   60504   60531
       4   60501   60525       4   60498   60519       4   60495   60516       2
   60492   60510       4   60492   60513       7   60489   60504       4   60489
   60507       7   60486   60501       4   60483   60486       7   60483   60498
       7   60474   60495       3   60468   60486       9   60468   60489       9
   60468   60492       9   60465   60483       8   60459   60474       4   60453
   60474       4   60447   60465       7   60441   60465       7   60441   60468
       9   60438   60459       4   60435   60453       4   60432   60447       4
   60429   60441       4   60426   60435       4   60426   60438       4   60423
   60429       4   60423   60432       4   60420   60423       6   60420   60426
       6   60411   60420       6   60405   60411       4   60399   60411       4
   60387   60405       4   60384   60399       4   60378   60384       4   60378
   60387       4   60375   60378       3   60375   60381       2   61266   61284
       2   61263   61281       2   61260   61278       2   61257   61275       2
   61254   61272       2   61251   61269       2   61242   61266       3   61233
   61263       3   61224   61260       3   61218   61257       3   61206   61254
       3   61197   61251       3   61191   61242       4   61185   61242       4
   61179   61233       4   61173   61233       4   61167   61224       4   61161
   61224       4   61155   61218       4   61149   61218       4   61146   61206
       4   61140   61206       4   61131   61197       4   61125   61197       4
   61122   61191       4   61119   61185       4   61116   61179       4   61113
   61173       4   61110   61167       4   61107   61161       4   61104   61155
       4   61101   61149       4   61098   61146       4   61095   61140       4
   61092   61131       4   61089   61125       4   61083   61119       4   61083
   61122       4   61080   61113       4   61080   61116       4   61074   61107
       4   61074   61110       4   61071   61101       4   61071   61104       4
   61068   61095       4   61068   61098       4   61065   61089       4   61065
   61092       4   61056   61080       6   61056   61083       6   61047   61071
       6   61047   61074       6   61044   61065       6   61044   61068       6
   61029   61059       4   61026   61056       6   61026   61059       4   61020
   61050       4   61014   61047       6   61014   61050       4   61008   61044
       6   61002   61008       4   60996   61029       7   60993   61026       4
   60990   60996       8   60990   61020       7   60987   61014       4   60984
   61008       4   60981   61002       4   60978   60999       2   60975   60993
       4   60975   60996       7   60972   60987       4   60972   60990       7
   60969   60984       4   60966   60969       7   60966   60981       7   60957
   60978       3   60951   60969       9   60951   60972       9   60951   60975
       9   60948   60966       8   60942   60957       4   60936   60957       4
   60930   60948       7   60924   60948       7   60924   60951       9   60921
   60942       4   60918   60936       4   60915   60930       4   60912   60924
       4   60909   60918       4   60909   60921       4   60906   60912       4
   60906   60915       4   60903   60906       6   60903   60909       6   60894
   60903       6   60888   60894       4   60882   60894       4   60870   60888
       4   60867   60882       4   60861   60867       4   60861   60870       4
   60858   60861       3   60858   60864       2   61749   61767       2   61746
   61764       2   61743   61761       2   61740   61758       2   61737   61755
       2   61734   61752       2   61725   61749       3   61716   61746       3
   61707   61743       3   61701   61740       3   61689   61737       3   61680
   61734       3   61674   61725       4   61668   61725       4   61662   61716
       4   61656   61716       4   61650   61707       4   61644   61707       4
   61638   61701       4   61632   61701       4   61629   61689       4   61623
   61689       4   61614   61680       4   61608   61680       4   61605   61674
       4   61602   61668       4   61599   61662       4   61596   61656       4
   61593   61650       4   61590   61644       4   61587   61638       4   61584
   61632       4   61581   61629       4   61578   61623       4   61575   61614
       4   61572   61608       4   61566   61602       4   61566   61605       4
   61563   61596       4   61563   61599       4   61557   61590       4   61557
   61593       4   61554   61584       4   61554   61587       4   61551   61578
       4   61551   61581       4   61548   61572       4   61548   61575       4
   61539   61563       6   61539   61566       6   61530   61554       6   61530
   61557       6   61527   61548       6   61527   61551       6   61512   61542
       4   61509   61539       6   61509   61542       4   61503   61533       4
   61497   61530       6   61497   61533       4   61491   61527       6   61485
   61491       4   61479   61512       7   61476   61509       4   61473   61479
       8   61473   61503       7   61470   61497       4   61467   61491       4
   61464   61485       4   61461   61482       2   61458   61476       4   61458
   61479       7   61455   61470       4   61455   61473       7   61452   61467
       4   61449   61452       7   61449   61464       7   61440   61461       3
   61434   61452       9   61434   61455       9   61434   61458       9   61431
   61449       8   61425   61440       4   61419   61440       4   61413   61431
       7   61407   61431       7   61407   61434       9   61404   61425       4
   61401   61419       4   61398   61413       4   61395   61407       4   61392
   61401       4   61392   61404       4   61389   61395       4   61389   61398
       4   61386   61389       6   61386   61392       6   61377   61386       6
   61371   61377       4   61365   61377       4   61353   61371       4   61350
   61365       4   61344   61350       4   61344   61353       4   61341   61344
       3   61341   61347       2   62232   62250       2   62229   62247       2
   62226   62244       2   62223   62241       2   62220   62238       2   62217
   62235       2   62208   62232       3   62199   62229       3   62190   62226
       3   62184   62223       3   62172   62220       3   62163   62217       3
   62157   62208       4   62151   62208       4   62145   62199       4   62139
   62199       4   62133   62190       4   62127   62190       4   62121   62184
       4   62115   62184       4   62112   62172       4   62106   62172       4
   62097   62163       4   62091   62163       4   62088   62157       4   62085
   62151       4   62082   62145       4   62079   62139       4   62076   62133
       4   62073   62127       4   62070   62121       4   62067   62115       4
   62064   62112       4   62061   62106       4   62058   62097       4   62055
   62091       4   62049   62085       4   62049   62088       4   62046   62079
       4   62046   62082       4   62040   62073       4   62040   62076       4
   62037   62067       4   62037   62070       4   62034   62061       4   62034
   62064       4   62031   62055       4   62031   62058       4   62022   62046
       6   62022   62049       6   62013   62037       6   62013   62040       6
   62010   62031       6   62010   62034       6   61995   62025       4   61992
   62022       6   61992   62025       4   61986   62016       4   61980   62013
       6   61980   62016       4   61974   62010       6   61968   61974       4
   61962   61995       7   61959   61992       4   61956   61962       8   61956
   61986       7   61953   61980       4   61950   61974       4   61947   61968
       4   61944   61965       2   61941   61959       4   61941   61962       7
   61938   61953       4   61938   61956       7   61935   61950       4   61932
   61935       7   61932   61947       7   61923   61944       3   61917   61935
       9   61917   61938       9   61917   61941       9   61914   61932       8
   61908   61923       4   61902   61923       4   61896   61914       7   61890
   61914       7   61890   61917       9   61887   61908       4   61884   61902
       4   61881   61896       4   61878   61890       4   61875   61884       4
   61875   61887       4   61872   61878       4   61872   61881       4   61869
   61872       6   61869   61875       6   61860   61869       6   61854   61860
       4   61848   61860       4   61836   61854       4   61833   61848       4
   61827   61833       4   61827   61836       4   61824   61827       3   61824
   61830       2   62715   62733       2   62712   62730       2   62709   62727
       2   62706   62724       2   62703   62721       2   62700   62718       2
   62691   62715       3   62682   62712       3   62673   62709       3   62667
   62706       3   62655   62703       3   62646   62700       3   62640   62691
       4   62634   62691       4   62628   62682       4   62622   62682       4
   62616   62673       4   62610   62673       4   62604   62667       4   62598
   62667       4   62595   62655       4   62589   62655       4   62580   62646
       4   62574   62646       4   62571   62640       4   62568   62634       4
   62565   62628       4   62562   62622       4   62559   62616       4   62556
   62610       4   62553   62604       4   62550   62598       4   62547   62595
       4   62544   62589       4   62541   62580       4   62538   62574       4
   62532   62568       4   62532   62571       4   62529   62562       4   62529
   62565       4   62523   62556       4   62523   62559       4   62520   62550
       4   62520   62553       4   62517   62544       4   62517   62547       4
   62514   62538       4   62514   62541       4   62505   62529       6   62505
   62532       6   62496   62520       6   62496   62523       6   62493   62514
       6   62493   62517       6   62478   62508       4   62475   62505       6
   62475   62508       4   62469   62499       4   62463   62496       6   62463
   62499       4   62457   62493       6   62451   62457       4   62445   62478
       7   62442   62475       4   62439   62445       8   62439   62469       7
   62436   62463       4   62433   62457       4   62430   62451       4   62427
   62448       2   62424   62442       4   62424   62445       7   62421   62436
       4   62421   62439       7   62418   62433       4   62415   62418       7
   62415   62430       7   62406   62427       3   62400   62418       9   62400
   62421       9   62400   62424       9   62397   62415       8   62391   62406
       4   62385   62406       4   62379   62397       7   62373   62397       7
   62373   62400       9   62370   62391       4   62367   62385       4   62364
   62379       4   62361   62373       4   62358   62367       4   62358   62370
       4   62355   62361       4   62355   62364       4   62352   62355       6
   62352   62358       6   62343   62352       6   62337   62343       4   62331
   62343       4   62319   62337       4   62316   62331       4   62310   62316
       4   62310   62319       4   62307   62310       3   62307   62313       2
   63198   63216       2   63195   63213       2   63192   63210       2   63189
   63207       2   63186   63204       2   63183   63201       2   63174   63198
       3   63165   63195       3   63156   63192       3   63150   63189       3
   63138   63186       3   63129   63183       3   63123   63174       4   63117
   63174       4   63111   63165       4   63105   63165       4   63099   63156
       4   63093   63156       4   63087   63150       4   63081   63150       4
   63078   63138       4   63072   63138       4   63063   63129       4   63057
   63129       4   63054   63123       4   63051   63117       4   63048   63111
       4   63045   63105       4   63042   63099       4   63039   63093       4
   63036   63087       4   63033   63081       4   63030   63078       4   63027
   63072       4   63024   63063       4   63021   63057       4   63015   63051
       4   63015   63054       4   63012   63045       4   63012   63048       4
   63006   63039       4   63006   63042       4   63003   63033       4   63003
   63036       4   63000   63027       4   63000   63030       4   62997   63021
       4   62997   63024       4   62988   63012       6   62988   63015       6
   62979   63003       6   62979   63006       6   62976   62997       6   62976
   63000       6   62961   62991       4   62958   62988       6   62958   62991
       4   62952   62982       4   62946   62979       6   62946   62982       4
   62940   62976       6   62934   62940       4   62928   62961       7   62925
   62958       4   62922   62928       8   62922   62952       7   62919   62946
       4   62916   62940       4   62913   62934       4   62910   62931       2
   62907   62925       4   62907   62928       7   62904   62919       4   62904
   62922       7   62901   62916       4   62898   62901       7   62898   62913
       7   62889   62910       3   62883   62901       9   62883   62904       9
   62883   62907       9   62880   62898       8   62874   62889       4   62868
   62889       4   62862   62880       7   62856   62880       7   62856   62883
       9   62853   62874       4   62850   62868       4   62847   62862       4
   62844   62856       4   62841   62850       4   62841   62853       4   62838
   62844       4   62838   62847       4   62835   62838       6   62835   62841
       6   62826   62835       6   62820   62826       4   62814   62826       4
   62802   62820       4   62799   62814       4   62793   62799       4   62793
   62802       4   62790   62793       3   62790   62796       2   63681   63699
       2   63678   63696       2   63675   63693       2   63672   63690       2
   63669   63687       2   63666   63684       2   63657   63681       3   63648
   63678       3   63639   63675       3   63633   63672       3   63621   63669
       3   63612   63666       3   63606   63657       4   63600   63657       4
   63594   63648       4   63588   63648       4   63582   63639       4   63576
   63639       4   63570   63633       4   63564   63633       4   63561   63621
       4   63555   63621       4   63546   63612       4   63540   63612       4
   63537   63606       4   63534   63600       4   63531   63594       4   63528
   63588       4   63525   63582       4   63522   63576       4   63519   63570
       4   63516   63564       4   63513   63561       4   63510   63555       4
   63507   63546       4   63504   63540       4   63498   63534       4   63498
   63537       4   63495   63528       4   63495   63531       4   63489   63522
       4   63489   63525       4   63486   63516       4   63486   63519       4
   63483   63510       4   63483   63513       4   63480   63504       4   63480
   63507       4   63471   63495       6   63471   63498       6   63462   63486
       6   63462   63489       6   63459   63480       6   63459   63483       6
   63444   63474       4   63441   63471       6   63441   63474       4   63435
   63465       4   63429   63462       6   63429   63465       4   63423   63459
       6   63417   63423       4   63411   63444       7   63408   63441       4
   63405   63411       8   63405   63435       7   63402   63429       4   63399
   63423       4   63396   63417       4   63393   63414       2   63390   63408
       4   63390   63411       7   63387   63402       4   63387   63405       7
   63384   63399       4   63381   63384       7   63381   63396       7   63372
   63393       3   63366   63384       9   63366   63387       9   63366   63390
       9   63363   63381       8   63357   63372       4   63351   63372       4
   63345   63363       7   63339   63363       7   63339   63366       9   63336
   63357       4   63333   63351       4   63330   63345       4   63327   63339
       4   63324   63333       4   63324   63336       4   63321   63327       4
   63321   63330       4   63318   63321       6   63318   63324       6   63309
   63318       6   63303   63309       4   63297   63309       4   63285   63303
       4   63282   63297       4   63276   63282       4   63276   63285       4
   63273   63276       3   63273   63279       2   64164   64182       2   64161
   64179       2   64158   64176       2   64155   64173       2   64152   64170
       2   64149   64167       2   64140   64164       3   64131   64161       3
   64122   64158       3   64116   64155       3   64104   64152       3   64095
   64149       3   64089   64140       4   64083   64140       4   64077   64131
       4   64071   64131       4   64065   64122       4   64059   64122       4
   64053   64116       4   64047   64116       4   64044   64104       4   64038
   64104       4   64029   64095       4   64023   64095       4   64020   64089
       4   64017   64083       4   64014   64077       4   64011   64071       4
   64008   64065       4   64005   64059       4   64002   64053       4   63999
   64047       4   63996   64044       4   63993   64038       4   63990   64029
       4   63987   64023       4   63981   64017       4   63981   64020       4
   63978   64011       4   63978   64014       4   63972   64005       4   63972
   64008       4   63969   63999       4   63969   64002       4   63966   63993
       4   63966   63996       4   63963   63987       4   63963   63990       4
   63954   63978       6   63954   63981       6   63945   63969       6   63945
   63972       6   63942   63963       6   63942   63966       6   63927   63957
       4   63924   63954       6   63924   63957       4   63918   63948       4
   63912   63945       6   63912   63948       4   63906   63942       6   63900
   63906       4   63894   63927       7   63891   63924       4   63888   63894
       8   63888   63918       7   63885   63912       4   63882   63906       4
   63879   63900       4   63876   63897       2   63873   63891       4   63873
   63894       7   63870   63885       4   63870   63888       7   63867   63882
       4   63864   63867       7   63864   63879       7   63855   63876       3
   63849   63867       9   63849   63870       9   63849   63873       9   63846
   63864       8   63840   63855       4   63834   63855       4   63828   63846
       7   63822   63846       7   63822   63849       9   63819   63840       4
   63816   63834       4   63813   63828       4   63810   63822       4   63807
   63816       4   63807   63819       4   63804   63810       4   63804   63813
       4   63801   63804       6   63801   63807       6   63792   63801       6
   63786   63792       4   63780   63792       4   63768   63786       4   63765
   63780       4   63759   63765       4   63759   63768       4   63756   63759
       3   63756   63762       2   64647   64665       2   64644   64662       2
   64641   64659       2   64638   64656       2   64635   64653       2   64632
   64650       2   64623   64647       3   64614   64644       3   64605   64641
       3   64599   64638       3   64587   64635       3   64578   64632       3
   64572   64623       4   64566   64623       4   64560   64614       4   64554
   64614       4   64548   64605       4   64542   64605       4   64536   64599
       4   64530   64599       4   64527   64587       4   64521   64587       4
   64512   64578       4   64506   64578       4   64503   64572       4   64500
   64566       4   64497   64560       4   64494   64554       4   64491   64548
       4   64488   64542       4   64485   64536       4   64482   64530       4
   64479   64527       4   64476   64521       4   64473   64512       4   64470
   64506       4   64464   64500       4   64464   64503       4   64461   64494
       4   64461   64497       4   64455   64488       4   64455   64491       4
   64452   64482       4   64452   64485       4   64449   64476       4   64449
   64479       4   64446   64470       4   64446   64473       4   64437   64461
       6   64437   64464       6   64428   64452       6   64428   64455       6
   64425   64446       6   64425   64449       6   64410   64440       4   64407
   64437       6   64407   64440       4   64401   64431       4   64395   64428
       6   64395   64431       4   64389   64425       6   64383   64389       4
   64377   64410       7   64374   64407       4   64371   64377       8   64371
   64401       7   64368   64395       4   64365   64389       4   64362   64383
       4   64359   64380       2   64356   64374       4   64356   64377       7
   64353   64368       4   64353   64371       7   64350   64365       4   64347
   64350       7   64347   64362       7   64338   64359       3   64332   64350
       9   64332   64353       9   64332   64356       9   64329   64347       8
   64323   64338       4   64317   64338       4   64311   64329       7   64305
   64329       7   64305   64332       9   64302   64323       4   64299   64317
       4   64296   64311       4   64293   64305       4   64290   64299       4
   64290   64302       4   64287   64293       4   64287   64296       4   64284
   64287       6   64284   64290       6   64275   64284       6   64269   64275
       4   64263   64275       4   64251   64269       4   64248   64263       4
   64242   64248       4   64242   64251       4   64239   64242       3   64239
   64245       2   65130   65148       2   65127   65145       2   65124   65142
       2   65121   65139       2   65118   65136       2   65115   65133       2
   65106   65130       3   65097   65127       3   65088   65124       3   65082
   65121       3   65070   65118       3   65061   65115       3   65055   65106
       4   65049   65106       4   65043   65097       4   65037   65097       4
   65031   65088       4   65025   65088       4   65019   65082       4   65013
   65082       4   65010   65070       4   65004   65070       4   64995   65061
       4   64989   65061       4   64986   65055       4   64983   65049       4
   64980   65043       4   64977   65037       4   64974   65031       4   64971
   65025       4   64968   65019       4   64965   65013       4   64962   65010
       4   64959   65004       4   64956   64995       4   64953   64989       4
   64947   64983       4   64947   64986       4   64944   64977       4   64944
   64980       4   64938   64971       4   64938   64974       4   64935   64965
       4   64935   64968       4   64932   64959       4   64932   64962       4
   64929   64953       4   64929   64956       4   64920   64944       6   64920
   64947       6   64911   64935       6   64911   64938       6   64908   64929
       6   64908   64932       6   64893   64923       4   64890   64920       6
   64890   64923       4   64884   64914       4   64878   64911       6   64878
   64914       4   64872   64908       6   64866   64872       4   64860   64893
       7   64857   64890       4   64854   64860       8   64854   64884       7
   64851   64878       4   64848   64872       4   64845   64866       4   64842
   64863       2   64839   64857       4   64839   64860       7   64836   64851
       4   64836   64854       7   64833   64848       4   64830   64833       7
   64830   64845       7   64821   64842       3   64815   64833       9   64815
   64836       9   64815   64839       9   64812   64830       8   64806   64821
       4   64800   64821       4   64794   64812       7   64788   64812       7
   64788   64815       9   64785   64806       4   64782   64800       4   64779
   64794       4   64776   64788       4   64773   64782       4   64773   64785
       4   64770   64776       4   64770   64779       4   64767   64770       6
   64767   64773       6   64758   64767       6   64752   64758       4   64746
   64758       4   64734   64752       4   64731   64746       4   64725   64731
       4   64725   64734       4   64722   64725       3   64722   64728       2
   65613   65631       2   65610   65628       2   65607   65625       2   65604
   65622       2   65601   65619       2   65598   65616       2   65589   65613
       3   65580   65610       3   65571   65607       3   65565   65604       3
   65553   65601       3   65544   65598       3   65538   65589       4   65532
   65589       4   65526   65580       4   65520   65580       4   65514   65571
       4   65508   65571       4   65502   65565       4   65496   65565       4
   65493   65553       4   65487   65553       4   65478   65544       4   65472
   65544       4   65469   65538       4   65466   65532       4   65463   65526
       4   65460   65520       4   65457   65514       4   65454   65508       4
   65451   65502       4   65448   65496       4   65445   65493       4   65442
   65487       4   65439   65478       4   65436   65472       4   65430   65466
       4   65430   65469       4   65427   65460       4   65427   65463       4
   65421   65454       4   65421   65457       4   65418   65448       4   65418
   65451       4   65415   65442       4   65415   65445       4   65412   65436
       4   65412   65439       4   65403   65427       6   65403   65430       6
   65394   65418       6   65394   65421       6   65391   65412       6   65391
   65415       6   65376   65406       4   65373   65403       6   65373   65406
       4   65367   65397       4   65361   65394       6   65361   65397       4
   65355   65391       6   65349   65355       4   65343   65376       7   65340
   65373       4   65337   65343       8   65337   65367       7   65334   65361
       4   65331   65355       4   65328   65349       4   65325   65346       2
   65322   65340       4   65322   65343       7   65319   65334       4   65319
   65337       7   65316   65331       4   65313   65316       7   65313   65328
       7   65304   65325       3   65298   65316       9   65298   65319       9
   65298   65322       9   65295   65313       8   65289   65304       4   65283
   65304       4   65277   65295       7   65271   65295       7   65271   65298
       9   65268   65289       4   65265   65283       4   65262   65277       4
   65259   65271       4   65256   65265       4   65256   65268       4   65253
   65259       4   65253   65262       4   65250   65253       6   65250   65256
       6   65241   65250       6   65235   65241       4   65229   65241       4
   65217   65235       4   65214   65229       4   65208   65214       4   65208
   65217       4   65205   65208       3   65205   65211       2   66096   66114
       2   66093   66111       2   66090   66108       2   66087   66105       2
   66084   66102       2   66081   66099       2   66072   66096       3   66063
   66093       3   66054   66090       3   66048   66087       3   66036   66084
       3   66027   66081       3   66021   66072       4   66015   66072       4
   66009   66063       4   66003   66063       4   65997   66054       4   65991
   66054       4   65985   66048       4   65979   66048       4   65976   66036
       4   65970   66036       4   65961   66027       4   65955   66027       4
   65952   66021       4   65949   66015       4   65946   66009       4   65943
   66003       4   65940   65997       4   65937   65991       4   65934   65985
       4   65931   65979       4   65928   65976       4   65925   65970       4
   65922   65961       4   65919   65955       4   65913   65949       4   65913
   65952       4   65910   65943       4   65910   65946       4   65904   65937
       4   65904   65940       4   65901   65931       4   65901   65934       4
   65898   65925       4   65898   65928       4   65895   65919       4   65895
   65922       4   65886   65910       6   65886   65913       6   65877   65901
       6   65877   65904       6   65874   65895       6   65874   65898       6
   65859   65889       4   65856   65886       6   65856   65889       4   65850
   65880       4   65844   65877       6   65844   65880       4   65838   65874
       6   65832   65838       4   65826   65859       7   65823   65856       4
   65820   65826       8   65820   65850       7   65817   65844       4   65814
   65838       4   65811   65832       4   65808   65829       2   65805   65823
       4   65805   65826       7   65802   65817       4   65802   65820       7
   65799   65814       4   65796   65799       7   65796   65811       7   65787
   65808       3   65781   65799       9   65781   65802       9   65781   65805
       9   65778   65796       8   65772   65787       4   65766   65787       4
   65760   65778       7   65754   65778       7   65754   65781       9   65751
   65772       4   65748   65766       4   65745   65760       4   65742   65754
       4   65739   65748       4   65739   65751       4   65736   65742       4
   65736   65745       4   65733   65736       6   65733   65739       6   65724
   65733       6   65718   65724       4   65712   65724       4   65700   65718
       4   65697   65712       4   65691   65697       4   65691   65700       4
   65688   65691       3   65688   65694       2   66579   66597       2   66576
   66594       2   66573   66591       2   66570   66588       2   66567   66585
       2   66564   66582       2   66555   66579       3   66546   66576       3
   66537   66573       3   66531   66570       3   66519   66567       3   66510
   66564       3   66504   66555       4   66498   66555       4   66492   66546
       4   66486   66546       4   66480   66537       4   66474   66537       4
   66468   66531       4   66462   66531       4   66459   66519       4   66453
   66519       4   66444   66510       4   66438   66510       4   66435   66504
       4   66432   66498       4   66429   66492       4   66426   66486       4
   66423   66480       4   66420   66474       4   66417   66468       4   66414
   66462       4   66411   66459       4   66408   66453       4   66405   66444
       4   66402   66438       4   66396   66432       4   66396   66435       4
   66393   66426       4   66393   66429       4   66387   66420       4   66387
   66423       4   66384   66414       4   66384   66417       4   66381   66408
       4   66381   66411       4   66378   66402       4   66378   66405       4
   66369   66393       6   66369   66396       6   66360   66384       6   66360
   66387       6   66357   66378       6   66357   66381       6   66342   66372
       4   66339   66369       6   66339   66372       4   66333   66363       4
   66327   66360       6   66327   66363       4   66321   66357       6   66315
   66321       4   66309   66342       7   66306   66339       4   66303   66309
       8   66303   66333       7   66300   66327       4   66297   66321       4
   66294   66315       4   66291   66312       2   66288   66306       4   66288
   66309       7   66285   66300       4   66285   66303       7   66282   66297
       4   66279   66282       7   66279   66294       7   66270   66291       3
   66264   66282       9   66264   66285       9   66264   66288       9   66261
   66279       8   66255   66270       4   66249   66270       4   66243   66261
       7   66237   66261       7   66237   66264       9   66234   66255       4
   66231   66249       4   66228   66243       4   66225   66237       4   66222
   66231       4   66222   66234       4   66219   66225       4   66219   66228
       4   66216   66219       6   66216   66222       6   66207   66216       6
   66201   66207       4   66195   66207       4   66183   66201       4   66180
   66195       4   66174   66180       4   66174   66183       4   66171   66174
       3   66171   66177       2   67062   67080       2   67059   67077       2
   67056   67074       2   67053   67071       2   67050   67068       2   67047
   67065       2   67038   67062       3   67029   67059       3   67020   67056
       3   67014   67053       3   67002   67050       3   66993   67047       3
   66987   67038       4   66981   67038       4   66975   67029       4   66969
   67029       4   66963   67020       4   66957   67020       4   66951   67014
       4   66945   67014       4   66942   67002       4   66936   67002       4
   66927   66993       4   66921   66993       4   66918   66987       4   66915
   66981       4   66912   66975       4   66909   66969       4   66906   66963
       4   66903   66957       4   66900   66951       4   66897   66945       4
   66894   66942       4   66891   66936       4   66888   66927       4   66885
   66921       4   66879   66915       4   66879   66918       4   66876   66909
       4   66876   66912       4   66870   66903       4   66870   66906       4
   66867   66897       4   66867   66900       4   66864   66891       4   66864
   66894       4   66861   66885       4   66861   66888       4   66852   66876
       6   66852   66879       6   66843   66867       6   66843   66870       6
   66840   66861       6   66840   66864       6   66825   66855       4   66822
   66852       6   66822   66855       4   66816   66846       4   66810   66843
       6   66810   66846       4   66804   66840       6   66798   66804       4
   66792   66825       7   66789   66822       4   66786   66792       8   66786
   66816       7   66783   66810       4   66780   66804       4   66777   66798
       4   66774   66795       2   66771   66789       4   66771   66792       7
   66768   66783       4   66768   66786       7   66765   66780       4   66762
   66765       7   66762   66777       7   66753   66774       3   66747   66765
       9   66747   66768       9   66747   66771       9   66744   66762       8
   66738   66753       4   66732   66753       4   66726   66744       7   66720
   66744       7   66720   66747       9   66717   66738       4   66714   66732
       4   66711   66726       4   66708   66720       4   66705   66714       4
   66705   66717       4   66702   66708       4   66702   66711       4   66699
   66702       6   66699   66705       6   66690   66699       6   66684   66690
       4   66678   66690       4   66666   66684       4   66663   66678       4
   66657   66663       4   66657   66666       4   66654   66657       3   66654
   66660       2   67545   67563       2   67542   67560       2   67539   67557
       2   67536   67554       2   67533   67551       2   67530   67548       2
   67521   67545       3   67512   67542       3   67503   67539       3   67497
   67536       3   67485   67533       3   67476   67530       3   67470   67521
       4   67464   67521       4   67458   67512       4   67452   67512       4
   67446   67503       4   67440   67503       4   67434   67497       4   67428
   67497       4   67425   67485       4   67419   67485       4   67410   67476
       4   67404   67476       4   67401   67470       4   67398   67464       4
   67395   67458       4   67392   67452       4   67389   67446       4   67386
   67440       4   67383   67434       4   67380   67428       4   67377   67425
       4   67374   67419       4   67371   67410       4   67368   67404       4
   67362   67398       4   67362   67401       4   67359   67392       4   67359
   67395       4   67353   67386       4   67353   67389       4   67350   67380
       4   67350   67383       4   67347   67374       4   67347   67377       4
   67344   67368       4   67344   67371       4   67335   67359       6   67335
   67362       6   67326   67350       6   67326   67353       6   67323   67344
       6   67323   67347       6   67308   67338       4   67305   67335       6
   67305   67338       4   67299   67329       4   67293   67326       6   67293
   67329       4   67287   67323       6   67281   67287       4   67275   67308
       7   67272   67305       4   67269   67275       8   67269   67299       7
   67266   67293       4   67263   67287       4   67260   67281       4   67257
   67278       2   67254   67272       4   67254   67275       7   67251   67266
       4   67251   67269       7   67248   67263       4   67245   67248       7
   67245   67260       7   67236   67257       3   67230   67248       9   67230
   67251       9   67230   67254       9   67227   67245       8   67221   67236
       4   67215   67236       4   67209   67227       7   67203   67227       7
   67203   67230       9   67200   67221       4   67197   67215       4   67194
   67209       4   67191   67203       4   67188   67197       4   67188   67200
       4   67185   67191       4   67185   67194       4   67182   67185       6
   67182   67188       6   67173   67182       6   67167   67173       4   67161
   67173       4   67149   67167       4   67146   67161       4   67140   67146
       4   67140   67149       4   67137   67140       3   67137   67143       2
   68028   68046       2   68025   68043       2   68022   68040       2   68019
   68037       2   68016   68034       2   68013   68031       2   68004   68028
       3   67995   68025       3   67986   68022       3   67980   68019       3
   67968   68016       3   67959   68013       3   67953   68004       4   67947
   68004       4   67941   67995       4   67935   67995       4   67929   67986
       4   67923   67986       4   67917   67980       4   67911   67980       4
   67908   67968       4   67902   67968       4   67893   67959       4   67887
   67959       4   67884   67953       4   67881   67947       4   67878   67941
       4   67875   67935       4   67872   67929       4   67869   67923       4
   67866   67917       4   67863   67911       4   67860   67908       4   67857
   67902       4   67854   67893       4   67851   67887       4   67845   67881
       4   67845   67884       4   67842   67875       4   67842   67878       4
   67836   67869       4   67836   67872       4   67833   67863       4   67833
   67866       4   67830   67857       4   67830   67860       4   67827   67851
       4   67827   67854       4   67818   67842       6   67818   67845       6
   67809   67833       6   67809   67836       6   67806   67827       6   67806
   67830       6   67791   67821       4   67788   67818       6   67788   67821
       4   67782   67812       4   67776   67809       6   67776   67812       4
   67770   67806       6   67764   67770       4   67758   67791       7   67755
   67788       4   67752   67758       8   67752   67782       7   67749   67776
       4   67746   67770       4   67743   67764       4   67740   67761       2
   67737   67755       4   67737   67758       7   67734   67749       4   67734
   67752       7   67731   67746       4   67728   67731       7   67728   67743
       7   67719   67740       3   67713   67731       9   67713   67734       9
   67713   67737       9   67710   67728       8   67704   67719       4   67698
   67719       4   67692   67710       7   67686   67710       7   67686   67713
       9   67683   67704       4   67680   67698       4   67677   67692       4
   67674   67686       4   67671   67680       4   67671   67683       4   67668
   67674       4   67668   67677       4   67665   67668       6   67665   67671
       6   67656   67665       6   67650   67656       4   67644   67656       4
   67632   67650       4   67629   67644       4   67623   67629       4   67623
   67632       4   67620   67623       3   67620   67626       2   68511   68529
       2   68508   68526       2   68505   68523       2   68502   68520       2
   68499   68517       2   68496   68514       2   68487   68511       3   68478
   68508       3   68469   68505       3   68463   68502       3   68451   68499
       3   68442   68496       3   68436   68487       4   68430   68487       4
   68424   68478       4   68418   68478       4   68412   68469       4   68406
   68469       4   68400   68463       4   68394   68463       4   68391   68451
       4   68385   68451       4   68376   68442       4   68370   68442       4
   68367   68436       4   68364   68430       4   68361   68424       4   68358
   68418       4   68355   68412       4   68352   68406       4   68349   68400
       4   68346   68394       4   68343   68391       4   68340   68385       4
   68337   68376       4   68334   68370       4   68328   68364       4   68328
   68367       4   68325   68358       4   68325   68361       4   68319   68352
       4   68319   68355       4   68316   68346       4   68316   68349       4
   68313   68340       4   68313   68343       4   68310   68334       4   68310
   68337       4   68301   68325       6   68301   68328       6   68292   68316
       6   68292   68319       6   68289   68310       6   68289   68313       6
   68274   68304       4   68271   68301       6   68271   68304       4   68265
   68295       4   68259   68292       6   68259   68295       4   68253   68289
       6   68247   68253       4   68241   68274       7   68238   68271       4
   68235   68241       8   68235   68265       7   68232   68259       4   68229
   68253       4   68226   68247       4   68223   68244       2   68220   68238
       4   68220   68241       7   68217   68232       4   68217   68235       7
   68214   68229       4   68211   68214       7   68211   68226       7   68202
   68223       3   68196   68214       9   68196   68217       9   68196   68220
       9   68193   68211       8   68187   68202       4   68181   68202       4
   68175   68193       7   68169   68193       7   68169   68196       9   68166
   68187       4   68163   68181       4   68160   68175       4   68157   68169
       4   68154   68163       4   68154   68166       4   68151   68157       4
   68151   68160       4   68148   68151       6   68148   68154       6   68139
   68148       6   68133   68139       4   68127   68139       4   68115   68133
       4   68112   68127       4   68106   68112       4   68106   68115       4
   68103   68106       3   68103   68109       2   68994   69012       2   68991
   69009       2   68988   69006       2   68985   69003       2   68982   69000
       2   68979   68997       2   68970   68994       3   68961   68991       3
   68952   68988       3   68946   68985       3   68934   68982       3   68925
   68979       3   68919   68970       4   68913   68970       4   68907   68961
       4   68901   68961       4   68895   68952       4   68889   68952       4
   68883   68946       4   68877   68946       4   68874   68934       4   68868
   68934       4   68859   68925       4   68853   68925       4   68850   68919
       4   68847   68913       4   68844   68907       4   68841   68901       4
   68838   68895       4   68835   68889       4   68832   68883       4   68829
   68877       4   68826   68874       4   68823   68868       4   68820   68859
       4   68817   68853       4   68811   68847       4   68811   68850       4
   68808   68841       4   68808   68844       4   68802   68835       4   68802
   68838       4   68799   68829       4   68799   68832       4   68796   68823
       4   68796   68826       4   68793   68817       4   68793   68820       4
   68784   68808       6   68784   68811       6   68775   68799       6   68775
   68802       6   68772   68793       6   68772   68796       6   68757   68787
       4   68754   68784       6   68754   68787       4   68748   68778       4
   68742   68775       6   68742   68778       4   68736   68772       6   68730
   68736       4   68724   68757       7   68721   68754       4   68718   68724
       8   68718   68748       7   68715   68742       4   68712   68736       4
   68709   68730       4   68706   68727       2   68703   68721       4   68703
   68724       7   68700   68715       4   68700   68718       7   68697   68712
       4   68694   68697       7   68694   68709       7   68685   68706       3
   68679   68697       9   68679   68700       9   68679   68703       9   68676
   68694       8   68670   68685       4   68664   68685       4   68658   68676
       7   68652   68676       7   68652   68679       9   68649   68670       4
   68646   68664       4   68643   68658       4   68640   68652       4   68637
   68646       4   68637   68649       4   68634   68640       4   68634   68643
       4   68631   68634       6   68631   68637       6   68622   68631       6
   68616   68622       4   68610   68622       4   68598   68616       4   68595
   68610       4   68589   68595       4   68589   68598       4   68586   68589
       3   68586   68592       2   69477   69495       2   69474   69492       2
   69471   69489       2   69468   69486       2   69465   69483       2   69462
   69480       2   69453   69477       3   69444   69474       3   69435   69471
       3   69429   69468       3   69417   69465       3   69408   69462       3
   69402   69453       4   69396   69453       4   69390   69444       4   69384
   69444       4   69378   69435       4   69372   69435       4   69366   69429
       4   69360   69429       4   69357   69417       4   69351   69417       4
   69342   69408       4   69336   69408       4   69333   69402       4   69330
   69396       4   69327   69390       4   69324   69384       4   69321   69378
       4   69318   69372       4   69315   69366       4   69312   69360       4
   69309   69357       4   69306   69351       4   69303   69342       4   69300
   69336       4   69294   69330       4   69294   69333       4   69291   69324
       4   69291   69327       4   69285   69318       4   69285   69321       4
   69282   69312       4   69282   69315       4   69279   69306       4   69279
   69309       4   69276   69300       4   69276   69303       4   69267   69291
       6   69267   69294       6   69258   69282       6   69258   69285       6
   69255   69276       6   69255   69279       6   69240   69270       4   69237
   69267       6   69237   69270       4   69231   69261       4   69225   69258
       6   69225   69261       4   69219   69255       6   69213   69219       4
   69207   69240       7   69204   69237       4   69201   69207       8   69201
   69231       7   69198   69225       4   69195   69219       4   69192   69213
       4   69189   69210       2   69186   69204       4   69186   69207       7
   69183   69198       4   69183   69201       7   69180   69195       4   69177
   69180       7   69177   69192       7   69168   69189       3   69162   69180
       9   69162   69183       9   69162   69186       9   69159   69177       8
   69153   69168       4   69147   69168       4   69141   69159       7   69135
   69159       7   69135   69162       9   69132   69153       4   69129   69147
       4   69126   69141       4   69123   69135       4   69120   69129       4
   69120   69132       4   69117   69123       4   69117   69126       4   69114
   69117       6   69114   69120       6   69105   69114       6   69099   69105
       4   69093   69105       4   69081   69099       4   69078   69093       4
   69072   69078       4   69072   69081       4   69069   69072       3   69069
   69075       2   69960   69978       2   69957   69975       2   69954   69972
       2   69951   69969       2   69948   69966       2   69945   69963       2
   69936   69960       3   69927   69957       3   69918   69954       3   69912
   69951       3   69900   69948       3   69891   69945       3   69885   69936
       4   69879   69936       4   69873   69927       4   69867   69927       4
   69861   69918       4   69855   69918       4   69849   69912       4   69843
   69912       4   69840   69900       4   69834   69900       4   69825   69891
       4   69819   69891       4   69816   69885       4   69813   69879       4
   69810   69873       4   69807   69867       4   69804   69861       4   69801
   69855       4   69798   69849       4   69795   69843       4   69792   69840
       4   69789   69834       4   69786   69825       4   69783   69819       4
   69777   69813       4   69777   69816       4   69774   69807       4   69774
   69810       4   69768   69801       4   69768   69804       4   69765   69795
       4   69765   69798       4   69762   69789       4   69762   69792       4
   69759   69783       4   69759   69786       4   69750   69774       6   69750
   69777       6   69741   69765       6   69741   69768       6   69738   69759
       6   69738   69762       6   69723   69753       4   69720   69750       6
   69720   69753       4   69714   69744       4   69708   69741       6   69708
   69744       4   69702   69738       6   69696   69702       4   69690   69723
       7   69687   69720       4   69684   69690       8   69684   69714       7
   69681   69708       4   69678   69702       4   69675   69696       4   69672
   69693       2   69669   69687       4   69669   69690       7   69666   69681
       4   69666   69684       7   69663   69678       4   69660   69663       7
   69660   69675       7   69651   69672       3   69645   69663       9   69645
   69666       9   69645   69669       9   69642   69660       8   69636   69651
       4   69630   69651       4   69624   69642       7   69618   69642       7
   69618   69645       9   69615   69636       4   69612   69630       4   69609
   69624       4   69606   69618       4   69603   69612       4   69603   69615
       4   69600   69606       4   69600   69609       4   69597   69600       6
   69597   69603       6   69588   69597       6   69582   69588       4   69576
   69588       4   69564   69582       4   69561   69576       4   69555   69561
       4   69555   69564       4   69552   69555       3   69552   69558       2
   70443   70461       2   70440   70458       2   70437   70455       2   70434
   70452       2   70431   70449       2   70428   70446       2   70419   70443
       3   70410   70440       3   70401   70437       3   70395   70434       3
   70383   70431       3   70374   70428       3   70368   70419       4   70362
   70419       4   70356   70410       4   70350   70410       4   70344   70401
       4   70338   70401       4   70332   70395       4   70326   70395       4
   70323   70383       4   70317   70383       4   70308   70374       4   70302
   70374       4   70299   70368       4   70296   70362       4   70293   70356
       4   70290   70350       4   70287   70344       4   70284   70338       4
   70281   70332       4   70278   70326       4   70275   70323       4   70272
   70317       4   70269   70308       4   70266   70302       4   70260   70296
       4   70260   70299       4   70257   70290       4   70257   70293       4
   70251   70284       4   70251   70287       4   70248   70278       4   70248
   70281       4   70245   70272       4   70245   70275       4   70242   70266
       4   70242   70269       4   70233   70257       6   70233   70260       6
   70224   70248       6   70224   70251       6   70221   70242       6   70221
   70245       6   70206   70236       4   70203   70233       6   70203   70236
       4   70197   70227       4   70191   70224       6   70191   70227       4
   70185   70221       6   70179   70185       4   70173   70206       7   70170
   70203       4   70167   70173       8   70167   70197       7   70164   70191
       4   70161   70185       4   70158   70179       4   70155   70176       2
   70152   70170       4   70152   70173       7   70149   70164       4   70149
   70167       7   70146   70161       4   70143   70146       7   70143   70158
       7   70134   70155       3   70128   70146       9   70128   70149       9
   70128   70152       9   70125   70143       8   70119   70134       4   70113
   70134       4   70107   70125       7   70101   70125       7   70101   70128
       9   70098   70119       4   70095   70113       4   70092   70107       4
   70089   70101       4   70086   70095       4   70086   70098       4   70083
   70089       4   70083   70092       4   70080   70083       6   70080   70086
       6   70071   70080       6   70065   70071       4   70059   70071       4
   70047   70065       4   70044   70059       4   70038   70044       4   70038
   70047       4   70035   70038       3   70035   70041       2   70926   70944
       2   70923   70941       2   70920   70938       2   70917   70935       2
   70914   70932       2   70911   70929       2   70902   70926       3   70893
   70923       3   70884   70920       3   70878   70917       3   70866   70914
       3   70857   70911       3   70851   70902       4   70845   70902       4
   70839   70893       4   70833   70893       4   70827   70884       4   70821
   70884       4   70815   70878       4   70809   70878       4   70806   70866
       4   70800   70866       4   70791   70857       4   70785   70857       4
   70782   70851       4   70779   70845       4   70776   70839       4   70773
   70833       4   70770   70827       4   70767   70821       4   70764   70815
       4   70761   70809       4   70758   70806       4   70755   70800       4
   70752   70791       4   70749   70785       4   70743   70779       4   70743
   70782       4   70740   70773       4   70740   70776       4   70734   70767
       4   70734   70770       4   70731   70761       4   70731   70764       4
   70728   70755       4   70728   70758       4   70725   70749       4   70725
   70752       4   70716   70740       6   70716   70743       6   70707   70731
       6   70707   70734       6   70704   70725       6   70704   70728       6
   70689   70719       4   70686   70716       6   70686   70719       4   70680
   70710       4   70674   70707       6   70674   70710       4   70668   70704
       6   70662   70668       4   70656   70689       7   70653   70686       4
   70650   70656       8   70650   70680       7   70647   70674       4   70644
   70668       4   70641   70662       4   70638   70659       2   70635   70653
       4   70635   70656       7   70632   70647       4   70632   70650       7
   70629   70644       4   70626   70629       7   70626   70641       7   70617
   70638       3   70611   70629       9   70611   70632       9   70611   70635
       9   70608   70626       8   70602   70617       4   70596   70617       4
   70590   70608       7   70584   70608       7   70584   70611       9   70581
   70602       4   70578   70596       4   70575   70590       4   70572   70584
       4   70569   70578       4   70569   70581       4   70566   70572       4
   70566   70575       4   70563   70566       6   70563   70569       6   70554
   70563       6   70548   70554       4   70542   70554       4   70530   70548
       4   70527   70542       4   70521   70527       4   70521   70530       4
   70518   70521       3   70518   70524       2   71409   71427       2   71406
   71424       2   71403   71421       2   71400   71418       2   71397   71415
       2   71394   71412       2   71385   71409       3   71376   71406       3
   71367   71403       3   71361   71400       3   71349   71397       3   71340
   71394       3   71334   71385       4   71328   71385       4   71322   71376
       4   71316   71376       4   71310   71367       4   71304   71367       4
   71298   71361       4   71292   71361       4   71289   71349       4   71283
   71349       4   71274   71340       4   71268   71340       4   71265   71334
       4   71262   71328       4   71259   71322       4   71256   71316       4
   71253   71310       4   71250   71304       4   71247   71298       4   71244
   71292       4   71241   71289       4   71238   71283       4   71235   71274
       4   71232   71268       4   71226   71262       4   71226   71265       4
   71223   71256       4   71223   71259       4   71217   71250       4   71217
   71253       4   71214   71244       4   71214   71247       4   71211   71238
       4   71211   71241       4   71208   71232       4   71208   71235       4
   71199   71223       6   71199   71226       6   71190   71214       6   71190
   71217       6   71187   71208       6   71187   71211       6   71172   71202
       4   71169   71199       6   71169   71202       4   71163   71193       4
   71157   71190       6   71157   71193       4   71151   71187       6   71145
   71151       4   71139   71172       7   71136   71169       4   71133   71139
       8   71133   71163       7   71130   71157       4   71127   71151       4
   71124   71145       4   71121   71142       2   71118   71136       4   71118
   71139       7   71115   71130       4   71115   71133       7   71112   71127
       4   71109   71112       7   71109   71124       7   71100   71121       3
   71094   71112       9   71094   71115       9   71094   71118       9   71091
   71109       8   71085   71100       4   71079   71100       4   71073   71091
       7   71067   71091       7   71067   71094       9   71064   71085       4
   71061   71079       4   71058   71073       4   71055   71067       4   71052
   71061       4   71052   71064       4   71049   71055       4   71049   71058
       4   71046   71049       6   71046   71052       6   71037   71046       6
   71031   71037       4   71025   71037       4   71013   71031       4   71010
   71025       4   71004   71010       4   71004   71013       4   71001   71004
       3   71001   71007       2   71892   71910       2   71889   71907       2
   71886   71904       2   71883   71901       2   71880   71898       2   71877
   71895       2   71868   71892       3   71859   71889       3   71850   71886
       3   71844   71883       3   71832   71880       3   71823   71877       3
   71817   71868       4   71811   71868       4   71805   71859       4   71799
   71859       4   71793   71850       4   71787   71850       4   71781   71844
       4   71775   71844       4   71772   71832       4   71766   71832       4
   71757   71823       4   71751   71823       4   71748   71817       4   71745
   71811       4   71742   71805       4   71739   71799       4   71736   71793
       4   71733   71787       4   71730   71781       4   71727   71775       4
   71724   71772       4   71721   71766       4   71718   71757       4   71715
   71751       4   71709   71745       4   71709   71748       4   71706   71739
       4   71706   71742       4   71700   71733       4   71700   71736       4
   71697   71727       4   71697   71730       4   71694   71721       4   71694
   71724       4   71691   71715       4   71691   71718       4   71682   71706
       6   71682   71709       6   71673   71697       6   71673   71700       6
   71670   71691       6   71670   71694       6   71655   71685       4   71652
   71682       6   71652   71685       4   71646   71676       4   71640   71673
       6   71640   71676       4   71634   71670       6   71628   71634       4
   71622   71655       7   71619   71652       4   71616   71622       8   71616
   71646       7   71613   71640       4   71610   71634       4   71607   71628
       4   71604   71625       2   71601   71619       4   71601   71622       7
   71598   71613       4   71598   71616       7   71595   71610       4   71592
   71595       7   71592   71607       7   71583   71604       3   71577   71595
       9   71577   71598       9   71577   71601       9   71574   71592       8
   71568   71583       4   71562   71583       4   71556   71574       7   71550
   71574       7   71550   71577       9   71547   71568       4   71544   71562
       4   71541   71556       4   71538   71550       4   71535   71544       4
   71535   71547       4   71532   71538       4   71532   71541       4   71529
   71532       6   71529   71535       6   71520   71529       6   71514   71520
       4   71508   71520       4   71496   71514       4   71493   71508       4
   71487   71493       4   71487   71496       4   71484   71487       3   71484
   71490       2   72375   72393       2   72372   72390       2   72369   72387
       2   72366   72384       2   72363   72381       2   72360   72378       2
   72351   72375       3   72342   72372       3   72333   72369       3   72327
   72366       3   72315   72363       3   72306   72360       3   72300   72351
       4   72294   72351       4   72288   72342       4   72282   72342       4
   72276   72333       4   72270   72333       4   72264   72327       4   72258
   72327       4   72255   72315       4   72249   72315       4   72240   72306
       4   72234   72306       4   72231   72300       4   72228   72294       4
   72225   72288       4   72222   72282       4   72219   72276       4   72216
   72270       4   72213   72264       4   72210   72258       4   72207   72255
       4   72204   72249       4   72201   72240       4   72198   72234       4
   72192   72228       4   72192   72231       4   72189   72222       4   72189
   72225       4   72183   72216       4   72183   72219       4   72180   72210
       4   72180   72213       4   72177   72204       4   72177   72207       4
   72174   72198       4   72174   72201       4   72165   72189       6   72165
   72192       6   72156   72180       6   72156   72183       6   72153   72174
       6   72153   72177       6   72138   72168       4   72135   72165       6
   72135   72168       4   72129   72159       4   72123   72156       6   72123
   72159       4   72117   72153       6   72111   72117       4   72105   72138
       7   72102   72135       4   72099   72105       8   72099   72129       7
   72096   72123       4   72093   72117       4   72090   72111       4   72087
   72108       2   72084   72102       4   72084   72105       7   72081   72096
       4   72081   72099       7   72078   72093       4   72075   72078       7
   72075   72090       7   72066   72087       3   72060   72078       9   72060
   72081       9   72060   72084       9   72057   72075       8   72051   72066
       4   72045   72066       4   72039   72057       7   72033   72057       7
   72033   72060       9   72030   72051       4   72027   72045       4   72024
   72039       4   72021   72033       4   72018   72027       4   72018   72030
       4   72015   72021       4   72015   72024       4   72012   72015       6
   72012   72018       6   72003   72012       6   71997   72003       4   71991
   72003       4   71979   71997       4   71976   71991       4   71970   71976
       4   71970   71979       4   71967   71970       3   71967   71973       2
%FLAG ANGLES_INC_HYDROGEN                                                       
%FORMAT(10I8)                                                                   
     477     426     480       1     474     426     477       1     474     426
     480       1     468     423     471       1     465     423     468       1
     465     423     471       1     459     420     462       1     456     420
     459       1     456     420     462       1     450     417     453       1
     447     417     450       1     447     417     453       1     441     414
     444       1     438     414     441       1     438     414     444       1
     432     411     435       1     429     411     432       1     429     411
     435       1     408     426     474       2     408     426     477       2
     408     426     480       2     405     423     465       2     405     423
     468       2     405     423     471       2     402     420     456       2
     402     420     459       2     402     420     462       2     399     417
     447       2     399     417     450       2     399     417     453       2
     396     414     438       2     396     414     441       2     396     414
     444       2     393     411     429       2     393     411     432       2
     393     411     435       2     384     327     387       3     384     333
     390       3     375     315     378       3     375     321     381       3
     366     303     369       3     366     309     372       3     360     297
     363       3     357     291     360       3     348     282     351       3
     348     288     354       3     339     267     342       3     339     273
     345       3     333     264     336       3     327     261     330       3
     321     258     324       3     315     255     318       3     309     252
     312       3     303     249     306       3     297     246     300       3
     291     243     294       3     285     240     288       3     279     237
     282       3     273     234     276       3     267     231     270       3
     264     333     390       3     261     327     387       3     258     321
     381       3     255     315     378       3     252     309     372       3
     249     303     369       3     246     297     363       3     243     291
     357       3     240     288     354       3     237     282     351       3
     234     273     345       3     231     267     342       3     225     261
     330       3     225     264     336       3     222     255     318       3
     222     258     324       3     216     249     306       3     216     252
     312       3     213     243     294       3     213     246     300       3
     210     237     279       3     210     240     285       3     207     231
     270       3     207     234     276       3     201     171     204       3
     192     162     195       3     177     141     180       1     174     141
     177       1     174     141     180       1     171     201     228       3
     168     201     228       3     165     135     168       3     162     192
     219       3     156     129     159       3     156     192     219       3
     150     126     153       3     150     144     183       3     144     123
     147       3     138     171     204      11     132     162     195      11
     123     144     183       3     120     141     174       2     120     141
     177       2     120     141     180       2     117     135     165       3
     114     129     159       3     111     126     153       3     108     123
     147      11      99      78     102       3      99      84     105       3
      90      72      96      11      84      63      87       3      78      60
      81       3      72      57      75       3      66      54      69       3
      63      84     105       3      60      78     102       3      57      72
      96       3      51      60      81       3      51      63      87       3
      48      54      69       3      48      57      75       3      36      24
      39       3      36      30      42       3      30      12      33       3
      24       9      27       3      18       6      21       1      15       6
      18       1      15       6      21       1      12      30      42       3
       9      24      39       3       3       9      27       3       3      12
      33       3       0       6      15       2       0       6      18       2
       0       6      21       2     960     909     963       1     957     909
     960       1     957     909     963       1     951     906     954       1
     948     906     951       1     948     906     954       1     942     903
     945       1     939     903     942       1     939     903     945       1
     933     900     936       1     930     900     933       1     930     900
     936       1     924     897     927       1     921     897     924       1
     921     897     927       1     915     894     918       1     912     894
     915       1     912     894     918       1     891     909     957       2
     891     909     960       2     891     909     963       2     888     906
     948       2     888     906     951       2     888     906     954       2
     885     903     939       2     885     903     942       2     885     903
     945       2     882     900     930       2     882     900     933       2
     882     900     936       2     879     897     921       2     879     897
     924       2     879     897     927       2     876     894     912       2
     876     894     915       2     876     894     918       2     867     810
     870       3     867     816     873       3     858     798     861       3
     858     804     864       3     849     786     852       3     849     792
     855       3     843     780     846       3     840     774     843       3
     831     765     834       3     831     771     837       3     822     750
     825       3     822     756     828       3     816     747     819       3
     810     744     813       3     804     741     807       3     798     738
     801       3     792     735     795       3     786     732     789       3
     780     729     783       3     774     726     777       3     768     723
     771       3     762     720     765       3     756     717     759       3
     750     714     753       3     747     816     873       3     744     810
     870       3     741     804     864       3     738     798     861       3
     735     792     855       3     732     786     852       3     729     780
     846       3     726     774     840       3     723     771     837       3
     720     765     834       3     717     756     828       3     714     750
     825       3     708     744     813       3     708     747     819       3
     705     738     801       3     705     741     807       3     699     732
     789       3     699     735     795       3     696     726     777       3
     696     729     783       3     693     720     762       3     693     723
     768       3     690     714     753       3     690     717     759       3
     684     654     687       3     675     645     678       3     660     624
     663       1     657     624     660       1     657     624     663       1
     654     684     711       3     651     684     711       3     648     618
     651       3     645     675     702       3     639     612     642       3
     639     675     702       3     633     609     636       3     633     627
     666       3     627     606     630       3     621     654     687      11
     615     645     678      11     606     627     666       3     603     624
     657       2     603     624     660       2     603     624     663       2
     600     618     648       3     597     612     642       3     594     609
     636       3     591     606     630      11     582     561     585       3
     582     567     588       3     573     555     579      11     567     546
     570       3     561     543     564       3     555     540     558       3
     549     537     552       3     546     567     588       3     543     561
     585       3     540     555     579       3     534     543     564       3
     534     546     570       3     531     537     552       3     531     540
     558       3     519     507     522       3     519     513     525       3
     513     495     516       3     507     492     510       3     501     489
     504       1     498     489     501       1     498     489     504       1
     495     513     525       3     492     507     522       3     486     492
     510       3     486     495     516       3     483     489     498       2
     483     489     501       2     483     489     504       2    1443    1392
    1446       1    1440    1392    1443       1    1440    1392    1446       1
    1434    1389    1437       1    1431    1389    1434       1    1431    1389
    1437       1    1425    1386    1428       1    1422    1386    1425       1
    1422    1386    1428       1    1416    1383    1419       1    1413    1383
    1416       1    1413    1383    1419       1    1407    1380    1410       1
    1404    1380    1407       1    1404    1380    1410       1    1398    1377
    1401       1    1395    1377    1398       1    1395    1377    1401       1
    1374    1392    1440       2    1374    1392    1443       2    1374    1392
    1446       2    1371    1389    1431       2    1371    1389    1434       2
    1371    1389    1437       2    1368    1386    1422       2    1368    1386
    1425       2    1368    1386    1428       2    1365    1383    1413       2
    1365    1383    1416       2    1365    1383    1419       2    1362    1380
    1404       2    1362    1380    1407       2    1362    1380    1410       2
    1359    1377    1395       2    1359    1377    1398       2    1359    1377
    1401       2    1350    1293    1353       3    1350    1299    1356       3
    1341    1281    1344       3    1341    1287    1347       3    1332    1269
    1335       3    1332    1275    1338       3    1326    1263    1329       3
    1323    1257    1326       3    1314    1248    1317       3    1314    1254
    1320       3    1305    1233    1308       3    1305    1239    1311       3
    1299    1230    1302       3    1293    1227    1296       3    1287    1224
    1290       3    1281    1221    1284       3    1275    1218    1278       3
    1269    1215    1272       3    1263    1212    1266       3    1257    1209
    1260       3    1251    1206    1254       3    1245    1203    1248       3
    1239    1200    1242       3    1233    1197    1236       3    1230    1299
    1356       3    1227    1293    1353       3    1224    1287    1347       3
    1221    1281    1344       3    1218    1275    1338       3    1215    1269
    1335       3    1212    1263    1329       3    1209    1257    1323       3
    1206    1254    1320       3    1203    1248    1317       3    1200    1239
    1311       3    1197    1233    1308       3    1191    1227    1296       3
    1191    1230    1302       3    1188    1221    1284       3    1188    1224
    1290       3    1182    1215    1272       3    1182    1218    1278       3
    1179    1209    1260       3    1179    1212    1266       3    1176    1203
    1245       3    1176    1206    1251       3    1173    1197    1236       3
    1173    1200    1242       3    1167    1137    1170       3    1158    1128
    1161       3    1143    1107    1146       1    1140    1107    1143       1
    1140    1107    1146       1    1137    1167    1194       3    1134    1167
    1194       3    1131    1101    1134       3    1128    1158    1185       3
    1122    1095    1125       3    1122    1158    1185       3    1116    1092
    1119       3    1116    1110    1149       3    1110    1089    1113       3
    1104    1137    1170      11    1098    1128    1161      11    1089    1110
    1149       3    1086    1107    1140       2    1086    1107    1143       2
    1086    1107    1146       2    1083    1101    1131       3    1080    1095
    1125       3    1077    1092    1119       3    1074    1089    1113      11
    1065    1044    1068       3    1065    1050    1071       3    1056    1038
    1062      11    1050    1029    1053       3    1044    1026    1047       3
    1038    1023    1041       3    1032    1020    1035       3    1029    1050
    1071       3    1026    1044    1068       3    1023    1038    1062       3
    1017    1026    1047       3    1017    1029    1053       3    1014    1020
    1035       3    1014    1023    1041       3    1002     990    1005       3
    1002     996    1008       3     996     978     999       3     990     975
     993       3     984     972     987       1     981     972     984       1
     981     972     987       1     978     996    1008       3     975     990
    1005       3     969     975     993       3     969     978     999       3
     966     972     981       2     966     972     984       2     966     972
     987       2    1926    1875    1929       1    1923    1875    1926       1
    1923    1875    1929       1    1917    1872    1920       1    1914    1872
    1917       1    1914    1872    1920       1    1908    1869    1911       1
    1905    1869    1908       1    1905    1869    1911       1    1899    1866
    1902       1    1896    1866    1899       1    1896    1866    1902       1
    1890    1863    1893       1    1887    1863    1890       1    1887    1863
    1893       1    1881    1860    1884       1    1878    1860    1881       1
    1878    1860    1884       1    1857    1875    1923       2    1857    1875
    1926       2    1857    1875    1929       2    1854    1872    1914       2
    1854    1872    1917       2    1854    1872    1920       2    1851    1869
    1905       2    1851    1869    1908       2    1851    1869    1911       2
    1848    1866    1896       2    1848    1866    1899       2    1848    1866
    1902       2    1845    1863    1887       2    1845    1863    1890       2
    1845    1863    1893       2    1842    1860    1878       2    1842    1860
    1881       2    1842    1860    1884       2    1833    1776    1836       3
    1833    1782    1839       3    1824    1764    1827       3    1824    1770
    1830       3    1815    1752    1818       3    1815    1758    1821       3
    1809    1746    1812       3    1806    1740    1809       3    1797    1731
    1800       3    1797    1737    1803       3    1788    1716    1791       3
    1788    1722    1794       3    1782    1713    1785       3    1776    1710
    1779       3    1770    1707    1773       3    1764    1704    1767       3
    1758    1701    1761       3    1752    1698    1755       3    1746    1695
    1749       3    1740    1692    1743       3    1734    1689    1737       3
    1728    1686    1731       3    1722    1683    1725       3    1716    1680
    1719       3    1713    1782    1839       3    1710    1776    1836       3
    1707    1770    1830       3    1704    1764    1827       3    1701    1758
    1821       3    1698    1752    1818       3    1695    1746    1812       3
    1692    1740    1806       3    1689    1737    1803       3    1686    1731
    1800       3    1683    1722    1794       3    1680    1716    1791       3
    1674    1710    1779       3    1674    1713    1785       3    1671    1704
    1767       3    1671    1707    1773       3    1665    1698    1755       3
    1665    1701    1761       3    1662    1692    1743       3    1662    1695
    1749       3    1659    1686    1728       3    1659    1689    1734       3
    1656    1680    1719       3    1656    1683    1725       3    1650    1620
    1653       3    1641    1611    1644       3    1626    1590    1629       1
    1623    1590    1626       1    1623    1590    1629       1    1620    1650
    1677       3    1617    1650    1677       3    1614    1584    1617       3
    1611    1641    1668       3    1605    1578    1608       3    1605    1641
    1668       3    1599    1575    1602       3    1599    1593    1632       3
    1593    1572    1596       3    1587    1620    1653      11    1581    1611
    1644      11    1572    1593    1632       3    1569    1590    1623       2
    1569    1590    1626       2    1569    1590    1629       2    1566    1584
    1614       3    1563    1578    1608       3    1560    1575    1602       3
    1557    1572    1596      11    1548    1527    1551       3    1548    1533
    1554       3    1539    1521    1545      11    1533    1512    1536       3
    1527    1509    1530       3    1521    1506    1524       3    1515    1503
    1518       3    1512    1533    1554       3    1509    1527    1551       3
    1506    1521    1545       3    1500    1509    1530       3    1500    1512
    1536       3    1497    1503    1518       3    1497    1506    1524       3
    1485    1473    1488       3    1485    1479    1491       3    1479    1461
    1482       3    1473    1458    1476       3    1467    1455    1470       1
    1464    1455    1467       1    1464    1455    1470       1    1461    1479
    1491       3    1458    1473    1488       3    1452    1458    1476       3
    1452    1461    1482       3    1449    1455    1464       2    1449    1455
    1467       2    1449    1455    1470       2    2409    2358    2412       1
    2406    2358    2409       1    2406    2358    2412       1    2400    2355
    2403       1    2397    2355    2400       1    2397    2355    2403       1
    2391    2352    2394       1    2388    2352    2391       1    2388    2352
    2394       1    2382    2349    2385       1    2379    2349    2382       1
    2379    2349    2385       1    2373    2346    2376       1    2370    2346
    2373       1    2370    2346    2376       1    2364    2343    2367       1
    2361    2343    2364       1    2361    2343    2367       1    2340    2358
    2406       2    2340    2358    2409       2    2340    2358    2412       2
    2337    2355    2397       2    2337    2355    2400       2    2337    2355
    2403       2    2334    2352    2388       2    2334    2352    2391       2
    2334    2352    2394       2    2331    2349    2379       2    2331    2349
    2382       2    2331    2349    2385       2    2328    2346    2370       2
    2328    2346    2373       2    2328    2346    2376       2    2325    2343
    2361       2    2325    2343    2364       2    2325    2343    2367       2
    2316    2259    2319       3    2316    2265    2322       3    2307    2247
    2310       3    2307    2253    2313       3    2298    2235    2301       3
    2298    2241    2304       3    2292    2229    2295       3    2289    2223
    2292       3    2280    2214    2283       3    2280    2220    2286       3
    2271    2199    2274       3    2271    2205    2277       3    2265    2196
    2268       3    2259    2193    2262       3    2253    2190    2256       3
    2247    2187    2250       3    2241    2184    2244       3    2235    2181
    2238       3    2229    2178    2232       3    2223    2175    2226       3
    2217    2172    2220       3    2211    2169    2214       3    2205    2166
    2208       3    2199    2163    2202       3    2196    2265    2322       3
    2193    2259    2319       3    2190    2253    2313       3    2187    2247
    2310       3    2184    2241    2304       3    2181    2235    2301       3
    2178    2229    2295       3    2175    2223    2289       3    2172    2220
    2286       3    2169    2214    2283       3    2166    2205    2277       3
    2163    2199    2274       3    2157    2193    2262       3    2157    2196
    2268       3    2154    2187    2250       3    2154    2190    2256       3
    2148    2181    2238       3    2148    2184    2244       3    2145    2175
    2226       3    2145    2178    2232       3    2142    2169    2211       3
    2142    2172    2217       3    2139    2163    2202       3    2139    2166
    2208       3    2133    2103    2136       3    2124    2094    2127       3
    2109    2073    2112       1    2106    2073    2109       1    2106    2073
    2112       1    2103    2133    2160       3    2100    2133    2160       3
    2097    2067    2100       3    2094    2124    2151       3    2088    2061
    2091       3    2088    2124    2151       3    2082    2058    2085       3
    2082    2076    2115       3    2076    2055    2079       3    2070    2103
    2136      11    2064    2094    2127      11    2055    2076    2115       3
    2052    2073    2106       2    2052    2073    2109       2    2052    2073
    2112       2    2049    2067    2097       3    2046    2061    2091       3
    2043    2058    2085       3    2040    2055    2079      11    2031    2010
    2034       3    2031    2016    2037       3    2022    2004    2028      11
    2016    1995    2019       3    2010    1992    2013       3    2004    1989
    2007       3    1998    1986    2001       3    1995    2016    2037       3
    1992    2010    2034       3    1989    2004    2028       3    1983    1992
    2013       3    1983    1995    2019       3    1980    1986    2001       3
    1980    1989    2007       3    1968    1956    1971       3    1968    1962
    1974       3    1962    1944    1965       3    1956    1941    1959       3
    1950    1938    1953       1    1947    1938    1950       1    1947    1938
    1953       1    1944    1962    1974       3    1941    1956    1971       3
    1935    1941    1959       3    1935    1944    1965       3    1932    1938
    1947       2    1932    1938    1950       2    1932    1938    1953       2
    2892    2841    2895       1    2889    2841    2892       1    2889    2841
    2895       1    2883    2838    2886       1    2880    2838    2883       1
    2880    2838    2886       1    2874    2835    2877       1    2871    2835
    2874       1    2871    2835    2877       1    2865    2832    2868       1
    2862    2832    2865       1    2862    2832    2868       1    2856    2829
    2859       1    2853    2829    2856       1    2853    2829    2859       1
    2847    2826    2850       1    2844    2826    2847       1    2844    2826
    2850       1    2823    2841    2889       2    2823    2841    2892       2
    2823    2841    2895       2    2820    2838    2880       2    2820    2838
    2883       2    2820    2838    2886       2    2817    2835    2871       2
    2817    2835    2874       2    2817    2835    2877       2    2814    2832
    2862       2    2814    2832    2865       2    2814    2832    2868       2
    2811    2829    2853       2    2811    2829    2856       2    2811    2829
    2859       2    2808    2826    2844       2    2808    2826    2847       2
    2808    2826    2850       2    2799    2742    2802       3    2799    2748
    2805       3    2790    2730    2793       3    2790    2736    2796       3
    2781    2718    2784       3    2781    2724    2787       3    2775    2712
    2778       3    2772    2706    2775       3    2763    2697    2766       3
    2763    2703    2769       3    2754    2682    2757       3    2754    2688
    2760       3    2748    2679    2751       3    2742    2676    2745       3
    2736    2673    2739       3    2730    2670    2733       3    2724    2667
    2727       3    2718    2664    2721       3    2712    2661    2715       3
    2706    2658    2709       3    2700    2655    2703       3    2694    2652
    2697       3    2688    2649    2691       3    2682    2646    2685       3
    2679    2748    2805       3    2676    2742    2802       3    2673    2736
    2796       3    2670    2730    2793       3    2667    2724    2787       3
    2664    2718    2784       3    2661    2712    2778       3    2658    2706
    2772       3    2655    2703    2769       3    2652    2697    2766       3
    2649    2688    2760       3    2646    2682    2757       3    2640    2676
    2745       3    2640    2679    2751       3    2637    2670    2733       3
    2637    2673    2739       3    2631    2664    2721       3    2631    2667
    2727       3    2628    2658    2709       3    2628    2661    2715       3
    2625    2652    2694       3    2625    2655    2700       3    2622    2646
    2685       3    2622    2649    2691       3    2616    2586    2619       3
    2607    2577    2610       3    2592    2556    2595       1    2589    2556
    2592       1    2589    2556    2595       1    2586    2616    2643       3
    2583    2616    2643       3    2580    2550    2583       3    2577    2607
    2634       3    2571    2544    2574       3    2571    2607    2634       3
    2565    2541    2568       3    2565    2559    2598       3    2559    2538
    2562       3    2553    2586    2619      11    2547    2577    2610      11
    2538    2559    2598       3    2535    2556    2589       2    2535    2556
    2592       2    2535    2556    2595       2    2532    2550    2580       3
    2529    2544    2574       3    2526    2541    2568       3    2523    2538
    2562      11    2514    2493    2517       3    2514    2499    2520       3
    2505    2487    2511      11    2499    2478    2502       3    2493    2475
    2496       3    2487    2472    2490       3    2481    2469    2484       3
    2478    2499    2520       3    2475    2493    2517       3    2472    2487
    2511       3    2466    2475    2496       3    2466    2478    2502       3
    2463    2469    2484       3    2463    2472    2490       3    2451    2439
    2454       3    2451    2445    2457       3    2445    2427    2448       3
    2439    2424    2442       3    2433    2421    2436       1    2430    2421
    2433       1    2430    2421    2436       1    2427    2445    2457       3
    2424    2439    2454       3    2418    2424    2442       3    2418    2427
    2448       3    2415    2421    2430       2    2415    2421    2433       2
    2415    2421    2436       2    3375    3324    3378       1    3372    3324
    3375       1    3372    3324    3378       1    3366    3321    3369       1
    3363    3321    3366       1    3363    3321    3369       1    3357    3318
    3360       1    3354    3318    3357       1    3354    3318    3360       1
    3348    3315    3351       1    3345    3315    3348       1    3345    3315
    3351       1    3339    3312    3342       1    3336    3312    3339       1
    3336    3312    3342       1    3330    3309    3333       1    3327    3309
    3330       1    3327    3309    3333       1    3306    3324    3372       2
    3306    3324    3375       2    3306    3324    3378       2    3303    3321
    3363       2    3303    3321    3366       2    3303    3321    3369       2
    3300    3318    3354       2    3300    3318    3357       2    3300    3318
    3360       2    3297    3315    3345       2    3297    3315    3348       2
    3297    3315    3351       2    3294    3312    3336       2    3294    3312
    3339       2    3294    3312    3342       2    3291    3309    3327       2
    3291    3309    3330       2    3291    3309    3333       2    3282    3225
    3285       3    3282    3231    3288       3    3273    3213    3276       3
    3273    3219    3279       3    3264    3201    3267       3    3264    3207
    3270       3    3258    3195    3261       3    3255    3189    3258       3
    3246    3180    3249       3    3246    3186    3252       3    3237    3165
    3240       3    3237    3171    3243       3    3231    3162    3234       3
    3225    3159    3228       3    3219    3156    3222       3    3213    3153
    3216       3    3207    3150    3210       3    3201    3147    3204       3
    3195    3144    3198       3    3189    3141    3192       3    3183    3138
    3186       3    3177    3135    3180       3    3171    3132    3174       3
    3165    3129    3168       3    3162    3231    3288       3    3159    3225
    3285       3    3156    3219    3279       3    3153    3213    3276       3
    3150    3207    3270       3    3147    3201    3267       3    3144    3195
    3261       3    3141    3189    3255       3    3138    3186    3252       3
    3135    3180    3249       3    3132    3171    3243       3    3129    3165
    3240       3    3123    3159    3228       3    3123    3162    3234       3
    3120    3153    3216       3    3120    3156    3222       3    3114    3147
    3204       3    3114    3150    3210       3    3111    3141    3192       3
    3111    3144    3198       3    3108    3135    3177       3    3108    3138
    3183       3    3105    3129    3168       3    3105    3132    3174       3
    3099    3069    3102       3    3090    3060    3093       3    3075    3039
    3078       1    3072    3039    3075       1    3072    3039    3078       1
    3069    3099    3126       3    3066    3099    3126       3    3063    3033
    3066       3    3060    3090    3117       3    3054    3027    3057       3
    3054    3090    3117       3    3048    3024    3051       3    3048    3042
    3081       3    3042    3021    3045       3    3036    3069    3102      11
    3030    3060    3093      11    3021    3042    3081       3    3018    3039
    3072       2    3018    3039    3075       2    3018    3039    3078       2
    3015    3033    3063       3    3012    3027    3057       3    3009    3024
    3051       3    3006    3021    3045      11    2997    2976    3000       3
    2997    2982    3003       3    2988    2970    2994      11    2982    2961
    2985       3    2976    2958    2979       3    2970    2955    2973       3
    2964    2952    2967       3    2961    2982    3003       3    2958    2976
    3000       3    2955    2970    2994       3    2949    2958    2979       3
    2949    2961    2985       3    2946    2952    2967       3    2946    2955
    2973       3    2934    2922    2937       3    2934    2928    2940       3
    2928    2910    2931       3    2922    2907    2925       3    2916    2904
    2919       1    2913    2904    2916       1    2913    2904    2919       1
    2910    2928    2940       3    2907    2922    2937       3    2901    2907
    2925       3    2901    2910    2931       3    2898    2904    2913       2
    2898    2904    2916       2    2898    2904    2919       2    3858    3807
    3861       1    3855    3807    3858       1    3855    3807    3861       1
    3849    3804    3852       1    3846    3804    3849       1    3846    3804
    3852       1    3840    3801    3843       1    3837    3801    3840       1
    3837    3801    3843       1    3831    3798    3834       1    3828    3798
    3831       1    3828    3798    3834       1    3822    3795    3825       1
    3819    3795    3822       1    3819    3795    3825       1    3813    3792
    3816       1    3810    3792    3813       1    3810    3792    3816       1
    3789    3807    3855       2    3789    3807    3858       2    3789    3807
    3861       2    3786    3804    3846       2    3786    3804    3849       2
    3786    3804    3852       2    3783    3801    3837       2    3783    3801
    3840       2    3783    3801    3843       2    3780    3798    3828       2
    3780    3798    3831       2    3780    3798    3834       2    3777    3795
    3819       2    3777    3795    3822       2    3777    3795    3825       2
    3774    3792    3810       2    3774    3792    3813       2    3774    3792
    3816       2    3765    3708    3768       3    3765    3714    3771       3
    3756    3696    3759       3    3756    3702    3762       3    3747    3684
    3750       3    3747    3690    3753       3    3741    3678    3744       3
    3738    3672    3741       3    3729    3663    3732       3    3729    3669
    3735       3    3720    3648    3723       3    3720    3654    3726       3
    3714    3645    3717       3    3708    3642    3711       3    3702    3639
    3705       3    3696    3636    3699       3    3690    3633    3693       3
    3684    3630    3687       3    3678    3627    3681       3    3672    3624
    3675       3    3666    3621    3669       3    3660    3618    3663       3
    3654    3615    3657       3    3648    3612    3651       3    3645    3714
    3771       3    3642    3708    3768       3    3639    3702    3762       3
    3636    3696    3759       3    3633    3690    3753       3    3630    3684
    3750       3    3627    3678    3744       3    3624    3672    3738       3
    3621    3669    3735       3    3618    3663    3732       3    3615    3654
    3726       3    3612    3648    3723       3    3606    3642    3711       3
    3606    3645    3717       3    3603    3636    3699       3    3603    3639
    3705       3    3597    3630    3687       3    3597    3633    3693       3
    3594    3624    3675       3    3594    3627    3681       3    3591    3618
    3660       3    3591    3621    3666       3    3588    3612    3651       3
    3588    3615    3657       3    3582    3552    3585       3    3573    3543
    3576       3    3558    3522    3561       1    3555    3522    3558       1
    3555    3522    3561       1    3552    3582    3609       3    3549    3582
    3609       3    3546    3516    3549       3    3543    3573    3600       3
    3537    3510    3540       3    3537    3573    3600       3    3531    3507
    3534       3    3531    3525    3564       3    3525    3504    3528       3
    3519    3552    3585      11    3513    3543    3576      11    3504    3525
    3564       3    3501    3522    3555       2    3501    3522    3558       2
    3501    3522    3561       2    3498    3516    3546       3    3495    3510
    3540       3    3492    3507    3534       3    3489    3504    3528      11
    3480    3459    3483       3    3480    3465    3486       3    3471    3453
    3477      11    3465    3444    3468       3    3459    3441    3462       3
    3453    3438    3456       3    3447    3435    3450       3    3444    3465
    3486       3    3441    3459    3483       3    3438    3453    3477       3
    3432    3441    3462       3    3432    3444    3468       3    3429    3435
    3450       3    3429    3438    3456       3    3417    3405    3420       3
    3417    3411    3423       3    3411    3393    3414       3    3405    3390
    3408       3    3399    3387    3402       1    3396    3387    3399       1
    3396    3387    3402       1    3393    3411    3423       3    3390    3405
    3420       3    3384    3390    3408       3    3384    3393    3414       3
    3381    3387    3396       2    3381    3387    3399       2    3381    3387
    3402       2    4341    4290    4344       1    4338    4290    4341       1
    4338    4290    4344       1    4332    4287    4335       1    4329    4287
    4332       1    4329    4287    4335       1    4323    4284    4326       1
    4320    4284    4323       1    4320    4284    4326       1    4314    4281
    4317       1    4311    4281    4314       1    4311    4281    4317       1
    4305    4278    4308       1    4302    4278    4305       1    4302    4278
    4308       1    4296    4275    4299       1    4293    4275    4296       1
    4293    4275    4299       1    4272    4290    4338       2    4272    4290
    4341       2    4272    4290    4344       2    4269    4287    4329       2
    4269    4287    4332       2    4269    4287    4335       2    4266    4284
    4320       2    4266    4284    4323       2    4266    4284    4326       2
    4263    4281    4311       2    4263    4281    4314       2    4263    4281
    4317       2    4260    4278    4302       2    4260    4278    4305       2
    4260    4278    4308       2    4257    4275    4293       2    4257    4275
    4296       2    4257    4275    4299       2    4248    4191    4251       3
    4248    4197    4254       3    4239    4179    4242       3    4239    4185
    4245       3    4230    4167    4233       3    4230    4173    4236       3
    4224    4161    4227       3    4221    4155    4224       3    4212    4146
    4215       3    4212    4152    4218       3    4203    4131    4206       3
    4203    4137    4209       3    4197    4128    4200       3    4191    4125
    4194       3    4185    4122    4188       3    4179    4119    4182       3
    4173    4116    4176       3    4167    4113    4170       3    4161    4110
    4164       3    4155    4107    4158       3    4149    4104    4152       3
    4143    4101    4146       3    4137    4098    4140       3    4131    4095
    4134       3    4128    4197    4254       3    4125    4191    4251       3
    4122    4185    4245       3    4119    4179    4242       3    4116    4173
    4236       3    4113    4167    4233       3    4110    4161    4227       3
    4107    4155    4221       3    4104    4152    4218       3    4101    4146
    4215       3    4098    4137    4209       3    4095    4131    4206       3
    4089    4125    4194       3    4089    4128    4200       3    4086    4119
    4182       3    4086    4122    4188       3    4080    4113    4170       3
    4080    4116    4176       3    4077    4107    4158       3    4077    4110
    4164       3    4074    4101    4143       3    4074    4104    4149       3
    4071    4095    4134       3    4071    4098    4140       3    4065    4035
    4068       3    4056    4026    4059       3    4041    4005    4044       1
    4038    4005    4041       1    4038    4005    4044       1    4035    4065
    4092       3    4032    4065    4092       3    4029    3999    4032       3
    4026    4056    4083       3    4020    3993    4023       3    4020    4056
    4083       3    4014    3990    4017       3    4014    4008    4047       3
    4008    3987    4011       3    4002    4035    4068      11    3996    4026
    4059      11    3987    4008    4047       3    3984    4005    4038       2
    3984    4005    4041       2    3984    4005    4044       2    3981    3999
    4029       3    3978    3993    4023       3    3975    3990    4017       3
    3972    3987    4011      11    3963    3942    3966       3    3963    3948
    3969       3    3954    3936    3960      11    3948    3927    3951       3
    3942    3924    3945       3    3936    3921    3939       3    3930    3918
    3933       3    3927    3948    3969       3    3924    3942    3966       3
    3921    3936    3960       3    3915    3924    3945       3    3915    3927
    3951       3    3912    3918    3933       3    3912    3921    3939       3
    3900    3888    3903       3    3900    3894    3906       3    3894    3876
    3897       3    3888    3873    3891       3    3882    3870    3885       1
    3879    3870    3882       1    3879    3870    3885       1    3876    3894
    3906       3    3873    3888    3903       3    3867    3873    3891       3
    3867    3876    3897       3    3864    3870    3879       2    3864    3870
    3882       2    3864    3870    3885       2    4824    4773    4827       1
    4821    4773    4824       1    4821    4773    4827       1    4815    4770
    4818       1    4812    4770    4815       1    4812    4770    4818       1
    4806    4767    4809       1    4803    4767    4806       1    4803    4767
    4809       1    4797    4764    4800       1    4794    4764    4797       1
    4794    4764    4800       1    4788    4761    4791       1    4785    4761
    4788       1    4785    4761    4791       1    4779    4758    4782       1
    4776    4758    4779       1    4776    4758    4782       1    4755    4773
    4821       2    4755    4773    4824       2    4755    4773    4827       2
    4752    4770    4812       2    4752    4770    4815       2    4752    4770
    4818       2    4749    4767    4803       2    4749    4767    4806       2
    4749    4767    4809       2    4746    4764    4794       2    4746    4764
    4797       2    4746    4764    4800       2    4743    4761    4785       2
    4743    4761    4788       2    4743    4761    4791       2    4740    4758
    4776       2    4740    4758    4779       2    4740    4758    4782       2
    4731    4674    4734       3    4731    4680    4737       3    4722    4662
    4725       3    4722    4668    4728       3    4713    4650    4716       3
    4713    4656    4719       3    4707    4644    4710       3    4704    4638
    4707       3    4695    4629    4698       3    4695    4635    4701       3
    4686    4614    4689       3    4686    4620    4692       3    4680    4611
    4683       3    4674    4608    4677       3    4668    4605    4671       3
    4662    4602    4665       3    4656    4599    4659       3    4650    4596
    4653       3    4644    4593    4647       3    4638    4590    4641       3
    4632    4587    4635       3    4626    4584    4629       3    4620    4581
    4623       3    4614    4578    4617       3    4611    4680    4737       3
    4608    4674    4734       3    4605    4668    4728       3    4602    4662
    4725       3    4599    4656    4719       3    4596    4650    4716       3
    4593    4644    4710       3    4590    4638    4704       3    4587    4635
    4701       3    4584    4629    4698       3    4581    4620    4692       3
    4578    4614    4689       3    4572    4608    4677       3    4572    4611
    4683       3    4569    4602    4665       3    4569    4605    4671       3
    4563    4596    4653       3    4563    4599    4659       3    4560    4590
    4641       3    4560    4593    4647       3    4557    4584    4626       3
    4557    4587    4632       3    4554    4578    4617       3    4554    4581
    4623       3    4548    4518    4551       3    4539    4509    4542       3
    4524    4488    4527       1    4521    4488    4524       1    4521    4488
    4527       1    4518    4548    4575       3    4515    4548    4575       3
    4512    4482    4515       3    4509    4539    4566       3    4503    4476
    4506       3    4503    4539    4566       3    4497    4473    4500       3
    4497    4491    4530       3    4491    4470    4494       3    4485    4518
    4551      11    4479    4509    4542      11    4470    4491    4530       3
    4467    4488    4521       2    4467    4488    4524       2    4467    4488
    4527       2    4464    4482    4512       3    4461    4476    4506       3
    4458    4473    4500       3    4455    4470    4494      11    4446    4425
    4449       3    4446    4431    4452       3    4437    4419    4443      11
    4431    4410    4434       3    4425    4407    4428       3    4419    4404
    4422       3    4413    4401    4416       3    4410    4431    4452       3
    4407    4425    4449       3    4404    4419    4443       3    4398    4407
    4428       3    4398    4410    4434       3    4395    4401    4416       3
    4395    4404    4422       3    4383    4371    4386       3    4383    4377
    4389       3    4377    4359    4380       3    4371    4356    4374       3
    4365    4353    4368       1    4362    4353    4365       1    4362    4353
    4368       1    4359    4377    4389       3    4356    4371    4386       3
    4350    4356    4374       3    4350    4359    4380       3    4347    4353
    4362       2    4347    4353    4365       2    4347    4353    4368       2
    5307    5256    5310       1    5304    5256    5307       1    5304    5256
    5310       1    5298    5253    5301       1    5295    5253    5298       1
    5295    5253    5301       1    5289    5250    5292       1    5286    5250
    5289       1    5286    5250    5292       1    5280    5247    5283       1
    5277    5247    5280       1    5277    5247    5283       1    5271    5244
    5274       1    5268    5244    5271       1    5268    5244    5274       1
    5262    5241    5265       1    5259    5241    5262       1    5259    5241
    5265       1    5238    5256    5304       2    5238    5256    5307       2
    5238    5256    5310       2    5235    5253    5295       2    5235    5253
    5298       2    5235    5253    5301       2    5232    5250    5286       2
    5232    5250    5289       2    5232    5250    5292       2    5229    5247
    5277       2    5229    5247    5280       2    5229    5247    5283       2
    5226    5244    5268       2    5226    5244    5271       2    5226    5244
    5274       2    5223    5241    5259       2    5223    5241    5262       2
    5223    5241    5265       2    5214    5157    5217       3    5214    5163
    5220       3    5205    5145    5208       3    5205    5151    5211       3
    5196    5133    5199       3    5196    5139    5202       3    5190    5127
    5193       3    5187    5121    5190       3    5178    5112    5181       3
    5178    5118    5184       3    5169    5097    5172       3    5169    5103
    5175       3    5163    5094    5166       3    5157    5091    5160       3
    5151    5088    5154       3    5145    5085    5148       3    5139    5082
    5142       3    5133    5079    5136       3    5127    5076    5130       3
    5121    5073    5124       3    5115    5070    5118       3    5109    5067
    5112       3    5103    5064    5106       3    5097    5061    5100       3
    5094    5163    5220       3    5091    5157    5217       3    5088    5151
    5211       3    5085    5145    5208       3    5082    5139    5202       3
    5079    5133    5199       3    5076    5127    5193       3    5073    5121
    5187       3    5070    5118    5184       3    5067    5112    5181       3
    5064    5103    5175       3    5061    5097    5172       3    5055    5091
    5160       3    5055    5094    5166       3    5052    5085    5148       3
    5052    5088    5154       3    5046    5079    5136       3    5046    5082
    5142       3    5043    5073    5124       3    5043    5076    5130       3
    5040    5067    5109       3    5040    5070    5115       3    5037    5061
    5100       3    5037    5064    5106       3    5031    5001    5034       3
    5022    4992    5025       3    5007    4971    5010       1    5004    4971
    5007       1    5004    4971    5010       1    5001    5031    5058       3
    4998    5031    5058       3    4995    4965    4998       3    4992    5022
    5049       3    4986    4959    4989       3    4986    5022    5049       3
    4980    4956    4983       3    4980    4974    5013       3    4974    4953
    4977       3    4968    5001    5034      11    4962    4992    5025      11
    4953    4974    5013       3    4950    4971    5004       2    4950    4971
    5007       2    4950    4971    5010       2    4947    4965    4995       3
    4944    4959    4989       3    4941    4956    4983       3    4938    4953
    4977      11    4929    4908    4932       3    4929    4914    4935       3
    4920    4902    4926      11    4914    4893    4917       3    4908    4890
    4911       3    4902    4887    4905       3    4896    4884    4899       3
    4893    4914    4935       3    4890    4908    4932       3    4887    4902
    4926       3    4881    4890    4911       3    4881    4893    4917       3
    4878    4884    4899       3    4878    4887    4905       3    4866    4854
    4869       3    4866    4860    4872       3    4860    4842    4863       3
    4854    4839    4857       3    4848    4836    4851       1    4845    4836
    4848       1    4845    4836    4851       1    4842    4860    4872       3
    4839    4854    4869       3    4833    4839    4857       3    4833    4842
    4863       3    4830    4836    4845       2    4830    4836    4848       2
    4830    4836    4851       2    5790    5739    5793       1    5787    5739
    5790       1    5787    5739    5793       1    5781    5736    5784       1
    5778    5736    5781       1    5778    5736    5784       1    5772    5733
    5775       1    5769    5733    5772       1    5769    5733    5775       1
    5763    5730    5766       1    5760    5730    5763       1    5760    5730
    5766       1    5754    5727    5757       1    5751    5727    5754       1
    5751    5727    5757       1    5745    5724    5748       1    5742    5724
    5745       1    5742    5724    5748       1    5721    5739    5787       2
    5721    5739    5790       2    5721    5739    5793       2    5718    5736
    5778       2    5718    5736    5781       2    5718    5736    5784       2
    5715    5733    5769       2    5715    5733    5772       2    5715    5733
    5775       2    5712    5730    5760       2    5712    5730    5763       2
    5712    5730    5766       2    5709    5727    5751       2    5709    5727
    5754       2    5709    5727    5757       2    5706    5724    5742       2
    5706    5724    5745       2    5706    5724    5748       2    5697    5640
    5700       3    5697    5646    5703       3    5688    5628    5691       3
    5688    5634    5694       3    5679    5616    5682       3    5679    5622
    5685       3    5673    5610    5676       3    5670    5604    5673       3
    5661    5595    5664       3    5661    5601    5667       3    5652    5580
    5655       3    5652    5586    5658       3    5646    5577    5649       3
    5640    5574    5643       3    5634    5571    5637       3    5628    5568
    5631       3    5622    5565    5625       3    5616    5562    5619       3
    5610    5559    5613       3    5604    5556    5607       3    5598    5553
    5601       3    5592    5550    5595       3    5586    5547    5589       3
    5580    5544    5583       3    5577    5646    5703       3    5574    5640
    5700       3    5571    5634    5694       3    5568    5628    5691       3
    5565    5622    5685       3    5562    5616    5682       3    5559    5610
    5676       3    5556    5604    5670       3    5553    5601    5667       3
    5550    5595    5664       3    5547    5586    5658       3    5544    5580
    5655       3    5538    5574    5643       3    5538    5577    5649       3
    5535    5568    5631       3    5535    5571    5637       3    5529    5562
    5619       3    5529    5565    5625       3    5526    5556    5607       3
    5526    5559    5613       3    5523    5550    5592       3    5523    5553
    5598       3    5520    5544    5583       3    5520    5547    5589       3
    5514    5484    5517       3    5505    5475    5508       3    5490    5454
    5493       1    5487    5454    5490       1    5487    5454    5493       1
    5484    5514    5541       3    5481    5514    5541       3    5478    5448
    5481       3    5475    5505    5532       3    5469    5442    5472       3
    5469    5505    5532       3    5463    5439    5466       3    5463    5457
    5496       3    5457    5436    5460       3    5451    5484    5517      11
    5445    5475    5508      11    5436    5457    5496       3    5433    5454
    5487       2    5433    5454    5490       2    5433    5454    5493       2
    5430    5448    5478       3    5427    5442    5472       3    5424    5439
    5466       3    5421    5436    5460      11    5412    5391    5415       3
    5412    5397    5418       3    5403    5385    5409      11    5397    5376
    5400       3    5391    5373    5394       3    5385    5370    5388       3
    5379    5367    5382       3    5376    5397    5418       3    5373    5391
    5415       3    5370    5385    5409       3    5364    5373    5394       3
    5364    5376    5400       3    5361    5367    5382       3    5361    5370
    5388       3    5349    5337    5352       3    5349    5343    5355       3
    5343    5325    5346       3    5337    5322    5340       3    5331    5319
    5334       1    5328    5319    5331       1    5328    5319    5334       1
    5325    5343    5355       3    5322    5337    5352       3    5316    5322
    5340       3    5316    5325    5346       3    5313    5319    5328       2
    5313    5319    5331       2    5313    5319    5334       2    6273    6222
    6276       1    6270    6222    6273       1    6270    6222    6276       1
    6264    6219    6267       1    6261    6219    6264       1    6261    6219
    6267       1    6255    6216    6258       1    6252    6216    6255       1
    6252    6216    6258       1    6246    6213    6249       1    6243    6213
    6246       1    6243    6213    6249       1    6237    6210    6240       1
    6234    6210    6237       1    6234    6210    6240       1    6228    6207
    6231       1    6225    6207    6228       1    6225    6207    6231       1
    6204    6222    6270       2    6204    6222    6273       2    6204    6222
    6276       2    6201    6219    6261       2    6201    6219    6264       2
    6201    6219    6267       2    6198    6216    6252       2    6198    6216
    6255       2    6198    6216    6258       2    6195    6213    6243       2
    6195    6213    6246       2    6195    6213    6249       2    6192    6210
    6234       2    6192    6210    6237       2    6192    6210    6240       2
    6189    6207    6225       2    6189    6207    6228       2    6189    6207
    6231       2    6180    6123    6183       3    6180    6129    6186       3
    6171    6111    6174       3    6171    6117    6177       3    6162    6099
    6165       3    6162    6105    6168       3    6156    6093    6159       3
    6153    6087    6156       3    6144    6078    6147       3    6144    6084
    6150       3    6135    6063    6138       3    6135    6069    6141       3
    6129    6060    6132       3    6123    6057    6126       3    6117    6054
    6120       3    6111    6051    6114       3    6105    6048    6108       3
    6099    6045    6102       3    6093    6042    6096       3    6087    6039
    6090       3    6081    6036    6084       3    6075    6033    6078       3
    6069    6030    6072       3    6063    6027    6066       3    6060    6129
    6186       3    6057    6123    6183       3    6054    6117    6177       3
    6051    6111    6174       3    6048    6105    6168       3    6045    6099
    6165       3    6042    6093    6159       3    6039    6087    6153       3
    6036    6084    6150       3    6033    6078    6147       3    6030    6069
    6141       3    6027    6063    6138       3    6021    6057    6126       3
    6021    6060    6132       3    6018    6051    6114       3    6018    6054
    6120       3    6012    6045    6102       3    6012    6048    6108       3
    6009    6039    6090       3    6009    6042    6096       3    6006    6033
    6075       3    6006    6036    6081       3    6003    6027    6066       3
    6003    6030    6072       3    5997    5967    6000       3    5988    5958
    5991       3    5973    5937    5976       1    5970    5937    5973       1
    5970    5937    5976       1    5967    5997    6024       3    5964    5997
    6024       3    5961    5931    5964       3    5958    5988    6015       3
    5952    5925    5955       3    5952    5988    6015       3    5946    5922
    5949       3    5946    5940    5979       3    5940    5919    5943       3
    5934    5967    6000      11    5928    5958    5991      11    5919    5940
    5979       3    5916    5937    5970       2    5916    5937    5973       2
    5916    5937    5976       2    5913    5931    5961       3    5910    5925
    5955       3    5907    5922    5949       3    5904    5919    5943      11
    5895    5874    5898       3    5895    5880    5901       3    5886    5868
    5892      11    5880    5859    5883       3    5874    5856    5877       3
    5868    5853    5871       3    5862    5850    5865       3    5859    5880
    5901       3    5856    5874    5898       3    5853    5868    5892       3
    5847    5856    5877       3    5847    5859    5883       3    5844    5850
    5865       3    5844    5853    5871       3    5832    5820    5835       3
    5832    5826    5838       3    5826    5808    5829       3    5820    5805
    5823       3    5814    5802    5817       1    5811    5802    5814       1
    5811    5802    5817       1    5808    5826    5838       3    5805    5820
    5835       3    5799    5805    5823       3    5799    5808    5829       3
    5796    5802    5811       2    5796    5802    5814       2    5796    5802
    5817       2    6756    6705    6759       1    6753    6705    6756       1
    6753    6705    6759       1    6747    6702    6750       1    6744    6702
    6747       1    6744    6702    6750       1    6738    6699    6741       1
    6735    6699    6738       1    6735    6699    6741       1    6729    6696
    6732       1    6726    6696    6729       1    6726    6696    6732       1
    6720    6693    6723       1    6717    6693    6720       1    6717    6693
    6723       1    6711    6690    6714       1    6708    6690    6711       1
    6708    6690    6714       1    6687    6705    6753       2    6687    6705
    6756       2    6687    6705    6759       2    6684    6702    6744       2
    6684    6702    6747       2    6684    6702    6750       2    6681    6699
    6735       2    6681    6699    6738       2    6681    6699    6741       2
    6678    6696    6726       2    6678    6696    6729       2    6678    6696
    6732       2    6675    6693    6717       2    6675    6693    6720       2
    6675    6693    6723       2    6672    6690    6708       2    6672    6690
    6711       2    6672    6690    6714       2    6663    6606    6666       3
    6663    6612    6669       3    6654    6594    6657       3    6654    6600
    6660       3    6645    6582    6648       3    6645    6588    6651       3
    6639    6576    6642       3    6636    6570    6639       3    6627    6561
    6630       3    6627    6567    6633       3    6618    6546    6621       3
    6618    6552    6624       3    6612    6543    6615       3    6606    6540
    6609       3    6600    6537    6603       3    6594    6534    6597       3
    6588    6531    6591       3    6582    6528    6585       3    6576    6525
    6579       3    6570    6522    6573       3    6564    6519    6567       3
    6558    6516    6561       3    6552    6513    6555       3    6546    6510
    6549       3    6543    6612    6669       3    6540    6606    6666       3
    6537    6600    6660       3    6534    6594    6657       3    6531    6588
    6651       3    6528    6582    6648       3    6525    6576    6642       3
    6522    6570    6636       3    6519    6567    6633       3    6516    6561
    6630       3    6513    6552    6624       3    6510    6546    6621       3
    6504    6540    6609       3    6504    6543    6615       3    6501    6534
    6597       3    6501    6537    6603       3    6495    6528    6585       3
    6495    6531    6591       3    6492    6522    6573       3    6492    6525
    6579       3    6489    6516    6558       3    6489    6519    6564       3
    6486    6510    6549       3    6486    6513    6555       3    6480    6450
    6483       3    6471    6441    6474       3    6456    6420    6459       1
    6453    6420    6456       1    6453    6420    6459       1    6450    6480
    6507       3    6447    6480    6507       3    6444    6414    6447       3
    6441    6471    6498       3    6435    6408    6438       3    6435    6471
    6498       3    6429    6405    6432       3    6429    6423    6462       3
    6423    6402    6426       3    6417    6450    6483      11    6411    6441
    6474      11    6402    6423    6462       3    6399    6420    6453       2
    6399    6420    6456       2    6399    6420    6459       2    6396    6414
    6444       3    6393    6408    6438       3    6390    6405    6432       3
    6387    6402    6426      11    6378    6357    6381       3    6378    6363
    6384       3    6369    6351    6375      11    6363    6342    6366       3
    6357    6339    6360       3    6351    6336    6354       3    6345    6333
    6348       3    6342    6363    6384       3    6339    6357    6381       3
    6336    6351    6375       3    6330    6339    6360       3    6330    6342
    6366       3    6327    6333    6348       3    6327    6336    6354       3
    6315    6303    6318       3    6315    6309    6321       3    6309    6291
    6312       3    6303    6288    6306       3    6297    6285    6300       1
    6294    6285    6297       1    6294    6285    6300       1    6291    6309
    6321       3    6288    6303    6318       3    6282    6288    6306       3
    6282    6291    6312       3    6279    6285    6294       2    6279    6285
    6297       2    6279    6285    6300       2    7239    7188    7242       1
    7236    7188    7239       1    7236    7188    7242       1    7230    7185
    7233       1    7227    7185    7230       1    7227    7185    7233       1
    7221    7182    7224       1    7218    7182    7221       1    7218    7182
    7224       1    7212    7179    7215       1    7209    7179    7212       1
    7209    7179    7215       1    7203    7176    7206       1    7200    7176
    7203       1    7200    7176    7206       1    7194    7173    7197       1
    7191    7173    7194       1    7191    7173    7197       1    7170    7188
    7236       2    7170    7188    7239       2    7170    7188    7242       2
    7167    7185    7227       2    7167    7185    7230       2    7167    7185
    7233       2    7164    7182    7218       2    7164    7182    7221       2
    7164    7182    7224       2    7161    7179    7209       2    7161    7179
    7212       2    7161    7179    7215       2    7158    7176    7200       2
    7158    7176    7203       2    7158    7176    7206       2    7155    7173
    7191       2    7155    7173    7194       2    7155    7173    7197       2
    7146    7089    7149       3    7146    7095    7152       3    7137    7077
    7140       3    7137    7083    7143       3    7128    7065    7131       3
    7128    7071    7134       3    7122    7059    7125       3    7119    7053
    7122       3    7110    7044    7113       3    7110    7050    7116       3
    7101    7029    7104       3    7101    7035    7107       3    7095    7026
    7098       3    7089    7023    7092       3    7083    7020    7086       3
    7077    7017    7080       3    7071    7014    7074       3    7065    7011
    7068       3    7059    7008    7062       3    7053    7005    7056       3
    7047    7002    7050       3    7041    6999    7044       3    7035    6996
    7038       3    7029    6993    7032       3    7026    7095    7152       3
    7023    7089    7149       3    7020    7083    7143       3    7017    7077
    7140       3    7014    7071    7134       3    7011    7065    7131       3
    7008    7059    7125       3    7005    7053    7119       3    7002    7050
    7116       3    6999    7044    7113       3    6996    7035    7107       3
    6993    7029    7104       3    6987    7023    7092       3    6987    7026
    7098       3    6984    7017    7080       3    6984    7020    7086       3
    6978    7011    7068       3    6978    7014    7074       3    6975    7005
    7056       3    6975    7008    7062       3    6972    6999    7041       3
    6972    7002    7047       3    6969    6993    7032       3    6969    6996
    7038       3    6963    6933    6966       3    6954    6924    6957       3
    6939    6903    6942       1    6936    6903    6939       1    6936    6903
    6942       1    6933    6963    6990       3    6930    6963    6990       3
    6927    6897    6930       3    6924    6954    6981       3    6918    6891
    6921       3    6918    6954    6981       3    6912    6888    6915       3
    6912    6906    6945       3    6906    6885    6909       3    6900    6933
    6966      11    6894    6924    6957      11    6885    6906    6945       3
    6882    6903    6936       2    6882    6903    6939       2    6882    6903
    6942       2    6879    6897    6927       3    6876    6891    6921       3
    6873    6888    6915       3    6870    6885    6909      11    6861    6840
    6864       3    6861    6846    6867       3    6852    6834    6858      11
    6846    6825    6849       3    6840    6822    6843       3    6834    6819
    6837       3    6828    6816    6831       3    6825    6846    6867       3
    6822    6840    6864       3    6819    6834    6858       3    6813    6822
    6843       3    6813    6825    6849       3    6810    6816    6831       3
    6810    6819    6837       3    6798    6786    6801       3    6798    6792
    6804       3    6792    6774    6795       3    6786    6771    6789       3
    6780    6768    6783       1    6777    6768    6780       1    6777    6768
    6783       1    6774    6792    6804       3    6771    6786    6801       3
    6765    6771    6789       3    6765    6774    6795       3    6762    6768
    6777       2    6762    6768    6780       2    6762    6768    6783       2
    7722    7671    7725       1    7719    7671    7722       1    7719    7671
    7725       1    7713    7668    7716       1    7710    7668    7713       1
    7710    7668    7716       1    7704    7665    7707       1    7701    7665
    7704       1    7701    7665    7707       1    7695    7662    7698       1
    7692    7662    7695       1    7692    7662    7698       1    7686    7659
    7689       1    7683    7659    7686       1    7683    7659    7689       1
    7677    7656    7680       1    7674    7656    7677       1    7674    7656
    7680       1    7653    7671    7719       2    7653    7671    7722       2
    7653    7671    7725       2    7650    7668    7710       2    7650    7668
    7713       2    7650    7668    7716       2    7647    7665    7701       2
    7647    7665    7704       2    7647    7665    7707       2    7644    7662
    7692       2    7644    7662    7695       2    7644    7662    7698       2
    7641    7659    7683       2    7641    7659    7686       2    7641    7659
    7689       2    7638    7656    7674       2    7638    7656    7677       2
    7638    7656    7680       2    7629    7572    7632       3    7629    7578
    7635       3    7620    7560    7623       3    7620    7566    7626       3
    7611    7548    7614       3    7611    7554    7617       3    7605    7542
    7608       3    7602    7536    7605       3    7593    7527    7596       3
    7593    7533    7599       3    7584    7512    7587       3    7584    7518
    7590       3    7578    7509    7581       3    7572    7506    7575       3
    7566    7503    7569       3    7560    7500    7563       3    7554    7497
    7557       3    7548    7494    7551       3    7542    7491    7545       3
    7536    7488    7539       3    7530    7485    7533       3    7524    7482
    7527       3    7518    7479    7521       3    7512    7476    7515       3
    7509    7578    7635       3    7506    7572    7632       3    7503    7566
    7626       3    7500    7560    7623       3    7497    7554    7617       3
    7494    7548    7614       3    7491    7542    7608       3    7488    7536
    7602       3    7485    7533    7599       3    7482    7527    7596       3
    7479    7518    7590       3    7476    7512    7587       3    7470    7506
    7575       3    7470    7509    7581       3    7467    7500    7563       3
    7467    7503    7569       3    7461    7494    7551       3    7461    7497
    7557       3    7458    7488    7539       3    7458    7491    7545       3
    7455    7482    7524       3    7455    7485    7530       3    7452    7476
    7515       3    7452    7479    7521       3    7446    7416    7449       3
    7437    7407    7440       3    7422    7386    7425       1    7419    7386
    7422       1    7419    7386    7425       1    7416    7446    7473       3
    7413    7446    7473       3    7410    7380    7413       3    7407    7437
    7464       3    7401    7374    7404       3    7401    7437    7464       3
    7395    7371    7398       3    7395    7389    7428       3    7389    7368
    7392       3    7383    7416    7449      11    7377    7407    7440      11
    7368    7389    7428       3    7365    7386    7419       2    7365    7386
    7422       2    7365    7386    7425       2    7362    7380    7410       3
    7359    7374    7404       3    7356    7371    7398       3    7353    7368
    7392      11    7344    7323    7347       3    7344    7329    7350       3
    7335    7317    7341      11    7329    7308    7332       3    7323    7305
    7326       3    7317    7302    7320       3    7311    7299    7314       3
    7308    7329    7350       3    7305    7323    7347       3    7302    7317
    7341       3    7296    7305    7326       3    7296    7308    7332       3
    7293    7299    7314       3    7293    7302    7320       3    7281    7269
    7284       3    7281    7275    7287       3    7275    7257    7278       3
    7269    7254    7272       3    7263    7251    7266       1    7260    7251
    7263       1    7260    7251    7266       1    7257    7275    7287       3
    7254    7269    7284       3    7248    7254    7272       3    7248    7257
    7278       3    7245    7251    7260       2    7245    7251    7263       2
    7245    7251    7266       2    8205    8154    8208       1    8202    8154
    8205       1    8202    8154    8208       1    8196    8151    8199       1
    8193    8151    8196       1    8193    8151    8199       1    8187    8148
    8190       1    8184    8148    8187       1    8184    8148    8190       1
    8178    8145    8181       1    8175    8145    8178       1    8175    8145
    8181       1    8169    8142    8172       1    8166    8142    8169       1
    8166    8142    8172       1    8160    8139    8163       1    8157    8139
    8160       1    8157    8139    8163       1    8136    8154    8202       2
    8136    8154    8205       2    8136    8154    8208       2    8133    8151
    8193       2    8133    8151    8196       2    8133    8151    8199       2
    8130    8148    8184       2    8130    8148    8187       2    8130    8148
    8190       2    8127    8145    8175       2    8127    8145    8178       2
    8127    8145    8181       2    8124    8142    8166       2    8124    8142
    8169       2    8124    8142    8172       2    8121    8139    8157       2
    8121    8139    8160       2    8121    8139    8163       2    8112    8055
    8115       3    8112    8061    8118       3    8103    8043    8106       3
    8103    8049    8109       3    8094    8031    8097       3    8094    8037
    8100       3    8088    8025    8091       3    8085    8019    8088       3
    8076    8010    8079       3    8076    8016    8082       3    8067    7995
    8070       3    8067    8001    8073       3    8061    7992    8064       3
    8055    7989    8058       3    8049    7986    8052       3    8043    7983
    8046       3    8037    7980    8040       3    8031    7977    8034       3
    8025    7974    8028       3    8019    7971    8022       3    8013    7968
    8016       3    8007    7965    8010       3    8001    7962    8004       3
    7995    7959    7998       3    7992    8061    8118       3    7989    8055
    8115       3    7986    8049    8109       3    7983    8043    8106       3
    7980    8037    8100       3    7977    8031    8097       3    7974    8025
    8091       3    7971    8019    8085       3    7968    8016    8082       3
    7965    8010    8079       3    7962    8001    8073       3    7959    7995
    8070       3    7953    7989    8058       3    7953    7992    8064       3
    7950    7983    8046       3    7950    7986    8052       3    7944    7977
    8034       3    7944    7980    8040       3    7941    7971    8022       3
    7941    7974    8028       3    7938    7965    8007       3    7938    7968
    8013       3    7935    7959    7998       3    7935    7962    8004       3
    7929    7899    7932       3    7920    7890    7923       3    7905    7869
    7908       1    7902    7869    7905       1    7902    7869    7908       1
    7899    7929    7956       3    7896    7929    7956       3    7893    7863
    7896       3    7890    7920    7947       3    7884    7857    7887       3
    7884    7920    7947       3    7878    7854    7881       3    7878    7872
    7911       3    7872    7851    7875       3    7866    7899    7932      11
    7860    7890    7923      11    7851    7872    7911       3    7848    7869
    7902       2    7848    7869    7905       2    7848    7869    7908       2
    7845    7863    7893       3    7842    7857    7887       3    7839    7854
    7881       3    7836    7851    7875      11    7827    7806    7830       3
    7827    7812    7833       3    7818    7800    7824      11    7812    7791
    7815       3    7806    7788    7809       3    7800    7785    7803       3
    7794    7782    7797       3    7791    7812    7833       3    7788    7806
    7830       3    7785    7800    7824       3    7779    7788    7809       3
    7779    7791    7815       3    7776    7782    7797       3    7776    7785
    7803       3    7764    7752    7767       3    7764    7758    7770       3
    7758    7740    7761       3    7752    7737    7755       3    7746    7734
    7749       1    7743    7734    7746       1    7743    7734    7749       1
    7740    7758    7770       3    7737    7752    7767       3    7731    7737
    7755       3    7731    7740    7761       3    7728    7734    7743       2
    7728    7734    7746       2    7728    7734    7749       2    8688    8637
    8691       1    8685    8637    8688       1    8685    8637    8691       1
    8679    8634    8682       1    8676    8634    8679       1    8676    8634
    8682       1    8670    8631    8673       1    8667    8631    8670       1
    8667    8631    8673       1    8661    8628    8664       1    8658    8628
    8661       1    8658    8628    8664       1    8652    8625    8655       1
    8649    8625    8652       1    8649    8625    8655       1    8643    8622
    8646       1    8640    8622    8643       1    8640    8622    8646       1
    8619    8637    8685       2    8619    8637    8688       2    8619    8637
    8691       2    8616    8634    8676       2    8616    8634    8679       2
    8616    8634    8682       2    8613    8631    8667       2    8613    8631
    8670       2    8613    8631    8673       2    8610    8628    8658       2
    8610    8628    8661       2    8610    8628    8664       2    8607    8625
    8649       2    8607    8625    8652       2    8607    8625    8655       2
    8604    8622    8640       2    8604    8622    8643       2    8604    8622
    8646       2    8595    8538    8598       3    8595    8544    8601       3
    8586    8526    8589       3    8586    8532    8592       3    8577    8514
    8580       3    8577    8520    8583       3    8571    8508    8574       3
    8568    8502    8571       3    8559    8493    8562       3    8559    8499
    8565       3    8550    8478    8553       3    8550    8484    8556       3
    8544    8475    8547       3    8538    8472    8541       3    8532    8469
    8535       3    8526    8466    8529       3    8520    8463    8523       3
    8514    8460    8517       3    8508    8457    8511       3    8502    8454
    8505       3    8496    8451    8499       3    8490    8448    8493       3
    8484    8445    8487       3    8478    8442    8481       3    8475    8544
    8601       3    8472    8538    8598       3    8469    8532    8592       3
    8466    8526    8589       3    8463    8520    8583       3    8460    8514
    8580       3    8457    8508    8574       3    8454    8502    8568       3
    8451    8499    8565       3    8448    8493    8562       3    8445    8484
    8556       3    8442    8478    8553       3    8436    8472    8541       3
    8436    8475    8547       3    8433    8466    8529       3    8433    8469
    8535       3    8427    8460    8517       3    8427    8463    8523       3
    8424    8454    8505       3    8424    8457    8511       3    8421    8448
    8490       3    8421    8451    8496       3    8418    8442    8481       3
    8418    8445    8487       3    8412    8382    8415       3    8403    8373
    8406       3    8388    8352    8391       1    8385    8352    8388       1
    8385    8352    8391       1    8382    8412    8439       3    8379    8412
    8439       3    8376    8346    8379       3    8373    8403    8430       3
    8367    8340    8370       3    8367    8403    8430       3    8361    8337
    8364       3    8361    8355    8394       3    8355    8334    8358       3
    8349    8382    8415      11    8343    8373    8406      11    8334    8355
    8394       3    8331    8352    8385       2    8331    8352    8388       2
    8331    8352    8391       2    8328    8346    8376       3    8325    8340
    8370       3    8322    8337    8364       3    8319    8334    8358      11
    8310    8289    8313       3    8310    8295    8316       3    8301    8283
    8307      11    8295    8274    8298       3    8289    8271    8292       3
    8283    8268    8286       3    8277    8265    8280       3    8274    8295
    8316       3    8271    8289    8313       3    8268    8283    8307       3
    8262    8271    8292       3    8262    8274    8298       3    8259    8265
    8280       3    8259    8268    8286       3    8247    8235    8250       3
    8247    8241    8253       3    8241    8223    8244       3    8235    8220
    8238       3    8229    8217    8232       1    8226    8217    8229       1
    8226    8217    8232       1    8223    8241    8253       3    8220    8235
    8250       3    8214    8220    8238       3    8214    8223    8244       3
    8211    8217    8226       2    8211    8217    8229       2    8211    8217
    8232       2    9171    9120    9174       1    9168    9120    9171       1
    9168    9120    9174       1    9162    9117    9165       1    9159    9117
    9162       1    9159    9117    9165       1    9153    9114    9156       1
    9150    9114    9153       1    9150    9114    9156       1    9144    9111
    9147       1    9141    9111    9144       1    9141    9111    9147       1
    9135    9108    9138       1    9132    9108    9135       1    9132    9108
    9138       1    9126    9105    9129       1    9123    9105    9126       1
    9123    9105    9129       1    9102    9120    9168       2    9102    9120
    9171       2    9102    9120    9174       2    9099    9117    9159       2
    9099    9117    9162       2    9099    9117    9165       2    9096    9114
    9150       2    9096    9114    9153       2    9096    9114    9156       2
    9093    9111    9141       2    9093    9111    9144       2    9093    9111
    9147       2    9090    9108    9132       2    9090    9108    9135       2
    9090    9108    9138       2    9087    9105    9123       2    9087    9105
    9126       2    9087    9105    9129       2    9078    9021    9081       3
    9078    9027    9084       3    9069    9009    9072       3    9069    9015
    9075       3    9060    8997    9063       3    9060    9003    9066       3
    9054    8991    9057       3    9051    8985    9054       3    9042    8976
    9045       3    9042    8982    9048       3    9033    8961    9036       3
    9033    8967    9039       3    9027    8958    9030       3    9021    8955
    9024       3    9015    8952    9018       3    9009    8949    9012       3
    9003    8946    9006       3    8997    8943    9000       3    8991    8940
    8994       3    8985    8937    8988       3    8979    8934    8982       3
    8973    8931    8976       3    8967    8928    8970       3    8961    8925
    8964       3    8958    9027    9084       3    8955    9021    9081       3
    8952    9015    9075       3    8949    9009    9072       3    8946    9003
    9066       3    8943    8997    9063       3    8940    8991    9057       3
    8937    8985    9051       3    8934    8982    9048       3    8931    8976
    9045       3    8928    8967    9039       3    8925    8961    9036       3
    8919    8955    9024       3    8919    8958    9030       3    8916    8949
    9012       3    8916    8952    9018       3    8910    8943    9000       3
    8910    8946    9006       3    8907    8937    8988       3    8907    8940
    8994       3    8904    8931    8973       3    8904    8934    8979       3
    8901    8925    8964       3    8901    8928    8970       3    8895    8865
    8898       3    8886    8856    8889       3    8871    8835    8874       1
    8868    8835    8871       1    8868    8835    8874       1    8865    8895
    8922       3    8862    8895    8922       3    8859    8829    8862       3
    8856    8886    8913       3    8850    8823    8853       3    8850    8886
    8913       3    8844    8820    8847       3    8844    8838    8877       3
    8838    8817    8841       3    8832    8865    8898      11    8826    8856
    8889      11    8817    8838    8877       3    8814    8835    8868       2
    8814    8835    8871       2    8814    8835    8874       2    8811    8829
    8859       3    8808    8823    8853       3    8805    8820    8847       3
    8802    8817    8841      11    8793    8772    8796       3    8793    8778
    8799       3    8784    8766    8790      11    8778    8757    8781       3
    8772    8754    8775       3    8766    8751    8769       3    8760    8748
    8763       3    8757    8778    8799       3    8754    8772    8796       3
    8751    8766    8790       3    8745    8754    8775       3    8745    8757
    8781       3    8742    8748    8763       3    8742    8751    8769       3
    8730    8718    8733       3    8730    8724    8736       3    8724    8706
    8727       3    8718    8703    8721       3    8712    8700    8715       1
    8709    8700    8712       1    8709    8700    8715       1    8706    8724
    8736       3    8703    8718    8733       3    8697    8703    8721       3
    8697    8706    8727       3    8694    8700    8709       2    8694    8700
    8712       2    8694    8700    8715       2    9654    9603    9657       1
    9651    9603    9654       1    9651    9603    9657       1    9645    9600
    9648       1    9642    9600    9645       1    9642    9600    9648       1
    9636    9597    9639       1    9633    9597    9636       1    9633    9597
    9639       1    9627    9594    9630       1    9624    9594    9627       1
    9624    9594    9630       1    9618    9591    9621       1    9615    9591
    9618       1    9615    9591    9621       1    9609    9588    9612       1
    9606    9588    9609       1    9606    9588    9612       1    9585    9603
    9651       2    9585    9603    9654       2    9585    9603    9657       2
    9582    9600    9642       2    9582    9600    9645       2    9582    9600
    9648       2    9579    9597    9633       2    9579    9597    9636       2
    9579    9597    9639       2    9576    9594    9624       2    9576    9594
    9627       2    9576    9594    9630       2    9573    9591    9615       2
    9573    9591    9618       2    9573    9591    9621       2    9570    9588
    9606       2    9570    9588    9609       2    9570    9588    9612       2
    9561    9504    9564       3    9561    9510    9567       3    9552    9492
    9555       3    9552    9498    9558       3    9543    9480    9546       3
    9543    9486    9549       3    9537    9474    9540       3    9534    9468
    9537       3    9525    9459    9528       3    9525    9465    9531       3
    9516    9444    9519       3    9516    9450    9522       3    9510    9441
    9513       3    9504    9438    9507       3    9498    9435    9501       3
    9492    9432    9495       3    9486    9429    9489       3    9480    9426
    9483       3    9474    9423    9477       3    9468    9420    9471       3
    9462    9417    9465       3    9456    9414    9459       3    9450    9411
    9453       3    9444    9408    9447       3    9441    9510    9567       3
    9438    9504    9564       3    9435    9498    9558       3    9432    9492
    9555       3    9429    9486    9549       3    9426    9480    9546       3
    9423    9474    9540       3    9420    9468    9534       3    9417    9465
    9531       3    9414    9459    9528       3    9411    9450    9522       3
    9408    9444    9519       3    9402    9438    9507       3    9402    9441
    9513       3    9399    9432    9495       3    9399    9435    9501       3
    9393    9426    9483       3    9393    9429    9489       3    9390    9420
    9471       3    9390    9423    9477       3    9387    9414    9456       3
    9387    9417    9462       3    9384    9408    9447       3    9384    9411
    9453       3    9378    9348    9381       3    9369    9339    9372       3
    9354    9318    9357       1    9351    9318    9354       1    9351    9318
    9357       1    9348    9378    9405       3    9345    9378    9405       3
    9342    9312    9345       3    9339    9369    9396       3    9333    9306
    9336       3    9333    9369    9396       3    9327    9303    9330       3
    9327    9321    9360       3    9321    9300    9324       3    9315    9348
    9381      11    9309    9339    9372      11    9300    9321    9360       3
    9297    9318    9351       2    9297    9318    9354       2    9297    9318
    9357       2    9294    9312    9342       3    9291    9306    9336       3
    9288    9303    9330       3    9285    9300    9324      11    9276    9255
    9279       3    9276    9261    9282       3    9267    9249    9273      11
    9261    9240    9264       3    9255    9237    9258       3    9249    9234
    9252       3    9243    9231    9246       3    9240    9261    9282       3
    9237    9255    9279       3    9234    9249    9273       3    9228    9237
    9258       3    9228    9240    9264       3    9225    9231    9246       3
    9225    9234    9252       3    9213    9201    9216       3    9213    9207
    9219       3    9207    9189    9210       3    9201    9186    9204       3
    9195    9183    9198       1    9192    9183    9195       1    9192    9183
    9198       1    9189    9207    9219       3    9186    9201    9216       3
    9180    9186    9204       3    9180    9189    9210       3    9177    9183
    9192       2    9177    9183    9195       2    9177    9183    9198       2
   10137   10086   10140       1   10134   10086   10137       1   10134   10086
   10140       1   10128   10083   10131       1   10125   10083   10128       1
   10125   10083   10131       1   10119   10080   10122       1   10116   10080
   10119       1   10116   10080   10122       1   10110   10077   10113       1
   10107   10077   10110       1   10107   10077   10113       1   10101   10074
   10104       1   10098   10074   10101       1   10098   10074   10104       1
   10092   10071   10095       1   10089   10071   10092       1   10089   10071
   10095       1   10068   10086   10134       2   10068   10086   10137       2
   10068   10086   10140       2   10065   10083   10125       2   10065   10083
   10128       2   10065   10083   10131       2   10062   10080   10116       2
   10062   10080   10119       2   10062   10080   10122       2   10059   10077
   10107       2   10059   10077   10110       2   10059   10077   10113       2
   10056   10074   10098       2   10056   10074   10101       2   10056   10074
   10104       2   10053   10071   10089       2   10053   10071   10092       2
   10053   10071   10095       2   10044    9987   10047       3   10044    9993
   10050       3   10035    9975   10038       3   10035    9981   10041       3
   10026    9963   10029       3   10026    9969   10032       3   10020    9957
   10023       3   10017    9951   10020       3   10008    9942   10011       3
   10008    9948   10014       3    9999    9927   10002       3    9999    9933
   10005       3    9993    9924    9996       3    9987    9921    9990       3
    9981    9918    9984       3    9975    9915    9978       3    9969    9912
    9972       3    9963    9909    9966       3    9957    9906    9960       3
    9951    9903    9954       3    9945    9900    9948       3    9939    9897
    9942       3    9933    9894    9936       3    9927    9891    9930       3
    9924    9993   10050       3    9921    9987   10047       3    9918    9981
   10041       3    9915    9975   10038       3    9912    9969   10032       3
    9909    9963   10029       3    9906    9957   10023       3    9903    9951
   10017       3    9900    9948   10014       3    9897    9942   10011       3
    9894    9933   10005       3    9891    9927   10002       3    9885    9921
    9990       3    9885    9924    9996       3    9882    9915    9978       3
    9882    9918    9984       3    9876    9909    9966       3    9876    9912
    9972       3    9873    9903    9954       3    9873    9906    9960       3
    9870    9897    9939       3    9870    9900    9945       3    9867    9891
    9930       3    9867    9894    9936       3    9861    9831    9864       3
    9852    9822    9855       3    9837    9801    9840       1    9834    9801
    9837       1    9834    9801    9840       1    9831    9861    9888       3
    9828    9861    9888       3    9825    9795    9828       3    9822    9852
    9879       3    9816    9789    9819       3    9816    9852    9879       3
    9810    9786    9813       3    9810    9804    9843       3    9804    9783
    9807       3    9798    9831    9864      11    9792    9822    9855      11
    9783    9804    9843       3    9780    9801    9834       2    9780    9801
    9837       2    9780    9801    9840       2    9777    9795    9825       3
    9774    9789    9819       3    9771    9786    9813       3    9768    9783
    9807      11    9759    9738    9762       3    9759    9744    9765       3
    9750    9732    9756      11    9744    9723    9747       3    9738    9720
    9741       3    9732    9717    9735       3    9726    9714    9729       3
    9723    9744    9765       3    9720    9738    9762       3    9717    9732
    9756       3    9711    9720    9741       3    9711    9723    9747       3
    9708    9714    9729       3    9708    9717    9735       3    9696    9684
    9699       3    9696    9690    9702       3    9690    9672    9693       3
    9684    9669    9687       3    9678    9666    9681       1    9675    9666
    9678       1    9675    9666    9681       1    9672    9690    9702       3
    9669    9684    9699       3    9663    9669    9687       3    9663    9672
    9693       3    9660    9666    9675       2    9660    9666    9678       2
    9660    9666    9681       2   10620   10569   10623       1   10617   10569
   10620       1   10617   10569   10623       1   10611   10566   10614       1
   10608   10566   10611       1   10608   10566   10614       1   10602   10563
   10605       1   10599   10563   10602       1   10599   10563   10605       1
   10593   10560   10596       1   10590   10560   10593       1   10590   10560
   10596       1   10584   10557   10587       1   10581   10557   10584       1
   10581   10557   10587       1   10575   10554   10578       1   10572   10554
   10575       1   10572   10554   10578       1   10551   10569   10617       2
   10551   10569   10620       2   10551   10569   10623       2   10548   10566
   10608       2   10548   10566   10611       2   10548   10566   10614       2
   10545   10563   10599       2   10545   10563   10602       2   10545   10563
   10605       2   10542   10560   10590       2   10542   10560   10593       2
   10542   10560   10596       2   10539   10557   10581       2   10539   10557
   10584       2   10539   10557   10587       2   10536   10554   10572       2
   10536   10554   10575       2   10536   10554   10578       2   10527   10470
   10530       3   10527   10476   10533       3   10518   10458   10521       3
   10518   10464   10524       3   10509   10446   10512       3   10509   10452
   10515       3   10503   10440   10506       3   10500   10434   10503       3
   10491   10425   10494       3   10491   10431   10497       3   10482   10410
   10485       3   10482   10416   10488       3   10476   10407   10479       3
   10470   10404   10473       3   10464   10401   10467       3   10458   10398
   10461       3   10452   10395   10455       3   10446   10392   10449       3
   10440   10389   10443       3   10434   10386   10437       3   10428   10383
   10431       3   10422   10380   10425       3   10416   10377   10419       3
   10410   10374   10413       3   10407   10476   10533       3   10404   10470
   10530       3   10401   10464   10524       3   10398   10458   10521       3
   10395   10452   10515       3   10392   10446   10512       3   10389   10440
   10506       3   10386   10434   10500       3   10383   10431   10497       3
   10380   10425   10494       3   10377   10416   10488       3   10374   10410
   10485       3   10368   10404   10473       3   10368   10407   10479       3
   10365   10398   10461       3   10365   10401   10467       3   10359   10392
   10449       3   10359   10395   10455       3   10356   10386   10437       3
   10356   10389   10443       3   10353   10380   10422       3   10353   10383
   10428       3   10350   10374   10413       3   10350   10377   10419       3
   10344   10314   10347       3   10335   10305   10338       3   10320   10284
   10323       1   10317   10284   10320       1   10317   10284   10323       1
   10314   10344   10371       3   10311   10344   10371       3   10308   10278
   10311       3   10305   10335   10362       3   10299   10272   10302       3
   10299   10335   10362       3   10293   10269   10296       3   10293   10287
   10326       3   10287   10266   10290       3   10281   10314   10347      11
   10275   10305   10338      11   10266   10287   10326       3   10263   10284
   10317       2   10263   10284   10320       2   10263   10284   10323       2
   10260   10278   10308       3   10257   10272   10302       3   10254   10269
   10296       3   10251   10266   10290      11   10242   10221   10245       3
   10242   10227   10248       3   10233   10215   10239      11   10227   10206
   10230       3   10221   10203   10224       3   10215   10200   10218       3
   10209   10197   10212       3   10206   10227   10248       3   10203   10221
   10245       3   10200   10215   10239       3   10194   10203   10224       3
   10194   10206   10230       3   10191   10197   10212       3   10191   10200
   10218       3   10179   10167   10182       3   10179   10173   10185       3
   10173   10155   10176       3   10167   10152   10170       3   10161   10149
   10164       1   10158   10149   10161       1   10158   10149   10164       1
   10155   10173   10185       3   10152   10167   10182       3   10146   10152
   10170       3   10146   10155   10176       3   10143   10149   10158       2
   10143   10149   10161       2   10143   10149   10164       2   11103   11052
   11106       1   11100   11052   11103       1   11100   11052   11106       1
   11094   11049   11097       1   11091   11049   11094       1   11091   11049
   11097       1   11085   11046   11088       1   11082   11046   11085       1
   11082   11046   11088       1   11076   11043   11079       1   11073   11043
   11076       1   11073   11043   11079       1   11067   11040   11070       1
   11064   11040   11067       1   11064   11040   11070       1   11058   11037
   11061       1   11055   11037   11058       1   11055   11037   11061       1
   11034   11052   11100       2   11034   11052   11103       2   11034   11052
   11106       2   11031   11049   11091       2   11031   11049   11094       2
   11031   11049   11097       2   11028   11046   11082       2   11028   11046
   11085       2   11028   11046   11088       2   11025   11043   11073       2
   11025   11043   11076       2   11025   11043   11079       2   11022   11040
   11064       2   11022   11040   11067       2   11022   11040   11070       2
   11019   11037   11055       2   11019   11037   11058       2   11019   11037
   11061       2   11010   10953   11013       3   11010   10959   11016       3
   11001   10941   11004       3   11001   10947   11007       3   10992   10929
   10995       3   10992   10935   10998       3   10986   10923   10989       3
   10983   10917   10986       3   10974   10908   10977       3   10974   10914
   10980       3   10965   10893   10968       3   10965   10899   10971       3
   10959   10890   10962       3   10953   10887   10956       3   10947   10884
   10950       3   10941   10881   10944       3   10935   10878   10938       3
   10929   10875   10932       3   10923   10872   10926       3   10917   10869
   10920       3   10911   10866   10914       3   10905   10863   10908       3
   10899   10860   10902       3   10893   10857   10896       3   10890   10959
   11016       3   10887   10953   11013       3   10884   10947   11007       3
   10881   10941   11004       3   10878   10935   10998       3   10875   10929
   10995       3   10872   10923   10989       3   10869   10917   10983       3
   10866   10914   10980       3   10863   10908   10977       3   10860   10899
   10971       3   10857   10893   10968       3   10851   10887   10956       3
   10851   10890   10962       3   10848   10881   10944       3   10848   10884
   10950       3   10842   10875   10932       3   10842   10878   10938       3
   10839   10869   10920       3   10839   10872   10926       3   10836   10863
   10905       3   10836   10866   10911       3   10833   10857   10896       3
   10833   10860   10902       3   10827   10797   10830       3   10818   10788
   10821       3   10803   10767   10806       1   10800   10767   10803       1
   10800   10767   10806       1   10797   10827   10854       3   10794   10827
   10854       3   10791   10761   10794       3   10788   10818   10845       3
   10782   10755   10785       3   10782   10818   10845       3   10776   10752
   10779       3   10776   10770   10809       3   10770   10749   10773       3
   10764   10797   10830      11   10758   10788   10821      11   10749   10770
   10809       3   10746   10767   10800       2   10746   10767   10803       2
   10746   10767   10806       2   10743   10761   10791       3   10740   10755
   10785       3   10737   10752   10779       3   10734   10749   10773      11
   10725   10704   10728       3   10725   10710   10731       3   10716   10698
   10722      11   10710   10689   10713       3   10704   10686   10707       3
   10698   10683   10701       3   10692   10680   10695       3   10689   10710
   10731       3   10686   10704   10728       3   10683   10698   10722       3
   10677   10686   10707       3   10677   10689   10713       3   10674   10680
   10695       3   10674   10683   10701       3   10662   10650   10665       3
   10662   10656   10668       3   10656   10638   10659       3   10650   10635
   10653       3   10644   10632   10647       1   10641   10632   10644       1
   10641   10632   10647       1   10638   10656   10668       3   10635   10650
   10665       3   10629   10635   10653       3   10629   10638   10659       3
   10626   10632   10641       2   10626   10632   10644       2   10626   10632
   10647       2   11586   11535   11589       1   11583   11535   11586       1
   11583   11535   11589       1   11577   11532   11580       1   11574   11532
   11577       1   11574   11532   11580       1   11568   11529   11571       1
   11565   11529   11568       1   11565   11529   11571       1   11559   11526
   11562       1   11556   11526   11559       1   11556   11526   11562       1
   11550   11523   11553       1   11547   11523   11550       1   11547   11523
   11553       1   11541   11520   11544       1   11538   11520   11541       1
   11538   11520   11544       1   11517   11535   11583       2   11517   11535
   11586       2   11517   11535   11589       2   11514   11532   11574       2
   11514   11532   11577       2   11514   11532   11580       2   11511   11529
   11565       2   11511   11529   11568       2   11511   11529   11571       2
   11508   11526   11556       2   11508   11526   11559       2   11508   11526
   11562       2   11505   11523   11547       2   11505   11523   11550       2
   11505   11523   11553       2   11502   11520   11538       2   11502   11520
   11541       2   11502   11520   11544       2   11493   11436   11496       3
   11493   11442   11499       3   11484   11424   11487       3   11484   11430
   11490       3   11475   11412   11478       3   11475   11418   11481       3
   11469   11406   11472       3   11466   11400   11469       3   11457   11391
   11460       3   11457   11397   11463       3   11448   11376   11451       3
   11448   11382   11454       3   11442   11373   11445       3   11436   11370
   11439       3   11430   11367   11433       3   11424   11364   11427       3
   11418   11361   11421       3   11412   11358   11415       3   11406   11355
   11409       3   11400   11352   11403       3   11394   11349   11397       3
   11388   11346   11391       3   11382   11343   11385       3   11376   11340
   11379       3   11373   11442   11499       3   11370   11436   11496       3
   11367   11430   11490       3   11364   11424   11487       3   11361   11418
   11481       3   11358   11412   11478       3   11355   11406   11472       3
   11352   11400   11466       3   11349   11397   11463       3   11346   11391
   11460       3   11343   11382   11454       3   11340   11376   11451       3
   11334   11370   11439       3   11334   11373   11445       3   11331   11364
   11427       3   11331   11367   11433       3   11325   11358   11415       3
   11325   11361   11421       3   11322   11352   11403       3   11322   11355
   11409       3   11319   11346   11388       3   11319   11349   11394       3
   11316   11340   11379       3   11316   11343   11385       3   11310   11280
   11313       3   11301   11271   11304       3   11286   11250   11289       1
   11283   11250   11286       1   11283   11250   11289       1   11280   11310
   11337       3   11277   11310   11337       3   11274   11244   11277       3
   11271   11301   11328       3   11265   11238   11268       3   11265   11301
   11328       3   11259   11235   11262       3   11259   11253   11292       3
   11253   11232   11256       3   11247   11280   11313      11   11241   11271
   11304      11   11232   11253   11292       3   11229   11250   11283       2
   11229   11250   11286       2   11229   11250   11289       2   11226   11244
   11274       3   11223   11238   11268       3   11220   11235   11262       3
   11217   11232   11256      11   11208   11187   11211       3   11208   11193
   11214       3   11199   11181   11205      11   11193   11172   11196       3
   11187   11169   11190       3   11181   11166   11184       3   11175   11163
   11178       3   11172   11193   11214       3   11169   11187   11211       3
   11166   11181   11205       3   11160   11169   11190       3   11160   11172
   11196       3   11157   11163   11178       3   11157   11166   11184       3
   11145   11133   11148       3   11145   11139   11151       3   11139   11121
   11142       3   11133   11118   11136       3   11127   11115   11130       1
   11124   11115   11127       1   11124   11115   11130       1   11121   11139
   11151       3   11118   11133   11148       3   11112   11118   11136       3
   11112   11121   11142       3   11109   11115   11124       2   11109   11115
   11127       2   11109   11115   11130       2   12069   12018   12072       1
   12066   12018   12069       1   12066   12018   12072       1   12060   12015
   12063       1   12057   12015   12060       1   12057   12015   12063       1
   12051   12012   12054       1   12048   12012   12051       1   12048   12012
   12054       1   12042   12009   12045       1   12039   12009   12042       1
   12039   12009   12045       1   12033   12006   12036       1   12030   12006
   12033       1   12030   12006   12036       1   12024   12003   12027       1
   12021   12003   12024       1   12021   12003   12027       1   12000   12018
   12066       2   12000   12018   12069       2   12000   12018   12072       2
   11997   12015   12057       2   11997   12015   12060       2   11997   12015
   12063       2   11994   12012   12048       2   11994   12012   12051       2
   11994   12012   12054       2   11991   12009   12039       2   11991   12009
   12042       2   11991   12009   12045       2   11988   12006   12030       2
   11988   12006   12033       2   11988   12006   12036       2   11985   12003
   12021       2   11985   12003   12024       2   11985   12003   12027       2
   11976   11919   11979       3   11976   11925   11982       3   11967   11907
   11970       3   11967   11913   11973       3   11958   11895   11961       3
   11958   11901   11964       3   11952   11889   11955       3   11949   11883
   11952       3   11940   11874   11943       3   11940   11880   11946       3
   11931   11859   11934       3   11931   11865   11937       3   11925   11856
   11928       3   11919   11853   11922       3   11913   11850   11916       3
   11907   11847   11910       3   11901   11844   11904       3   11895   11841
   11898       3   11889   11838   11892       3   11883   11835   11886       3
   11877   11832   11880       3   11871   11829   11874       3   11865   11826
   11868       3   11859   11823   11862       3   11856   11925   11982       3
   11853   11919   11979       3   11850   11913   11973       3   11847   11907
   11970       3   11844   11901   11964       3   11841   11895   11961       3
   11838   11889   11955       3   11835   11883   11949       3   11832   11880
   11946       3   11829   11874   11943       3   11826   11865   11937       3
   11823   11859   11934       3   11817   11853   11922       3   11817   11856
   11928       3   11814   11847   11910       3   11814   11850   11916       3
   11808   11841   11898       3   11808   11844   11904       3   11805   11835
   11886       3   11805   11838   11892       3   11802   11829   11871       3
   11802   11832   11877       3   11799   11823   11862       3   11799   11826
   11868       3   11793   11763   11796       3   11784   11754   11787       3
   11769   11733   11772       1   11766   11733   11769       1   11766   11733
   11772       1   11763   11793   11820       3   11760   11793   11820       3
   11757   11727   11760       3   11754   11784   11811       3   11748   11721
   11751       3   11748   11784   11811       3   11742   11718   11745       3
   11742   11736   11775       3   11736   11715   11739       3   11730   11763
   11796      11   11724   11754   11787      11   11715   11736   11775       3
   11712   11733   11766       2   11712   11733   11769       2   11712   11733
   11772       2   11709   11727   11757       3   11706   11721   11751       3
   11703   11718   11745       3   11700   11715   11739      11   11691   11670
   11694       3   11691   11676   11697       3   11682   11664   11688      11
   11676   11655   11679       3   11670   11652   11673       3   11664   11649
   11667       3   11658   11646   11661       3   11655   11676   11697       3
   11652   11670   11694       3   11649   11664   11688       3   11643   11652
   11673       3   11643   11655   11679       3   11640   11646   11661       3
   11640   11649   11667       3   11628   11616   11631       3   11628   11622
   11634       3   11622   11604   11625       3   11616   11601   11619       3
   11610   11598   11613       1   11607   11598   11610       1   11607   11598
   11613       1   11604   11622   11634       3   11601   11616   11631       3
   11595   11601   11619       3   11595   11604   11625       3   11592   11598
   11607       2   11592   11598   11610       2   11592   11598   11613       2
   12552   12501   12555       1   12549   12501   12552       1   12549   12501
   12555       1   12543   12498   12546       1   12540   12498   12543       1
   12540   12498   12546       1   12534   12495   12537       1   12531   12495
   12534       1   12531   12495   12537       1   12525   12492   12528       1
   12522   12492   12525       1   12522   12492   12528       1   12516   12489
   12519       1   12513   12489   12516       1   12513   12489   12519       1
   12507   12486   12510       1   12504   12486   12507       1   12504   12486
   12510       1   12483   12501   12549       2   12483   12501   12552       2
   12483   12501   12555       2   12480   12498   12540       2   12480   12498
   12543       2   12480   12498   12546       2   12477   12495   12531       2
   12477   12495   12534       2   12477   12495   12537       2   12474   12492
   12522       2   12474   12492   12525       2   12474   12492   12528       2
   12471   12489   12513       2   12471   12489   12516       2   12471   12489
   12519       2   12468   12486   12504       2   12468   12486   12507       2
   12468   12486   12510       2   12459   12402   12462       3   12459   12408
   12465       3   12450   12390   12453       3   12450   12396   12456       3
   12441   12378   12444       3   12441   12384   12447       3   12435   12372
   12438       3   12432   12366   12435       3   12423   12357   12426       3
   12423   12363   12429       3   12414   12342   12417       3   12414   12348
   12420       3   12408   12339   12411       3   12402   12336   12405       3
   12396   12333   12399       3   12390   12330   12393       3   12384   12327
   12387       3   12378   12324   12381       3   12372   12321   12375       3
   12366   12318   12369       3   12360   12315   12363       3   12354   12312
   12357       3   12348   12309   12351       3   12342   12306   12345       3
   12339   12408   12465       3   12336   12402   12462       3   12333   12396
   12456       3   12330   12390   12453       3   12327   12384   12447       3
   12324   12378   12444       3   12321   12372   12438       3   12318   12366
   12432       3   12315   12363   12429       3   12312   12357   12426       3
   12309   12348   12420       3   12306   12342   12417       3   12300   12336
   12405       3   12300   12339   12411       3   12297   12330   12393       3
   12297   12333   12399       3   12291   12324   12381       3   12291   12327
   12387       3   12288   12318   12369       3   12288   12321   12375       3
   12285   12312   12354       3   12285   12315   12360       3   12282   12306
   12345       3   12282   12309   12351       3   12276   12246   12279       3
   12267   12237   12270       3   12252   12216   12255       1   12249   12216
   12252       1   12249   12216   12255       1   12246   12276   12303       3
   12243   12276   12303       3   12240   12210   12243       3   12237   12267
   12294       3   12231   12204   12234       3   12231   12267   12294       3
   12225   12201   12228       3   12225   12219   12258       3   12219   12198
   12222       3   12213   12246   12279      11   12207   12237   12270      11
   12198   12219   12258       3   12195   12216   12249       2   12195   12216
   12252       2   12195   12216   12255       2   12192   12210   12240       3
   12189   12204   12234       3   12186   12201   12228       3   12183   12198
   12222      11   12174   12153   12177       3   12174   12159   12180       3
   12165   12147   12171      11   12159   12138   12162       3   12153   12135
   12156       3   12147   12132   12150       3   12141   12129   12144       3
   12138   12159   12180       3   12135   12153   12177       3   12132   12147
   12171       3   12126   12135   12156       3   12126   12138   12162       3
   12123   12129   12144       3   12123   12132   12150       3   12111   12099
   12114       3   12111   12105   12117       3   12105   12087   12108       3
   12099   12084   12102       3   12093   12081   12096       1   12090   12081
   12093       1   12090   12081   12096       1   12087   12105   12117       3
   12084   12099   12114       3   12078   12084   12102       3   12078   12087
   12108       3   12075   12081   12090       2   12075   12081   12093       2
   12075   12081   12096       2   13035   12984   13038       1   13032   12984
   13035       1   13032   12984   13038       1   13026   12981   13029       1
   13023   12981   13026       1   13023   12981   13029       1   13017   12978
   13020       1   13014   12978   13017       1   13014   12978   13020       1
   13008   12975   13011       1   13005   12975   13008       1   13005   12975
   13011       1   12999   12972   13002       1   12996   12972   12999       1
   12996   12972   13002       1   12990   12969   12993       1   12987   12969
   12990       1   12987   12969   12993       1   12966   12984   13032       2
   12966   12984   13035       2   12966   12984   13038       2   12963   12981
   13023       2   12963   12981   13026       2   12963   12981   13029       2
   12960   12978   13014       2   12960   12978   13017       2   12960   12978
   13020       2   12957   12975   13005       2   12957   12975   13008       2
   12957   12975   13011       2   12954   12972   12996       2   12954   12972
   12999       2   12954   12972   13002       2   12951   12969   12987       2
   12951   12969   12990       2   12951   12969   12993       2   12942   12885
   12945       3   12942   12891   12948       3   12933   12873   12936       3
   12933   12879   12939       3   12924   12861   12927       3   12924   12867
   12930       3   12918   12855   12921       3   12915   12849   12918       3
   12906   12840   12909       3   12906   12846   12912       3   12897   12825
   12900       3   12897   12831   12903       3   12891   12822   12894       3
   12885   12819   12888       3   12879   12816   12882       3   12873   12813
   12876       3   12867   12810   12870       3   12861   12807   12864       3
   12855   12804   12858       3   12849   12801   12852       3   12843   12798
   12846       3   12837   12795   12840       3   12831   12792   12834       3
   12825   12789   12828       3   12822   12891   12948       3   12819   12885
   12945       3   12816   12879   12939       3   12813   12873   12936       3
   12810   12867   12930       3   12807   12861   12927       3   12804   12855
   12921       3   12801   12849   12915       3   12798   12846   12912       3
   12795   12840   12909       3   12792   12831   12903       3   12789   12825
   12900       3   12783   12819   12888       3   12783   12822   12894       3
   12780   12813   12876       3   12780   12816   12882       3   12774   12807
   12864       3   12774   12810   12870       3   12771   12801   12852       3
   12771   12804   12858       3   12768   12795   12837       3   12768   12798
   12843       3   12765   12789   12828       3   12765   12792   12834       3
   12759   12729   12762       3   12750   12720   12753       3   12735   12699
   12738       1   12732   12699   12735       1   12732   12699   12738       1
   12729   12759   12786       3   12726   12759   12786       3   12723   12693
   12726       3   12720   12750   12777       3   12714   12687   12717       3
   12714   12750   12777       3   12708   12684   12711       3   12708   12702
   12741       3   12702   12681   12705       3   12696   12729   12762      11
   12690   12720   12753      11   12681   12702   12741       3   12678   12699
   12732       2   12678   12699   12735       2   12678   12699   12738       2
   12675   12693   12723       3   12672   12687   12717       3   12669   12684
   12711       3   12666   12681   12705      11   12657   12636   12660       3
   12657   12642   12663       3   12648   12630   12654      11   12642   12621
   12645       3   12636   12618   12639       3   12630   12615   12633       3
   12624   12612   12627       3   12621   12642   12663       3   12618   12636
   12660       3   12615   12630   12654       3   12609   12618   12639       3
   12609   12621   12645       3   12606   12612   12627       3   12606   12615
   12633       3   12594   12582   12597       3   12594   12588   12600       3
   12588   12570   12591       3   12582   12567   12585       3   12576   12564
   12579       1   12573   12564   12576       1   12573   12564   12579       1
   12570   12588   12600       3   12567   12582   12597       3   12561   12567
   12585       3   12561   12570   12591       3   12558   12564   12573       2
   12558   12564   12576       2   12558   12564   12579       2   13518   13467
   13521       1   13515   13467   13518       1   13515   13467   13521       1
   13509   13464   13512       1   13506   13464   13509       1   13506   13464
   13512       1   13500   13461   13503       1   13497   13461   13500       1
   13497   13461   13503       1   13491   13458   13494       1   13488   13458
   13491       1   13488   13458   13494       1   13482   13455   13485       1
   13479   13455   13482       1   13479   13455   13485       1   13473   13452
   13476       1   13470   13452   13473       1   13470   13452   13476       1
   13449   13467   13515       2   13449   13467   13518       2   13449   13467
   13521       2   13446   13464   13506       2   13446   13464   13509       2
   13446   13464   13512       2   13443   13461   13497       2   13443   13461
   13500       2   13443   13461   13503       2   13440   13458   13488       2
   13440   13458   13491       2   13440   13458   13494       2   13437   13455
   13479       2   13437   13455   13482       2   13437   13455   13485       2
   13434   13452   13470       2   13434   13452   13473       2   13434   13452
   13476       2   13425   13368   13428       3   13425   13374   13431       3
   13416   13356   13419       3   13416   13362   13422       3   13407   13344
   13410       3   13407   13350   13413       3   13401   13338   13404       3
   13398   13332   13401       3   13389   13323   13392       3   13389   13329
   13395       3   13380   13308   13383       3   13380   13314   13386       3
   13374   13305   13377       3   13368   13302   13371       3   13362   13299
   13365       3   13356   13296   13359       3   13350   13293   13353       3
   13344   13290   13347       3   13338   13287   13341       3   13332   13284
   13335       3   13326   13281   13329       3   13320   13278   13323       3
   13314   13275   13317       3   13308   13272   13311       3   13305   13374
   13431       3   13302   13368   13428       3   13299   13362   13422       3
   13296   13356   13419       3   13293   13350   13413       3   13290   13344
   13410       3   13287   13338   13404       3   13284   13332   13398       3
   13281   13329   13395       3   13278   13323   13392       3   13275   13314
   13386       3   13272   13308   13383       3   13266   13302   13371       3
   13266   13305   13377       3   13263   13296   13359       3   13263   13299
   13365       3   13257   13290   13347       3   13257   13293   13353       3
   13254   13284   13335       3   13254   13287   13341       3   13251   13278
   13320       3   13251   13281   13326       3   13248   13272   13311       3
   13248   13275   13317       3   13242   13212   13245       3   13233   13203
   13236       3   13218   13182   13221       1   13215   13182   13218       1
   13215   13182   13221       1   13212   13242   13269       3   13209   13242
   13269       3   13206   13176   13209       3   13203   13233   13260       3
   13197   13170   13200       3   13197   13233   13260       3   13191   13167
   13194       3   13191   13185   13224       3   13185   13164   13188       3
   13179   13212   13245      11   13173   13203   13236      11   13164   13185
   13224       3   13161   13182   13215       2   13161   13182   13218       2
   13161   13182   13221       2   13158   13176   13206       3   13155   13170
   13200       3   13152   13167   13194       3   13149   13164   13188      11
   13140   13119   13143       3   13140   13125   13146       3   13131   13113
   13137      11   13125   13104   13128       3   13119   13101   13122       3
   13113   13098   13116       3   13107   13095   13110       3   13104   13125
   13146       3   13101   13119   13143       3   13098   13113   13137       3
   13092   13101   13122       3   13092   13104   13128       3   13089   13095
   13110       3   13089   13098   13116       3   13077   13065   13080       3
   13077   13071   13083       3   13071   13053   13074       3   13065   13050
   13068       3   13059   13047   13062       1   13056   13047   13059       1
   13056   13047   13062       1   13053   13071   13083       3   13050   13065
   13080       3   13044   13050   13068       3   13044   13053   13074       3
   13041   13047   13056       2   13041   13047   13059       2   13041   13047
   13062       2   14001   13950   14004       1   13998   13950   14001       1
   13998   13950   14004       1   13992   13947   13995       1   13989   13947
   13992       1   13989   13947   13995       1   13983   13944   13986       1
   13980   13944   13983       1   13980   13944   13986       1   13974   13941
   13977       1   13971   13941   13974       1   13971   13941   13977       1
   13965   13938   13968       1   13962   13938   13965       1   13962   13938
   13968       1   13956   13935   13959       1   13953   13935   13956       1
   13953   13935   13959       1   13932   13950   13998       2   13932   13950
   14001       2   13932   13950   14004       2   13929   13947   13989       2
   13929   13947   13992       2   13929   13947   13995       2   13926   13944
   13980       2   13926   13944   13983       2   13926   13944   13986       2
   13923   13941   13971       2   13923   13941   13974       2   13923   13941
   13977       2   13920   13938   13962       2   13920   13938   13965       2
   13920   13938   13968       2   13917   13935   13953       2   13917   13935
   13956       2   13917   13935   13959       2   13908   13851   13911       3
   13908   13857   13914       3   13899   13839   13902       3   13899   13845
   13905       3   13890   13827   13893       3   13890   13833   13896       3
   13884   13821   13887       3   13881   13815   13884       3   13872   13806
   13875       3   13872   13812   13878       3   13863   13791   13866       3
   13863   13797   13869       3   13857   13788   13860       3   13851   13785
   13854       3   13845   13782   13848       3   13839   13779   13842       3
   13833   13776   13836       3   13827   13773   13830       3   13821   13770
   13824       3   13815   13767   13818       3   13809   13764   13812       3
   13803   13761   13806       3   13797   13758   13800       3   13791   13755
   13794       3   13788   13857   13914       3   13785   13851   13911       3
   13782   13845   13905       3   13779   13839   13902       3   13776   13833
   13896       3   13773   13827   13893       3   13770   13821   13887       3
   13767   13815   13881       3   13764   13812   13878       3   13761   13806
   13875       3   13758   13797   13869       3   13755   13791   13866       3
   13749   13785   13854       3   13749   13788   13860       3   13746   13779
   13842       3   13746   13782   13848       3   13740   13773   13830       3
   13740   13776   13836       3   13737   13767   13818       3   13737   13770
   13824       3   13734   13761   13803       3   13734   13764   13809       3
   13731   13755   13794       3   13731   13758   13800       3   13725   13695
   13728       3   13716   13686   13719       3   13701   13665   13704       1
   13698   13665   13701       1   13698   13665   13704       1   13695   13725
   13752       3   13692   13725   13752       3   13689   13659   13692       3
   13686   13716   13743       3   13680   13653   13683       3   13680   13716
   13743       3   13674   13650   13677       3   13674   13668   13707       3
   13668   13647   13671       3   13662   13695   13728      11   13656   13686
   13719      11   13647   13668   13707       3   13644   13665   13698       2
   13644   13665   13701       2   13644   13665   13704       2   13641   13659
   13689       3   13638   13653   13683       3   13635   13650   13677       3
   13632   13647   13671      11   13623   13602   13626       3   13623   13608
   13629       3   13614   13596   13620      11   13608   13587   13611       3
   13602   13584   13605       3   13596   13581   13599       3   13590   13578
   13593       3   13587   13608   13629       3   13584   13602   13626       3
   13581   13596   13620       3   13575   13584   13605       3   13575   13587
   13611       3   13572   13578   13593       3   13572   13581   13599       3
   13560   13548   13563       3   13560   13554   13566       3   13554   13536
   13557       3   13548   13533   13551       3   13542   13530   13545       1
   13539   13530   13542       1   13539   13530   13545       1   13536   13554
   13566       3   13533   13548   13563       3   13527   13533   13551       3
   13527   13536   13557       3   13524   13530   13539       2   13524   13530
   13542       2   13524   13530   13545       2   14484   14433   14487       1
   14481   14433   14484       1   14481   14433   14487       1   14475   14430
   14478       1   14472   14430   14475       1   14472   14430   14478       1
   14466   14427   14469       1   14463   14427   14466       1   14463   14427
   14469       1   14457   14424   14460       1   14454   14424   14457       1
   14454   14424   14460       1   14448   14421   14451       1   14445   14421
   14448       1   14445   14421   14451       1   14439   14418   14442       1
   14436   14418   14439       1   14436   14418   14442       1   14415   14433
   14481       2   14415   14433   14484       2   14415   14433   14487       2
   14412   14430   14472       2   14412   14430   14475       2   14412   14430
   14478       2   14409   14427   14463       2   14409   14427   14466       2
   14409   14427   14469       2   14406   14424   14454       2   14406   14424
   14457       2   14406   14424   14460       2   14403   14421   14445       2
   14403   14421   14448       2   14403   14421   14451       2   14400   14418
   14436       2   14400   14418   14439       2   14400   14418   14442       2
   14391   14334   14394       3   14391   14340   14397       3   14382   14322
   14385       3   14382   14328   14388       3   14373   14310   14376       3
   14373   14316   14379       3   14367   14304   14370       3   14364   14298
   14367       3   14355   14289   14358       3   14355   14295   14361       3
   14346   14274   14349       3   14346   14280   14352       3   14340   14271
   14343       3   14334   14268   14337       3   14328   14265   14331       3
   14322   14262   14325       3   14316   14259   14319       3   14310   14256
   14313       3   14304   14253   14307       3   14298   14250   14301       3
   14292   14247   14295       3   14286   14244   14289       3   14280   14241
   14283       3   14274   14238   14277       3   14271   14340   14397       3
   14268   14334   14394       3   14265   14328   14388       3   14262   14322
   14385       3   14259   14316   14379       3   14256   14310   14376       3
   14253   14304   14370       3   14250   14298   14364       3   14247   14295
   14361       3   14244   14289   14358       3   14241   14280   14352       3
   14238   14274   14349       3   14232   14268   14337       3   14232   14271
   14343       3   14229   14262   14325       3   14229   14265   14331       3
   14223   14256   14313       3   14223   14259   14319       3   14220   14250
   14301       3   14220   14253   14307       3   14217   14244   14286       3
   14217   14247   14292       3   14214   14238   14277       3   14214   14241
   14283       3   14208   14178   14211       3   14199   14169   14202       3
   14184   14148   14187       1   14181   14148   14184       1   14181   14148
   14187       1   14178   14208   14235       3   14175   14208   14235       3
   14172   14142   14175       3   14169   14199   14226       3   14163   14136
   14166       3   14163   14199   14226       3   14157   14133   14160       3
   14157   14151   14190       3   14151   14130   14154       3   14145   14178
   14211      11   14139   14169   14202      11   14130   14151   14190       3
   14127   14148   14181       2   14127   14148   14184       2   14127   14148
   14187       2   14124   14142   14172       3   14121   14136   14166       3
   14118   14133   14160       3   14115   14130   14154      11   14106   14085
   14109       3   14106   14091   14112       3   14097   14079   14103      11
   14091   14070   14094       3   14085   14067   14088       3   14079   14064
   14082       3   14073   14061   14076       3   14070   14091   14112       3
   14067   14085   14109       3   14064   14079   14103       3   14058   14067
   14088       3   14058   14070   14094       3   14055   14061   14076       3
   14055   14064   14082       3   14043   14031   14046       3   14043   14037
   14049       3   14037   14019   14040       3   14031   14016   14034       3
   14025   14013   14028       1   14022   14013   14025       1   14022   14013
   14028       1   14019   14037   14049       3   14016   14031   14046       3
   14010   14016   14034       3   14010   14019   14040       3   14007   14013
   14022       2   14007   14013   14025       2   14007   14013   14028       2
   14967   14916   14970       1   14964   14916   14967       1   14964   14916
   14970       1   14958   14913   14961       1   14955   14913   14958       1
   14955   14913   14961       1   14949   14910   14952       1   14946   14910
   14949       1   14946   14910   14952       1   14940   14907   14943       1
   14937   14907   14940       1   14937   14907   14943       1   14931   14904
   14934       1   14928   14904   14931       1   14928   14904   14934       1
   14922   14901   14925       1   14919   14901   14922       1   14919   14901
   14925       1   14898   14916   14964       2   14898   14916   14967       2
   14898   14916   14970       2   14895   14913   14955       2   14895   14913
   14958       2   14895   14913   14961       2   14892   14910   14946       2
   14892   14910   14949       2   14892   14910   14952       2   14889   14907
   14937       2   14889   14907   14940       2   14889   14907   14943       2
   14886   14904   14928       2   14886   14904   14931       2   14886   14904
   14934       2   14883   14901   14919       2   14883   14901   14922       2
   14883   14901   14925       2   14874   14817   14877       3   14874   14823
   14880       3   14865   14805   14868       3   14865   14811   14871       3
   14856   14793   14859       3   14856   14799   14862       3   14850   14787
   14853       3   14847   14781   14850       3   14838   14772   14841       3
   14838   14778   14844       3   14829   14757   14832       3   14829   14763
   14835       3   14823   14754   14826       3   14817   14751   14820       3
   14811   14748   14814       3   14805   14745   14808       3   14799   14742
   14802       3   14793   14739   14796       3   14787   14736   14790       3
   14781   14733   14784       3   14775   14730   14778       3   14769   14727
   14772       3   14763   14724   14766       3   14757   14721   14760       3
   14754   14823   14880       3   14751   14817   14877       3   14748   14811
   14871       3   14745   14805   14868       3   14742   14799   14862       3
   14739   14793   14859       3   14736   14787   14853       3   14733   14781
   14847       3   14730   14778   14844       3   14727   14772   14841       3
   14724   14763   14835       3   14721   14757   14832       3   14715   14751
   14820       3   14715   14754   14826       3   14712   14745   14808       3
   14712   14748   14814       3   14706   14739   14796       3   14706   14742
   14802       3   14703   14733   14784       3   14703   14736   14790       3
   14700   14727   14769       3   14700   14730   14775       3   14697   14721
   14760       3   14697   14724   14766       3   14691   14661   14694       3
   14682   14652   14685       3   14667   14631   14670       1   14664   14631
   14667       1   14664   14631   14670       1   14661   14691   14718       3
   14658   14691   14718       3   14655   14625   14658       3   14652   14682
   14709       3   14646   14619   14649       3   14646   14682   14709       3
   14640   14616   14643       3   14640   14634   14673       3   14634   14613
   14637       3   14628   14661   14694      11   14622   14652   14685      11
   14613   14634   14673       3   14610   14631   14664       2   14610   14631
   14667       2   14610   14631   14670       2   14607   14625   14655       3
   14604   14619   14649       3   14601   14616   14643       3   14598   14613
   14637      11   14589   14568   14592       3   14589   14574   14595       3
   14580   14562   14586      11   14574   14553   14577       3   14568   14550
   14571       3   14562   14547   14565       3   14556   14544   14559       3
   14553   14574   14595       3   14550   14568   14592       3   14547   14562
   14586       3   14541   14550   14571       3   14541   14553   14577       3
   14538   14544   14559       3   14538   14547   14565       3   14526   14514
   14529       3   14526   14520   14532       3   14520   14502   14523       3
   14514   14499   14517       3   14508   14496   14511       1   14505   14496
   14508       1   14505   14496   14511       1   14502   14520   14532       3
   14499   14514   14529       3   14493   14499   14517       3   14493   14502
   14523       3   14490   14496   14505       2   14490   14496   14508       2
   14490   14496   14511       2   15450   15399   15453       1   15447   15399
   15450       1   15447   15399   15453       1   15441   15396   15444       1
   15438   15396   15441       1   15438   15396   15444       1   15432   15393
   15435       1   15429   15393   15432       1   15429   15393   15435       1
   15423   15390   15426       1   15420   15390   15423       1   15420   15390
   15426       1   15414   15387   15417       1   15411   15387   15414       1
   15411   15387   15417       1   15405   15384   15408       1   15402   15384
   15405       1   15402   15384   15408       1   15381   15399   15447       2
   15381   15399   15450       2   15381   15399   15453       2   15378   15396
   15438       2   15378   15396   15441       2   15378   15396   15444       2
   15375   15393   15429       2   15375   15393   15432       2   15375   15393
   15435       2   15372   15390   15420       2   15372   15390   15423       2
   15372   15390   15426       2   15369   15387   15411       2   15369   15387
   15414       2   15369   15387   15417       2   15366   15384   15402       2
   15366   15384   15405       2   15366   15384   15408       2   15357   15300
   15360       3   15357   15306   15363       3   15348   15288   15351       3
   15348   15294   15354       3   15339   15276   15342       3   15339   15282
   15345       3   15333   15270   15336       3   15330   15264   15333       3
   15321   15255   15324       3   15321   15261   15327       3   15312   15240
   15315       3   15312   15246   15318       3   15306   15237   15309       3
   15300   15234   15303       3   15294   15231   15297       3   15288   15228
   15291       3   15282   15225   15285       3   15276   15222   15279       3
   15270   15219   15273       3   15264   15216   15267       3   15258   15213
   15261       3   15252   15210   15255       3   15246   15207   15249       3
   15240   15204   15243       3   15237   15306   15363       3   15234   15300
   15360       3   15231   15294   15354       3   15228   15288   15351       3
   15225   15282   15345       3   15222   15276   15342       3   15219   15270
   15336       3   15216   15264   15330       3   15213   15261   15327       3
   15210   15255   15324       3   15207   15246   15318       3   15204   15240
   15315       3   15198   15234   15303       3   15198   15237   15309       3
   15195   15228   15291       3   15195   15231   15297       3   15189   15222
   15279       3   15189   15225   15285       3   15186   15216   15267       3
   15186   15219   15273       3   15183   15210   15252       3   15183   15213
   15258       3   15180   15204   15243       3   15180   15207   15249       3
   15174   15144   15177       3   15165   15135   15168       3   15150   15114
   15153       1   15147   15114   15150       1   15147   15114   15153       1
   15144   15174   15201       3   15141   15174   15201       3   15138   15108
   15141       3   15135   15165   15192       3   15129   15102   15132       3
   15129   15165   15192       3   15123   15099   15126       3   15123   15117
   15156       3   15117   15096   15120       3   15111   15144   15177      11
   15105   15135   15168      11   15096   15117   15156       3   15093   15114
   15147       2   15093   15114   15150       2   15093   15114   15153       2
   15090   15108   15138       3   15087   15102   15132       3   15084   15099
   15126       3   15081   15096   15120      11   15072   15051   15075       3
   15072   15057   15078       3   15063   15045   15069      11   15057   15036
   15060       3   15051   15033   15054       3   15045   15030   15048       3
   15039   15027   15042       3   15036   15057   15078       3   15033   15051
   15075       3   15030   15045   15069       3   15024   15033   15054       3
   15024   15036   15060       3   15021   15027   15042       3   15021   15030
   15048       3   15009   14997   15012       3   15009   15003   15015       3
   15003   14985   15006       3   14997   14982   15000       3   14991   14979
   14994       1   14988   14979   14991       1   14988   14979   14994       1
   14985   15003   15015       3   14982   14997   15012       3   14976   14982
   15000       3   14976   14985   15006       3   14973   14979   14988       2
   14973   14979   14991       2   14973   14979   14994       2   15933   15882
   15936       1   15930   15882   15933       1   15930   15882   15936       1
   15924   15879   15927       1   15921   15879   15924       1   15921   15879
   15927       1   15915   15876   15918       1   15912   15876   15915       1
   15912   15876   15918       1   15906   15873   15909       1   15903   15873
   15906       1   15903   15873   15909       1   15897   15870   15900       1
   15894   15870   15897       1   15894   15870   15900       1   15888   15867
   15891       1   15885   15867   15888       1   15885   15867   15891       1
   15864   15882   15930       2   15864   15882   15933       2   15864   15882
   15936       2   15861   15879   15921       2   15861   15879   15924       2
   15861   15879   15927       2   15858   15876   15912       2   15858   15876
   15915       2   15858   15876   15918       2   15855   15873   15903       2
   15855   15873   15906       2   15855   15873   15909       2   15852   15870
   15894       2   15852   15870   15897       2   15852   15870   15900       2
   15849   15867   15885       2   15849   15867   15888       2   15849   15867
   15891       2   15840   15783   15843       3   15840   15789   15846       3
   15831   15771   15834       3   15831   15777   15837       3   15822   15759
   15825       3   15822   15765   15828       3   15816   15753   15819       3
   15813   15747   15816       3   15804   15738   15807       3   15804   15744
   15810       3   15795   15723   15798       3   15795   15729   15801       3
   15789   15720   15792       3   15783   15717   15786       3   15777   15714
   15780       3   15771   15711   15774       3   15765   15708   15768       3
   15759   15705   15762       3   15753   15702   15756       3   15747   15699
   15750       3   15741   15696   15744       3   15735   15693   15738       3
   15729   15690   15732       3   15723   15687   15726       3   15720   15789
   15846       3   15717   15783   15843       3   15714   15777   15837       3
   15711   15771   15834       3   15708   15765   15828       3   15705   15759
   15825       3   15702   15753   15819       3   15699   15747   15813       3
   15696   15744   15810       3   15693   15738   15807       3   15690   15729
   15801       3   15687   15723   15798       3   15681   15717   15786       3
   15681   15720   15792       3   15678   15711   15774       3   15678   15714
   15780       3   15672   15705   15762       3   15672   15708   15768       3
   15669   15699   15750       3   15669   15702   15756       3   15666   15693
   15735       3   15666   15696   15741       3   15663   15687   15726       3
   15663   15690   15732       3   15657   15627   15660       3   15648   15618
   15651       3   15633   15597   15636       1   15630   15597   15633       1
   15630   15597   15636       1   15627   15657   15684       3   15624   15657
   15684       3   15621   15591   15624       3   15618   15648   15675       3
   15612   15585   15615       3   15612   15648   15675       3   15606   15582
   15609       3   15606   15600   15639       3   15600   15579   15603       3
   15594   15627   15660      11   15588   15618   15651      11   15579   15600
   15639       3   15576   15597   15630       2   15576   15597   15633       2
   15576   15597   15636       2   15573   15591   15621       3   15570   15585
   15615       3   15567   15582   15609       3   15564   15579   15603      11
   15555   15534   15558       3   15555   15540   15561       3   15546   15528
   15552      11   15540   15519   15543       3   15534   15516   15537       3
   15528   15513   15531       3   15522   15510   15525       3   15519   15540
   15561       3   15516   15534   15558       3   15513   15528   15552       3
   15507   15516   15537       3   15507   15519   15543       3   15504   15510
   15525       3   15504   15513   15531       3   15492   15480   15495       3
   15492   15486   15498       3   15486   15468   15489       3   15480   15465
   15483       3   15474   15462   15477       1   15471   15462   15474       1
   15471   15462   15477       1   15468   15486   15498       3   15465   15480
   15495       3   15459   15465   15483       3   15459   15468   15489       3
   15456   15462   15471       2   15456   15462   15474       2   15456   15462
   15477       2   16416   16365   16419       1   16413   16365   16416       1
   16413   16365   16419       1   16407   16362   16410       1   16404   16362
   16407       1   16404   16362   16410       1   16398   16359   16401       1
   16395   16359   16398       1   16395   16359   16401       1   16389   16356
   16392       1   16386   16356   16389       1   16386   16356   16392       1
   16380   16353   16383       1   16377   16353   16380       1   16377   16353
   16383       1   16371   16350   16374       1   16368   16350   16371       1
   16368   16350   16374       1   16347   16365   16413       2   16347   16365
   16416       2   16347   16365   16419       2   16344   16362   16404       2
   16344   16362   16407       2   16344   16362   16410       2   16341   16359
   16395       2   16341   16359   16398       2   16341   16359   16401       2
   16338   16356   16386       2   16338   16356   16389       2   16338   16356
   16392       2   16335   16353   16377       2   16335   16353   16380       2
   16335   16353   16383       2   16332   16350   16368       2   16332   16350
   16371       2   16332   16350   16374       2   16323   16266   16326       3
   16323   16272   16329       3   16314   16254   16317       3   16314   16260
   16320       3   16305   16242   16308       3   16305   16248   16311       3
   16299   16236   16302       3   16296   16230   16299       3   16287   16221
   16290       3   16287   16227   16293       3   16278   16206   16281       3
   16278   16212   16284       3   16272   16203   16275       3   16266   16200
   16269       3   16260   16197   16263       3   16254   16194   16257       3
   16248   16191   16251       3   16242   16188   16245       3   16236   16185
   16239       3   16230   16182   16233       3   16224   16179   16227       3
   16218   16176   16221       3   16212   16173   16215       3   16206   16170
   16209       3   16203   16272   16329       3   16200   16266   16326       3
   16197   16260   16320       3   16194   16254   16317       3   16191   16248
   16311       3   16188   16242   16308       3   16185   16236   16302       3
   16182   16230   16296       3   16179   16227   16293       3   16176   16221
   16290       3   16173   16212   16284       3   16170   16206   16281       3
   16164   16200   16269       3   16164   16203   16275       3   16161   16194
   16257       3   16161   16197   16263       3   16155   16188   16245       3
   16155   16191   16251       3   16152   16182   16233       3   16152   16185
   16239       3   16149   16176   16218       3   16149   16179   16224       3
   16146   16170   16209       3   16146   16173   16215       3   16140   16110
   16143       3   16131   16101   16134       3   16116   16080   16119       1
   16113   16080   16116       1   16113   16080   16119       1   16110   16140
   16167       3   16107   16140   16167       3   16104   16074   16107       3
   16101   16131   16158       3   16095   16068   16098       3   16095   16131
   16158       3   16089   16065   16092       3   16089   16083   16122       3
   16083   16062   16086       3   16077   16110   16143      11   16071   16101
   16134      11   16062   16083   16122       3   16059   16080   16113       2
   16059   16080   16116       2   16059   16080   16119       2   16056   16074
   16104       3   16053   16068   16098       3   16050   16065   16092       3
   16047   16062   16086      11   16038   16017   16041       3   16038   16023
   16044       3   16029   16011   16035      11   16023   16002   16026       3
   16017   15999   16020       3   16011   15996   16014       3   16005   15993
   16008       3   16002   16023   16044       3   15999   16017   16041       3
   15996   16011   16035       3   15990   15999   16020       3   15990   16002
   16026       3   15987   15993   16008       3   15987   15996   16014       3
   15975   15963   15978       3   15975   15969   15981       3   15969   15951
   15972       3   15963   15948   15966       3   15957   15945   15960       1
   15954   15945   15957       1   15954   15945   15960       1   15951   15969
   15981       3   15948   15963   15978       3   15942   15948   15966       3
   15942   15951   15972       3   15939   15945   15954       2   15939   15945
   15957       2   15939   15945   15960       2   16899   16848   16902       1
   16896   16848   16899       1   16896   16848   16902       1   16890   16845
   16893       1   16887   16845   16890       1   16887   16845   16893       1
   16881   16842   16884       1   16878   16842   16881       1   16878   16842
   16884       1   16872   16839   16875       1   16869   16839   16872       1
   16869   16839   16875       1   16863   16836   16866       1   16860   16836
   16863       1   16860   16836   16866       1   16854   16833   16857       1
   16851   16833   16854       1   16851   16833   16857       1   16830   16848
   16896       2   16830   16848   16899       2   16830   16848   16902       2
   16827   16845   16887       2   16827   16845   16890       2   16827   16845
   16893       2   16824   16842   16878       2   16824   16842   16881       2
   16824   16842   16884       2   16821   16839   16869       2   16821   16839
   16872       2   16821   16839   16875       2   16818   16836   16860       2
   16818   16836   16863       2   16818   16836   16866       2   16815   16833
   16851       2   16815   16833   16854       2   16815   16833   16857       2
   16806   16749   16809       3   16806   16755   16812       3   16797   16737
   16800       3   16797   16743   16803       3   16788   16725   16791       3
   16788   16731   16794       3   16782   16719   16785       3   16779   16713
   16782       3   16770   16704   16773       3   16770   16710   16776       3
   16761   16689   16764       3   16761   16695   16767       3   16755   16686
   16758       3   16749   16683   16752       3   16743   16680   16746       3
   16737   16677   16740       3   16731   16674   16734       3   16725   16671
   16728       3   16719   16668   16722       3   16713   16665   16716       3
   16707   16662   16710       3   16701   16659   16704       3   16695   16656
   16698       3   16689   16653   16692       3   16686   16755   16812       3
   16683   16749   16809       3   16680   16743   16803       3   16677   16737
   16800       3   16674   16731   16794       3   16671   16725   16791       3
   16668   16719   16785       3   16665   16713   16779       3   16662   16710
   16776       3   16659   16704   16773       3   16656   16695   16767       3
   16653   16689   16764       3   16647   16683   16752       3   16647   16686
   16758       3   16644   16677   16740       3   16644   16680   16746       3
   16638   16671   16728       3   16638   16674   16734       3   16635   16665
   16716       3   16635   16668   16722       3   16632   16659   16701       3
   16632   16662   16707       3   16629   16653   16692       3   16629   16656
   16698       3   16623   16593   16626       3   16614   16584   16617       3
   16599   16563   16602       1   16596   16563   16599       1   16596   16563
   16602       1   16593   16623   16650       3   16590   16623   16650       3
   16587   16557   16590       3   16584   16614   16641       3   16578   16551
   16581       3   16578   16614   16641       3   16572   16548   16575       3
   16572   16566   16605       3   16566   16545   16569       3   16560   16593
   16626      11   16554   16584   16617      11   16545   16566   16605       3
   16542   16563   16596       2   16542   16563   16599       2   16542   16563
   16602       2   16539   16557   16587       3   16536   16551   16581       3
   16533   16548   16575       3   16530   16545   16569      11   16521   16500
   16524       3   16521   16506   16527       3   16512   16494   16518      11
   16506   16485   16509       3   16500   16482   16503       3   16494   16479
   16497       3   16488   16476   16491       3   16485   16506   16527       3
   16482   16500   16524       3   16479   16494   16518       3   16473   16482
   16503       3   16473   16485   16509       3   16470   16476   16491       3
   16470   16479   16497       3   16458   16446   16461       3   16458   16452
   16464       3   16452   16434   16455       3   16446   16431   16449       3
   16440   16428   16443       1   16437   16428   16440       1   16437   16428
   16443       1   16434   16452   16464       3   16431   16446   16461       3
   16425   16431   16449       3   16425   16434   16455       3   16422   16428
   16437       2   16422   16428   16440       2   16422   16428   16443       2
   17382   17331   17385       1   17379   17331   17382       1   17379   17331
   17385       1   17373   17328   17376       1   17370   17328   17373       1
   17370   17328   17376       1   17364   17325   17367       1   17361   17325
   17364       1   17361   17325   17367       1   17355   17322   17358       1
   17352   17322   17355       1   17352   17322   17358       1   17346   17319
   17349       1   17343   17319   17346       1   17343   17319   17349       1
   17337   17316   17340       1   17334   17316   17337       1   17334   17316
   17340       1   17313   17331   17379       2   17313   17331   17382       2
   17313   17331   17385       2   17310   17328   17370       2   17310   17328
   17373       2   17310   17328   17376       2   17307   17325   17361       2
   17307   17325   17364       2   17307   17325   17367       2   17304   17322
   17352       2   17304   17322   17355       2   17304   17322   17358       2
   17301   17319   17343       2   17301   17319   17346       2   17301   17319
   17349       2   17298   17316   17334       2   17298   17316   17337       2
   17298   17316   17340       2   17289   17232   17292       3   17289   17238
   17295       3   17280   17220   17283       3   17280   17226   17286       3
   17271   17208   17274       3   17271   17214   17277       3   17265   17202
   17268       3   17262   17196   17265       3   17253   17187   17256       3
   17253   17193   17259       3   17244   17172   17247       3   17244   17178
   17250       3   17238   17169   17241       3   17232   17166   17235       3
   17226   17163   17229       3   17220   17160   17223       3   17214   17157
   17217       3   17208   17154   17211       3   17202   17151   17205       3
   17196   17148   17199       3   17190   17145   17193       3   17184   17142
   17187       3   17178   17139   17181       3   17172   17136   17175       3
   17169   17238   17295       3   17166   17232   17292       3   17163   17226
   17286       3   17160   17220   17283       3   17157   17214   17277       3
   17154   17208   17274       3   17151   17202   17268       3   17148   17196
   17262       3   17145   17193   17259       3   17142   17187   17256       3
   17139   17178   17250       3   17136   17172   17247       3   17130   17166
   17235       3   17130   17169   17241       3   17127   17160   17223       3
   17127   17163   17229       3   17121   17154   17211       3   17121   17157
   17217       3   17118   17148   17199       3   17118   17151   17205       3
   17115   17142   17184       3   17115   17145   17190       3   17112   17136
   17175       3   17112   17139   17181       3   17106   17076   17109       3
   17097   17067   17100       3   17082   17046   17085       1   17079   17046
   17082       1   17079   17046   17085       1   17076   17106   17133       3
   17073   17106   17133       3   17070   17040   17073       3   17067   17097
   17124       3   17061   17034   17064       3   17061   17097   17124       3
   17055   17031   17058       3   17055   17049   17088       3   17049   17028
   17052       3   17043   17076   17109      11   17037   17067   17100      11
   17028   17049   17088       3   17025   17046   17079       2   17025   17046
   17082       2   17025   17046   17085       2   17022   17040   17070       3
   17019   17034   17064       3   17016   17031   17058       3   17013   17028
   17052      11   17004   16983   17007       3   17004   16989   17010       3
   16995   16977   17001      11   16989   16968   16992       3   16983   16965
   16986       3   16977   16962   16980       3   16971   16959   16974       3
   16968   16989   17010       3   16965   16983   17007       3   16962   16977
   17001       3   16956   16965   16986       3   16956   16968   16992       3
   16953   16959   16974       3   16953   16962   16980       3   16941   16929
   16944       3   16941   16935   16947       3   16935   16917   16938       3
   16929   16914   16932       3   16923   16911   16926       1   16920   16911
   16923       1   16920   16911   16926       1   16917   16935   16947       3
   16914   16929   16944       3   16908   16914   16932       3   16908   16917
   16938       3   16905   16911   16920       2   16905   16911   16923       2
   16905   16911   16926       2   17865   17814   17868       1   17862   17814
   17865       1   17862   17814   17868       1   17856   17811   17859       1
   17853   17811   17856       1   17853   17811   17859       1   17847   17808
   17850       1   17844   17808   17847       1   17844   17808   17850       1
   17838   17805   17841       1   17835   17805   17838       1   17835   17805
   17841       1   17829   17802   17832       1   17826   17802   17829       1
   17826   17802   17832       1   17820   17799   17823       1   17817   17799
   17820       1   17817   17799   17823       1   17796   17814   17862       2
   17796   17814   17865       2   17796   17814   17868       2   17793   17811
   17853       2   17793   17811   17856       2   17793   17811   17859       2
   17790   17808   17844       2   17790   17808   17847       2   17790   17808
   17850       2   17787   17805   17835       2   17787   17805   17838       2
   17787   17805   17841       2   17784   17802   17826       2   17784   17802
   17829       2   17784   17802   17832       2   17781   17799   17817       2
   17781   17799   17820       2   17781   17799   17823       2   17772   17715
   17775       3   17772   17721   17778       3   17763   17703   17766       3
   17763   17709   17769       3   17754   17691   17757       3   17754   17697
   17760       3   17748   17685   17751       3   17745   17679   17748       3
   17736   17670   17739       3   17736   17676   17742       3   17727   17655
   17730       3   17727   17661   17733       3   17721   17652   17724       3
   17715   17649   17718       3   17709   17646   17712       3   17703   17643
   17706       3   17697   17640   17700       3   17691   17637   17694       3
   17685   17634   17688       3   17679   17631   17682       3   17673   17628
   17676       3   17667   17625   17670       3   17661   17622   17664       3
   17655   17619   17658       3   17652   17721   17778       3   17649   17715
   17775       3   17646   17709   17769       3   17643   17703   17766       3
   17640   17697   17760       3   17637   17691   17757       3   17634   17685
   17751       3   17631   17679   17745       3   17628   17676   17742       3
   17625   17670   17739       3   17622   17661   17733       3   17619   17655
   17730       3   17613   17649   17718       3   17613   17652   17724       3
   17610   17643   17706       3   17610   17646   17712       3   17604   17637
   17694       3   17604   17640   17700       3   17601   17631   17682       3
   17601   17634   17688       3   17598   17625   17667       3   17598   17628
   17673       3   17595   17619   17658       3   17595   17622   17664       3
   17589   17559   17592       3   17580   17550   17583       3   17565   17529
   17568       1   17562   17529   17565       1   17562   17529   17568       1
   17559   17589   17616       3   17556   17589   17616       3   17553   17523
   17556       3   17550   17580   17607       3   17544   17517   17547       3
   17544   17580   17607       3   17538   17514   17541       3   17538   17532
   17571       3   17532   17511   17535       3   17526   17559   17592      11
   17520   17550   17583      11   17511   17532   17571       3   17508   17529
   17562       2   17508   17529   17565       2   17508   17529   17568       2
   17505   17523   17553       3   17502   17517   17547       3   17499   17514
   17541       3   17496   17511   17535      11   17487   17466   17490       3
   17487   17472   17493       3   17478   17460   17484      11   17472   17451
   17475       3   17466   17448   17469       3   17460   17445   17463       3
   17454   17442   17457       3   17451   17472   17493       3   17448   17466
   17490       3   17445   17460   17484       3   17439   17448   17469       3
   17439   17451   17475       3   17436   17442   17457       3   17436   17445
   17463       3   17424   17412   17427       3   17424   17418   17430       3
   17418   17400   17421       3   17412   17397   17415       3   17406   17394
   17409       1   17403   17394   17406       1   17403   17394   17409       1
   17400   17418   17430       3   17397   17412   17427       3   17391   17397
   17415       3   17391   17400   17421       3   17388   17394   17403       2
   17388   17394   17406       2   17388   17394   17409       2   18348   18297
   18351       1   18345   18297   18348       1   18345   18297   18351       1
   18339   18294   18342       1   18336   18294   18339       1   18336   18294
   18342       1   18330   18291   18333       1   18327   18291   18330       1
   18327   18291   18333       1   18321   18288   18324       1   18318   18288
   18321       1   18318   18288   18324       1   18312   18285   18315       1
   18309   18285   18312       1   18309   18285   18315       1   18303   18282
   18306       1   18300   18282   18303       1   18300   18282   18306       1
   18279   18297   18345       2   18279   18297   18348       2   18279   18297
   18351       2   18276   18294   18336       2   18276   18294   18339       2
   18276   18294   18342       2   18273   18291   18327       2   18273   18291
   18330       2   18273   18291   18333       2   18270   18288   18318       2
   18270   18288   18321       2   18270   18288   18324       2   18267   18285
   18309       2   18267   18285   18312       2   18267   18285   18315       2
   18264   18282   18300       2   18264   18282   18303       2   18264   18282
   18306       2   18255   18198   18258       3   18255   18204   18261       3
   18246   18186   18249       3   18246   18192   18252       3   18237   18174
   18240       3   18237   18180   18243       3   18231   18168   18234       3
   18228   18162   18231       3   18219   18153   18222       3   18219   18159
   18225       3   18210   18138   18213       3   18210   18144   18216       3
   18204   18135   18207       3   18198   18132   18201       3   18192   18129
   18195       3   18186   18126   18189       3   18180   18123   18183       3
   18174   18120   18177       3   18168   18117   18171       3   18162   18114
   18165       3   18156   18111   18159       3   18150   18108   18153       3
   18144   18105   18147       3   18138   18102   18141       3   18135   18204
   18261       3   18132   18198   18258       3   18129   18192   18252       3
   18126   18186   18249       3   18123   18180   18243       3   18120   18174
   18240       3   18117   18168   18234       3   18114   18162   18228       3
   18111   18159   18225       3   18108   18153   18222       3   18105   18144
   18216       3   18102   18138   18213       3   18096   18132   18201       3
   18096   18135   18207       3   18093   18126   18189       3   18093   18129
   18195       3   18087   18120   18177       3   18087   18123   18183       3
   18084   18114   18165       3   18084   18117   18171       3   18081   18108
   18150       3   18081   18111   18156       3   18078   18102   18141       3
   18078   18105   18147       3   18072   18042   18075       3   18063   18033
   18066       3   18048   18012   18051       1   18045   18012   18048       1
   18045   18012   18051       1   18042   18072   18099       3   18039   18072
   18099       3   18036   18006   18039       3   18033   18063   18090       3
   18027   18000   18030       3   18027   18063   18090       3   18021   17997
   18024       3   18021   18015   18054       3   18015   17994   18018       3
   18009   18042   18075      11   18003   18033   18066      11   17994   18015
   18054       3   17991   18012   18045       2   17991   18012   18048       2
   17991   18012   18051       2   17988   18006   18036       3   17985   18000
   18030       3   17982   17997   18024       3   17979   17994   18018      11
   17970   17949   17973       3   17970   17955   17976       3   17961   17943
   17967      11   17955   17934   17958       3   17949   17931   17952       3
   17943   17928   17946       3   17937   17925   17940       3   17934   17955
   17976       3   17931   17949   17973       3   17928   17943   17967       3
   17922   17931   17952       3   17922   17934   17958       3   17919   17925
   17940       3   17919   17928   17946       3   17907   17895   17910       3
   17907   17901   17913       3   17901   17883   17904       3   17895   17880
   17898       3   17889   17877   17892       1   17886   17877   17889       1
   17886   17877   17892       1   17883   17901   17913       3   17880   17895
   17910       3   17874   17880   17898       3   17874   17883   17904       3
   17871   17877   17886       2   17871   17877   17889       2   17871   17877
   17892       2   18831   18780   18834       1   18828   18780   18831       1
   18828   18780   18834       1   18822   18777   18825       1   18819   18777
   18822       1   18819   18777   18825       1   18813   18774   18816       1
   18810   18774   18813       1   18810   18774   18816       1   18804   18771
   18807       1   18801   18771   18804       1   18801   18771   18807       1
   18795   18768   18798       1   18792   18768   18795       1   18792   18768
   18798       1   18786   18765   18789       1   18783   18765   18786       1
   18783   18765   18789       1   18762   18780   18828       2   18762   18780
   18831       2   18762   18780   18834       2   18759   18777   18819       2
   18759   18777   18822       2   18759   18777   18825       2   18756   18774
   18810       2   18756   18774   18813       2   18756   18774   18816       2
   18753   18771   18801       2   18753   18771   18804       2   18753   18771
   18807       2   18750   18768   18792       2   18750   18768   18795       2
   18750   18768   18798       2   18747   18765   18783       2   18747   18765
   18786       2   18747   18765   18789       2   18738   18681   18741       3
   18738   18687   18744       3   18729   18669   18732       3   18729   18675
   18735       3   18720   18657   18723       3   18720   18663   18726       3
   18714   18651   18717       3   18711   18645   18714       3   18702   18636
   18705       3   18702   18642   18708       3   18693   18621   18696       3
   18693   18627   18699       3   18687   18618   18690       3   18681   18615
   18684       3   18675   18612   18678       3   18669   18609   18672       3
   18663   18606   18666       3   18657   18603   18660       3   18651   18600
   18654       3   18645   18597   18648       3   18639   18594   18642       3
   18633   18591   18636       3   18627   18588   18630       3   18621   18585
   18624       3   18618   18687   18744       3   18615   18681   18741       3
   18612   18675   18735       3   18609   18669   18732       3   18606   18663
   18726       3   18603   18657   18723       3   18600   18651   18717       3
   18597   18645   18711       3   18594   18642   18708       3   18591   18636
   18705       3   18588   18627   18699       3   18585   18621   18696       3
   18579   18615   18684       3   18579   18618   18690       3   18576   18609
   18672       3   18576   18612   18678       3   18570   18603   18660       3
   18570   18606   18666       3   18567   18597   18648       3   18567   18600
   18654       3   18564   18591   18633       3   18564   18594   18639       3
   18561   18585   18624       3   18561   18588   18630       3   18555   18525
   18558       3   18546   18516   18549       3   18531   18495   18534       1
   18528   18495   18531       1   18528   18495   18534       1   18525   18555
   18582       3   18522   18555   18582       3   18519   18489   18522       3
   18516   18546   18573       3   18510   18483   18513       3   18510   18546
   18573       3   18504   18480   18507       3   18504   18498   18537       3
   18498   18477   18501       3   18492   18525   18558      11   18486   18516
   18549      11   18477   18498   18537       3   18474   18495   18528       2
   18474   18495   18531       2   18474   18495   18534       2   18471   18489
   18519       3   18468   18483   18513       3   18465   18480   18507       3
   18462   18477   18501      11   18453   18432   18456       3   18453   18438
   18459       3   18444   18426   18450      11   18438   18417   18441       3
   18432   18414   18435       3   18426   18411   18429       3   18420   18408
   18423       3   18417   18438   18459       3   18414   18432   18456       3
   18411   18426   18450       3   18405   18414   18435       3   18405   18417
   18441       3   18402   18408   18423       3   18402   18411   18429       3
   18390   18378   18393       3   18390   18384   18396       3   18384   18366
   18387       3   18378   18363   18381       3   18372   18360   18375       1
   18369   18360   18372       1   18369   18360   18375       1   18366   18384
   18396       3   18363   18378   18393       3   18357   18363   18381       3
   18357   18366   18387       3   18354   18360   18369       2   18354   18360
   18372       2   18354   18360   18375       2   19314   19263   19317       1
   19311   19263   19314       1   19311   19263   19317       1   19305   19260
   19308       1   19302   19260   19305       1   19302   19260   19308       1
   19296   19257   19299       1   19293   19257   19296       1   19293   19257
   19299       1   19287   19254   19290       1   19284   19254   19287       1
   19284   19254   19290       1   19278   19251   19281       1   19275   19251
   19278       1   19275   19251   19281       1   19269   19248   19272       1
   19266   19248   19269       1   19266   19248   19272       1   19245   19263
   19311       2   19245   19263   19314       2   19245   19263   19317       2
   19242   19260   19302       2   19242   19260   19305       2   19242   19260
   19308       2   19239   19257   19293       2   19239   19257   19296       2
   19239   19257   19299       2   19236   19254   19284       2   19236   19254
   19287       2   19236   19254   19290       2   19233   19251   19275       2
   19233   19251   19278       2   19233   19251   19281       2   19230   19248
   19266       2   19230   19248   19269       2   19230   19248   19272       2
   19221   19164   19224       3   19221   19170   19227       3   19212   19152
   19215       3   19212   19158   19218       3   19203   19140   19206       3
   19203   19146   19209       3   19197   19134   19200       3   19194   19128
   19197       3   19185   19119   19188       3   19185   19125   19191       3
   19176   19104   19179       3   19176   19110   19182       3   19170   19101
   19173       3   19164   19098   19167       3   19158   19095   19161       3
   19152   19092   19155       3   19146   19089   19149       3   19140   19086
   19143       3   19134   19083   19137       3   19128   19080   19131       3
   19122   19077   19125       3   19116   19074   19119       3   19110   19071
   19113       3   19104   19068   19107       3   19101   19170   19227       3
   19098   19164   19224       3   19095   19158   19218       3   19092   19152
   19215       3   19089   19146   19209       3   19086   19140   19206       3
   19083   19134   19200       3   19080   19128   19194       3   19077   19125
   19191       3   19074   19119   19188       3   19071   19110   19182       3
   19068   19104   19179       3   19062   19098   19167       3   19062   19101
   19173       3   19059   19092   19155       3   19059   19095   19161       3
   19053   19086   19143       3   19053   19089   19149       3   19050   19080
   19131       3   19050   19083   19137       3   19047   19074   19116       3
   19047   19077   19122       3   19044   19068   19107       3   19044   19071
   19113       3   19038   19008   19041       3   19029   18999   19032       3
   19014   18978   19017       1   19011   18978   19014       1   19011   18978
   19017       1   19008   19038   19065       3   19005   19038   19065       3
   19002   18972   19005       3   18999   19029   19056       3   18993   18966
   18996       3   18993   19029   19056       3   18987   18963   18990       3
   18987   18981   19020       3   18981   18960   18984       3   18975   19008
   19041      11   18969   18999   19032      11   18960   18981   19020       3
   18957   18978   19011       2   18957   18978   19014       2   18957   18978
   19017       2   18954   18972   19002       3   18951   18966   18996       3
   18948   18963   18990       3   18945   18960   18984      11   18936   18915
   18939       3   18936   18921   18942       3   18927   18909   18933      11
   18921   18900   18924       3   18915   18897   18918       3   18909   18894
   18912       3   18903   18891   18906       3   18900   18921   18942       3
   18897   18915   18939       3   18894   18909   18933       3   18888   18897
   18918       3   18888   18900   18924       3   18885   18891   18906       3
   18885   18894   18912       3   18873   18861   18876       3   18873   18867
   18879       3   18867   18849   18870       3   18861   18846   18864       3
   18855   18843   18858       1   18852   18843   18855       1   18852   18843
   18858       1   18849   18867   18879       3   18846   18861   18876       3
   18840   18846   18864       3   18840   18849   18870       3   18837   18843
   18852       2   18837   18843   18855       2   18837   18843   18858       2
   19797   19746   19800       1   19794   19746   19797       1   19794   19746
   19800       1   19788   19743   19791       1   19785   19743   19788       1
   19785   19743   19791       1   19779   19740   19782       1   19776   19740
   19779       1   19776   19740   19782       1   19770   19737   19773       1
   19767   19737   19770       1   19767   19737   19773       1   19761   19734
   19764       1   19758   19734   19761       1   19758   19734   19764       1
   19752   19731   19755       1   19749   19731   19752       1   19749   19731
   19755       1   19728   19746   19794       2   19728   19746   19797       2
   19728   19746   19800       2   19725   19743   19785       2   19725   19743
   19788       2   19725   19743   19791       2   19722   19740   19776       2
   19722   19740   19779       2   19722   19740   19782       2   19719   19737
   19767       2   19719   19737   19770       2   19719   19737   19773       2
   19716   19734   19758       2   19716   19734   19761       2   19716   19734
   19764       2   19713   19731   19749       2   19713   19731   19752       2
   19713   19731   19755       2   19704   19647   19707       3   19704   19653
   19710       3   19695   19635   19698       3   19695   19641   19701       3
   19686   19623   19689       3   19686   19629   19692       3   19680   19617
   19683       3   19677   19611   19680       3   19668   19602   19671       3
   19668   19608   19674       3   19659   19587   19662       3   19659   19593
   19665       3   19653   19584   19656       3   19647   19581   19650       3
   19641   19578   19644       3   19635   19575   19638       3   19629   19572
   19632       3   19623   19569   19626       3   19617   19566   19620       3
   19611   19563   19614       3   19605   19560   19608       3   19599   19557
   19602       3   19593   19554   19596       3   19587   19551   19590       3
   19584   19653   19710       3   19581   19647   19707       3   19578   19641
   19701       3   19575   19635   19698       3   19572   19629   19692       3
   19569   19623   19689       3   19566   19617   19683       3   19563   19611
   19677       3   19560   19608   19674       3   19557   19602   19671       3
   19554   19593   19665       3   19551   19587   19662       3   19545   19581
   19650       3   19545   19584   19656       3   19542   19575   19638       3
   19542   19578   19644       3   19536   19569   19626       3   19536   19572
   19632       3   19533   19563   19614       3   19533   19566   19620       3
   19530   19557   19599       3   19530   19560   19605       3   19527   19551
   19590       3   19527   19554   19596       3   19521   19491   19524       3
   19512   19482   19515       3   19497   19461   19500       1   19494   19461
   19497       1   19494   19461   19500       1   19491   19521   19548       3
   19488   19521   19548       3   19485   19455   19488       3   19482   19512
   19539       3   19476   19449   19479       3   19476   19512   19539       3
   19470   19446   19473       3   19470   19464   19503       3   19464   19443
   19467       3   19458   19491   19524      11   19452   19482   19515      11
   19443   19464   19503       3   19440   19461   19494       2   19440   19461
   19497       2   19440   19461   19500       2   19437   19455   19485       3
   19434   19449   19479       3   19431   19446   19473       3   19428   19443
   19467      11   19419   19398   19422       3   19419   19404   19425       3
   19410   19392   19416      11   19404   19383   19407       3   19398   19380
   19401       3   19392   19377   19395       3   19386   19374   19389       3
   19383   19404   19425       3   19380   19398   19422       3   19377   19392
   19416       3   19371   19380   19401       3   19371   19383   19407       3
   19368   19374   19389       3   19368   19377   19395       3   19356   19344
   19359       3   19356   19350   19362       3   19350   19332   19353       3
   19344   19329   19347       3   19338   19326   19341       1   19335   19326
   19338       1   19335   19326   19341       1   19332   19350   19362       3
   19329   19344   19359       3   19323   19329   19347       3   19323   19332
   19353       3   19320   19326   19335       2   19320   19326   19338       2
   19320   19326   19341       2   20280   20229   20283       1   20277   20229
   20280       1   20277   20229   20283       1   20271   20226   20274       1
   20268   20226   20271       1   20268   20226   20274       1   20262   20223
   20265       1   20259   20223   20262       1   20259   20223   20265       1
   20253   20220   20256       1   20250   20220   20253       1   20250   20220
   20256       1   20244   20217   20247       1   20241   20217   20244       1
   20241   20217   20247       1   20235   20214   20238       1   20232   20214
   20235       1   20232   20214   20238       1   20211   20229   20277       2
   20211   20229   20280       2   20211   20229   20283       2   20208   20226
   20268       2   20208   20226   20271       2   20208   20226   20274       2
   20205   20223   20259       2   20205   20223   20262       2   20205   20223
   20265       2   20202   20220   20250       2   20202   20220   20253       2
   20202   20220   20256       2   20199   20217   20241       2   20199   20217
   20244       2   20199   20217   20247       2   20196   20214   20232       2
   20196   20214   20235       2   20196   20214   20238       2   20187   20130
   20190       3   20187   20136   20193       3   20178   20118   20181       3
   20178   20124   20184       3   20169   20106   20172       3   20169   20112
   20175       3   20163   20100   20166       3   20160   20094   20163       3
   20151   20085   20154       3   20151   20091   20157       3   20142   20070
   20145       3   20142   20076   20148       3   20136   20067   20139       3
   20130   20064   20133       3   20124   20061   20127       3   20118   20058
   20121       3   20112   20055   20115       3   20106   20052   20109       3
   20100   20049   20103       3   20094   20046   20097       3   20088   20043
   20091       3   20082   20040   20085       3   20076   20037   20079       3
   20070   20034   20073       3   20067   20136   20193       3   20064   20130
   20190       3   20061   20124   20184       3   20058   20118   20181       3
   20055   20112   20175       3   20052   20106   20172       3   20049   20100
   20166       3   20046   20094   20160       3   20043   20091   20157       3
   20040   20085   20154       3   20037   20076   20148       3   20034   20070
   20145       3   20028   20064   20133       3   20028   20067   20139       3
   20025   20058   20121       3   20025   20061   20127       3   20019   20052
   20109       3   20019   20055   20115       3   20016   20046   20097       3
   20016   20049   20103       3   20013   20040   20082       3   20013   20043
   20088       3   20010   20034   20073       3   20010   20037   20079       3
   20004   19974   20007       3   19995   19965   19998       3   19980   19944
   19983       1   19977   19944   19980       1   19977   19944   19983       1
   19974   20004   20031       3   19971   20004   20031       3   19968   19938
   19971       3   19965   19995   20022       3   19959   19932   19962       3
   19959   19995   20022       3   19953   19929   19956       3   19953   19947
   19986       3   19947   19926   19950       3   19941   19974   20007      11
   19935   19965   19998      11   19926   19947   19986       3   19923   19944
   19977       2   19923   19944   19980       2   19923   19944   19983       2
   19920   19938   19968       3   19917   19932   19962       3   19914   19929
   19956       3   19911   19926   19950      11   19902   19881   19905       3
   19902   19887   19908       3   19893   19875   19899      11   19887   19866
   19890       3   19881   19863   19884       3   19875   19860   19878       3
   19869   19857   19872       3   19866   19887   19908       3   19863   19881
   19905       3   19860   19875   19899       3   19854   19863   19884       3
   19854   19866   19890       3   19851   19857   19872       3   19851   19860
   19878       3   19839   19827   19842       3   19839   19833   19845       3
   19833   19815   19836       3   19827   19812   19830       3   19821   19809
   19824       1   19818   19809   19821       1   19818   19809   19824       1
   19815   19833   19845       3   19812   19827   19842       3   19806   19812
   19830       3   19806   19815   19836       3   19803   19809   19818       2
   19803   19809   19821       2   19803   19809   19824       2   20763   20712
   20766       1   20760   20712   20763       1   20760   20712   20766       1
   20754   20709   20757       1   20751   20709   20754       1   20751   20709
   20757       1   20745   20706   20748       1   20742   20706   20745       1
   20742   20706   20748       1   20736   20703   20739       1   20733   20703
   20736       1   20733   20703   20739       1   20727   20700   20730       1
   20724   20700   20727       1   20724   20700   20730       1   20718   20697
   20721       1   20715   20697   20718       1   20715   20697   20721       1
   20694   20712   20760       2   20694   20712   20763       2   20694   20712
   20766       2   20691   20709   20751       2   20691   20709   20754       2
   20691   20709   20757       2   20688   20706   20742       2   20688   20706
   20745       2   20688   20706   20748       2   20685   20703   20733       2
   20685   20703   20736       2   20685   20703   20739       2   20682   20700
   20724       2   20682   20700   20727       2   20682   20700   20730       2
   20679   20697   20715       2   20679   20697   20718       2   20679   20697
   20721       2   20670   20613   20673       3   20670   20619   20676       3
   20661   20601   20664       3   20661   20607   20667       3   20652   20589
   20655       3   20652   20595   20658       3   20646   20583   20649       3
   20643   20577   20646       3   20634   20568   20637       3   20634   20574
   20640       3   20625   20553   20628       3   20625   20559   20631       3
   20619   20550   20622       3   20613   20547   20616       3   20607   20544
   20610       3   20601   20541   20604       3   20595   20538   20598       3
   20589   20535   20592       3   20583   20532   20586       3   20577   20529
   20580       3   20571   20526   20574       3   20565   20523   20568       3
   20559   20520   20562       3   20553   20517   20556       3   20550   20619
   20676       3   20547   20613   20673       3   20544   20607   20667       3
   20541   20601   20664       3   20538   20595   20658       3   20535   20589
   20655       3   20532   20583   20649       3   20529   20577   20643       3
   20526   20574   20640       3   20523   20568   20637       3   20520   20559
   20631       3   20517   20553   20628       3   20511   20547   20616       3
   20511   20550   20622       3   20508   20541   20604       3   20508   20544
   20610       3   20502   20535   20592       3   20502   20538   20598       3
   20499   20529   20580       3   20499   20532   20586       3   20496   20523
   20565       3   20496   20526   20571       3   20493   20517   20556       3
   20493   20520   20562       3   20487   20457   20490       3   20478   20448
   20481       3   20463   20427   20466       1   20460   20427   20463       1
   20460   20427   20466       1   20457   20487   20514       3   20454   20487
   20514       3   20451   20421   20454       3   20448   20478   20505       3
   20442   20415   20445       3   20442   20478   20505       3   20436   20412
   20439       3   20436   20430   20469       3   20430   20409   20433       3
   20424   20457   20490      11   20418   20448   20481      11   20409   20430
   20469       3   20406   20427   20460       2   20406   20427   20463       2
   20406   20427   20466       2   20403   20421   20451       3   20400   20415
   20445       3   20397   20412   20439       3   20394   20409   20433      11
   20385   20364   20388       3   20385   20370   20391       3   20376   20358
   20382      11   20370   20349   20373       3   20364   20346   20367       3
   20358   20343   20361       3   20352   20340   20355       3   20349   20370
   20391       3   20346   20364   20388       3   20343   20358   20382       3
   20337   20346   20367       3   20337   20349   20373       3   20334   20340
   20355       3   20334   20343   20361       3   20322   20310   20325       3
   20322   20316   20328       3   20316   20298   20319       3   20310   20295
   20313       3   20304   20292   20307       1   20301   20292   20304       1
   20301   20292   20307       1   20298   20316   20328       3   20295   20310
   20325       3   20289   20295   20313       3   20289   20298   20319       3
   20286   20292   20301       2   20286   20292   20304       2   20286   20292
   20307       2   21246   21195   21249       1   21243   21195   21246       1
   21243   21195   21249       1   21237   21192   21240       1   21234   21192
   21237       1   21234   21192   21240       1   21228   21189   21231       1
   21225   21189   21228       1   21225   21189   21231       1   21219   21186
   21222       1   21216   21186   21219       1   21216   21186   21222       1
   21210   21183   21213       1   21207   21183   21210       1   21207   21183
   21213       1   21201   21180   21204       1   21198   21180   21201       1
   21198   21180   21204       1   21177   21195   21243       2   21177   21195
   21246       2   21177   21195   21249       2   21174   21192   21234       2
   21174   21192   21237       2   21174   21192   21240       2   21171   21189
   21225       2   21171   21189   21228       2   21171   21189   21231       2
   21168   21186   21216       2   21168   21186   21219       2   21168   21186
   21222       2   21165   21183   21207       2   21165   21183   21210       2
   21165   21183   21213       2   21162   21180   21198       2   21162   21180
   21201       2   21162   21180   21204       2   21153   21096   21156       3
   21153   21102   21159       3   21144   21084   21147       3   21144   21090
   21150       3   21135   21072   21138       3   21135   21078   21141       3
   21129   21066   21132       3   21126   21060   21129       3   21117   21051
   21120       3   21117   21057   21123       3   21108   21036   21111       3
   21108   21042   21114       3   21102   21033   21105       3   21096   21030
   21099       3   21090   21027   21093       3   21084   21024   21087       3
   21078   21021   21081       3   21072   21018   21075       3   21066   21015
   21069       3   21060   21012   21063       3   21054   21009   21057       3
   21048   21006   21051       3   21042   21003   21045       3   21036   21000
   21039       3   21033   21102   21159       3   21030   21096   21156       3
   21027   21090   21150       3   21024   21084   21147       3   21021   21078
   21141       3   21018   21072   21138       3   21015   21066   21132       3
   21012   21060   21126       3   21009   21057   21123       3   21006   21051
   21120       3   21003   21042   21114       3   21000   21036   21111       3
   20994   21030   21099       3   20994   21033   21105       3   20991   21024
   21087       3   20991   21027   21093       3   20985   21018   21075       3
   20985   21021   21081       3   20982   21012   21063       3   20982   21015
   21069       3   20979   21006   21048       3   20979   21009   21054       3
   20976   21000   21039       3   20976   21003   21045       3   20970   20940
   20973       3   20961   20931   20964       3   20946   20910   20949       1
   20943   20910   20946       1   20943   20910   20949       1   20940   20970
   20997       3   20937   20970   20997       3   20934   20904   20937       3
   20931   20961   20988       3   20925   20898   20928       3   20925   20961
   20988       3   20919   20895   20922       3   20919   20913   20952       3
   20913   20892   20916       3   20907   20940   20973      11   20901   20931
   20964      11   20892   20913   20952       3   20889   20910   20943       2
   20889   20910   20946       2   20889   20910   20949       2   20886   20904
   20934       3   20883   20898   20928       3   20880   20895   20922       3
   20877   20892   20916      11   20868   20847   20871       3   20868   20853
   20874       3   20859   20841   20865      11   20853   20832   20856       3
   20847   20829   20850       3   20841   20826   20844       3   20835   20823
   20838       3   20832   20853   20874       3   20829   20847   20871       3
   20826   20841   20865       3   20820   20829   20850       3   20820   20832
   20856       3   20817   20823   20838       3   20817   20826   20844       3
   20805   20793   20808       3   20805   20799   20811       3   20799   20781
   20802       3   20793   20778   20796       3   20787   20775   20790       1
   20784   20775   20787       1   20784   20775   20790       1   20781   20799
   20811       3   20778   20793   20808       3   20772   20778   20796       3
   20772   20781   20802       3   20769   20775   20784       2   20769   20775
   20787       2   20769   20775   20790       2   21729   21678   21732       1
   21726   21678   21729       1   21726   21678   21732       1   21720   21675
   21723       1   21717   21675   21720       1   21717   21675   21723       1
   21711   21672   21714       1   21708   21672   21711       1   21708   21672
   21714       1   21702   21669   21705       1   21699   21669   21702       1
   21699   21669   21705       1   21693   21666   21696       1   21690   21666
   21693       1   21690   21666   21696       1   21684   21663   21687       1
   21681   21663   21684       1   21681   21663   21687       1   21660   21678
   21726       2   21660   21678   21729       2   21660   21678   21732       2
   21657   21675   21717       2   21657   21675   21720       2   21657   21675
   21723       2   21654   21672   21708       2   21654   21672   21711       2
   21654   21672   21714       2   21651   21669   21699       2   21651   21669
   21702       2   21651   21669   21705       2   21648   21666   21690       2
   21648   21666   21693       2   21648   21666   21696       2   21645   21663
   21681       2   21645   21663   21684       2   21645   21663   21687       2
   21636   21579   21639       3   21636   21585   21642       3   21627   21567
   21630       3   21627   21573   21633       3   21618   21555   21621       3
   21618   21561   21624       3   21612   21549   21615       3   21609   21543
   21612       3   21600   21534   21603       3   21600   21540   21606       3
   21591   21519   21594       3   21591   21525   21597       3   21585   21516
   21588       3   21579   21513   21582       3   21573   21510   21576       3
   21567   21507   21570       3   21561   21504   21564       3   21555   21501
   21558       3   21549   21498   21552       3   21543   21495   21546       3
   21537   21492   21540       3   21531   21489   21534       3   21525   21486
   21528       3   21519   21483   21522       3   21516   21585   21642       3
   21513   21579   21639       3   21510   21573   21633       3   21507   21567
   21630       3   21504   21561   21624       3   21501   21555   21621       3
   21498   21549   21615       3   21495   21543   21609       3   21492   21540
   21606       3   21489   21534   21603       3   21486   21525   21597       3
   21483   21519   21594       3   21477   21513   21582       3   21477   21516
   21588       3   21474   21507   21570       3   21474   21510   21576       3
   21468   21501   21558       3   21468   21504   21564       3   21465   21495
   21546       3   21465   21498   21552       3   21462   21489   21531       3
   21462   21492   21537       3   21459   21483   21522       3   21459   21486
   21528       3   21453   21423   21456       3   21444   21414   21447       3
   21429   21393   21432       1   21426   21393   21429       1   21426   21393
   21432       1   21423   21453   21480       3   21420   21453   21480       3
   21417   21387   21420       3   21414   21444   21471       3   21408   21381
   21411       3   21408   21444   21471       3   21402   21378   21405       3
   21402   21396   21435       3   21396   21375   21399       3   21390   21423
   21456      11   21384   21414   21447      11   21375   21396   21435       3
   21372   21393   21426       2   21372   21393   21429       2   21372   21393
   21432       2   21369   21387   21417       3   21366   21381   21411       3
   21363   21378   21405       3   21360   21375   21399      11   21351   21330
   21354       3   21351   21336   21357       3   21342   21324   21348      11
   21336   21315   21339       3   21330   21312   21333       3   21324   21309
   21327       3   21318   21306   21321       3   21315   21336   21357       3
   21312   21330   21354       3   21309   21324   21348       3   21303   21312
   21333       3   21303   21315   21339       3   21300   21306   21321       3
   21300   21309   21327       3   21288   21276   21291       3   21288   21282
   21294       3   21282   21264   21285       3   21276   21261   21279       3
   21270   21258   21273       1   21267   21258   21270       1   21267   21258
   21273       1   21264   21282   21294       3   21261   21276   21291       3
   21255   21261   21279       3   21255   21264   21285       3   21252   21258
   21267       2   21252   21258   21270       2   21252   21258   21273       2
   22212   22161   22215       1   22209   22161   22212       1   22209   22161
   22215       1   22203   22158   22206       1   22200   22158   22203       1
   22200   22158   22206       1   22194   22155   22197       1   22191   22155
   22194       1   22191   22155   22197       1   22185   22152   22188       1
   22182   22152   22185       1   22182   22152   22188       1   22176   22149
   22179       1   22173   22149   22176       1   22173   22149   22179       1
   22167   22146   22170       1   22164   22146   22167       1   22164   22146
   22170       1   22143   22161   22209       2   22143   22161   22212       2
   22143   22161   22215       2   22140   22158   22200       2   22140   22158
   22203       2   22140   22158   22206       2   22137   22155   22191       2
   22137   22155   22194       2   22137   22155   22197       2   22134   22152
   22182       2   22134   22152   22185       2   22134   22152   22188       2
   22131   22149   22173       2   22131   22149   22176       2   22131   22149
   22179       2   22128   22146   22164       2   22128   22146   22167       2
   22128   22146   22170       2   22119   22062   22122       3   22119   22068
   22125       3   22110   22050   22113       3   22110   22056   22116       3
   22101   22038   22104       3   22101   22044   22107       3   22095   22032
   22098       3   22092   22026   22095       3   22083   22017   22086       3
   22083   22023   22089       3   22074   22002   22077       3   22074   22008
   22080       3   22068   21999   22071       3   22062   21996   22065       3
   22056   21993   22059       3   22050   21990   22053       3   22044   21987
   22047       3   22038   21984   22041       3   22032   21981   22035       3
   22026   21978   22029       3   22020   21975   22023       3   22014   21972
   22017       3   22008   21969   22011       3   22002   21966   22005       3
   21999   22068   22125       3   21996   22062   22122       3   21993   22056
   22116       3   21990   22050   22113       3   21987   22044   22107       3
   21984   22038   22104       3   21981   22032   22098       3   21978   22026
   22092       3   21975   22023   22089       3   21972   22017   22086       3
   21969   22008   22080       3   21966   22002   22077       3   21960   21996
   22065       3   21960   21999   22071       3   21957   21990   22053       3
   21957   21993   22059       3   21951   21984   22041       3   21951   21987
   22047       3   21948   21978   22029       3   21948   21981   22035       3
   21945   21972   22014       3   21945   21975   22020       3   21942   21966
   22005       3   21942   21969   22011       3   21936   21906   21939       3
   21927   21897   21930       3   21912   21876   21915       1   21909   21876
   21912       1   21909   21876   21915       1   21906   21936   21963       3
   21903   21936   21963       3   21900   21870   21903       3   21897   21927
   21954       3   21891   21864   21894       3   21891   21927   21954       3
   21885   21861   21888       3   21885   21879   21918       3   21879   21858
   21882       3   21873   21906   21939      11   21867   21897   21930      11
   21858   21879   21918       3   21855   21876   21909       2   21855   21876
   21912       2   21855   21876   21915       2   21852   21870   21900       3
   21849   21864   21894       3   21846   21861   21888       3   21843   21858
   21882      11   21834   21813   21837       3   21834   21819   21840       3
   21825   21807   21831      11   21819   21798   21822       3   21813   21795
   21816       3   21807   21792   21810       3   21801   21789   21804       3
   21798   21819   21840       3   21795   21813   21837       3   21792   21807
   21831       3   21786   21795   21816       3   21786   21798   21822       3
   21783   21789   21804       3   21783   21792   21810       3   21771   21759
   21774       3   21771   21765   21777       3   21765   21747   21768       3
   21759   21744   21762       3   21753   21741   21756       1   21750   21741
   21753       1   21750   21741   21756       1   21747   21765   21777       3
   21744   21759   21774       3   21738   21744   21762       3   21738   21747
   21768       3   21735   21741   21750       2   21735   21741   21753       2
   21735   21741   21756       2   22695   22644   22698       1   22692   22644
   22695       1   22692   22644   22698       1   22686   22641   22689       1
   22683   22641   22686       1   22683   22641   22689       1   22677   22638
   22680       1   22674   22638   22677       1   22674   22638   22680       1
   22668   22635   22671       1   22665   22635   22668       1   22665   22635
   22671       1   22659   22632   22662       1   22656   22632   22659       1
   22656   22632   22662       1   22650   22629   22653       1   22647   22629
   22650       1   22647   22629   22653       1   22626   22644   22692       2
   22626   22644   22695       2   22626   22644   22698       2   22623   22641
   22683       2   22623   22641   22686       2   22623   22641   22689       2
   22620   22638   22674       2   22620   22638   22677       2   22620   22638
   22680       2   22617   22635   22665       2   22617   22635   22668       2
   22617   22635   22671       2   22614   22632   22656       2   22614   22632
   22659       2   22614   22632   22662       2   22611   22629   22647       2
   22611   22629   22650       2   22611   22629   22653       2   22602   22545
   22605       3   22602   22551   22608       3   22593   22533   22596       3
   22593   22539   22599       3   22584   22521   22587       3   22584   22527
   22590       3   22578   22515   22581       3   22575   22509   22578       3
   22566   22500   22569       3   22566   22506   22572       3   22557   22485
   22560       3   22557   22491   22563       3   22551   22482   22554       3
   22545   22479   22548       3   22539   22476   22542       3   22533   22473
   22536       3   22527   22470   22530       3   22521   22467   22524       3
   22515   22464   22518       3   22509   22461   22512       3   22503   22458
   22506       3   22497   22455   22500       3   22491   22452   22494       3
   22485   22449   22488       3   22482   22551   22608       3   22479   22545
   22605       3   22476   22539   22599       3   22473   22533   22596       3
   22470   22527   22590       3   22467   22521   22587       3   22464   22515
   22581       3   22461   22509   22575       3   22458   22506   22572       3
   22455   22500   22569       3   22452   22491   22563       3   22449   22485
   22560       3   22443   22479   22548       3   22443   22482   22554       3
   22440   22473   22536       3   22440   22476   22542       3   22434   22467
   22524       3   22434   22470   22530       3   22431   22461   22512       3
   22431   22464   22518       3   22428   22455   22497       3   22428   22458
   22503       3   22425   22449   22488       3   22425   22452   22494       3
   22419   22389   22422       3   22410   22380   22413       3   22395   22359
   22398       1   22392   22359   22395       1   22392   22359   22398       1
   22389   22419   22446       3   22386   22419   22446       3   22383   22353
   22386       3   22380   22410   22437       3   22374   22347   22377       3
   22374   22410   22437       3   22368   22344   22371       3   22368   22362
   22401       3   22362   22341   22365       3   22356   22389   22422      11
   22350   22380   22413      11   22341   22362   22401       3   22338   22359
   22392       2   22338   22359   22395       2   22338   22359   22398       2
   22335   22353   22383       3   22332   22347   22377       3   22329   22344
   22371       3   22326   22341   22365      11   22317   22296   22320       3
   22317   22302   22323       3   22308   22290   22314      11   22302   22281
   22305       3   22296   22278   22299       3   22290   22275   22293       3
   22284   22272   22287       3   22281   22302   22323       3   22278   22296
   22320       3   22275   22290   22314       3   22269   22278   22299       3
   22269   22281   22305       3   22266   22272   22287       3   22266   22275
   22293       3   22254   22242   22257       3   22254   22248   22260       3
   22248   22230   22251       3   22242   22227   22245       3   22236   22224
   22239       1   22233   22224   22236       1   22233   22224   22239       1
   22230   22248   22260       3   22227   22242   22257       3   22221   22227
   22245       3   22221   22230   22251       3   22218   22224   22233       2
   22218   22224   22236       2   22218   22224   22239       2   23178   23127
   23181       1   23175   23127   23178       1   23175   23127   23181       1
   23169   23124   23172       1   23166   23124   23169       1   23166   23124
   23172       1   23160   23121   23163       1   23157   23121   23160       1
   23157   23121   23163       1   23151   23118   23154       1   23148   23118
   23151       1   23148   23118   23154       1   23142   23115   23145       1
   23139   23115   23142       1   23139   23115   23145       1   23133   23112
   23136       1   23130   23112   23133       1   23130   23112   23136       1
   23109   23127   23175       2   23109   23127   23178       2   23109   23127
   23181       2   23106   23124   23166       2   23106   23124   23169       2
   23106   23124   23172       2   23103   23121   23157       2   23103   23121
   23160       2   23103   23121   23163       2   23100   23118   23148       2
   23100   23118   23151       2   23100   23118   23154       2   23097   23115
   23139       2   23097   23115   23142       2   23097   23115   23145       2
   23094   23112   23130       2   23094   23112   23133       2   23094   23112
   23136       2   23085   23028   23088       3   23085   23034   23091       3
   23076   23016   23079       3   23076   23022   23082       3   23067   23004
   23070       3   23067   23010   23073       3   23061   22998   23064       3
   23058   22992   23061       3   23049   22983   23052       3   23049   22989
   23055       3   23040   22968   23043       3   23040   22974   23046       3
   23034   22965   23037       3   23028   22962   23031       3   23022   22959
   23025       3   23016   22956   23019       3   23010   22953   23013       3
   23004   22950   23007       3   22998   22947   23001       3   22992   22944
   22995       3   22986   22941   22989       3   22980   22938   22983       3
   22974   22935   22977       3   22968   22932   22971       3   22965   23034
   23091       3   22962   23028   23088       3   22959   23022   23082       3
   22956   23016   23079       3   22953   23010   23073       3   22950   23004
   23070       3   22947   22998   23064       3   22944   22992   23058       3
   22941   22989   23055       3   22938   22983   23052       3   22935   22974
   23046       3   22932   22968   23043       3   22926   22962   23031       3
   22926   22965   23037       3   22923   22956   23019       3   22923   22959
   23025       3   22917   22950   23007       3   22917   22953   23013       3
   22914   22944   22995       3   22914   22947   23001       3   22911   22938
   22980       3   22911   22941   22986       3   22908   22932   22971       3
   22908   22935   22977       3   22902   22872   22905       3   22893   22863
   22896       3   22878   22842   22881       1   22875   22842   22878       1
   22875   22842   22881       1   22872   22902   22929       3   22869   22902
   22929       3   22866   22836   22869       3   22863   22893   22920       3
   22857   22830   22860       3   22857   22893   22920       3   22851   22827
   22854       3   22851   22845   22884       3   22845   22824   22848       3
   22839   22872   22905      11   22833   22863   22896      11   22824   22845
   22884       3   22821   22842   22875       2   22821   22842   22878       2
   22821   22842   22881       2   22818   22836   22866       3   22815   22830
   22860       3   22812   22827   22854       3   22809   22824   22848      11
   22800   22779   22803       3   22800   22785   22806       3   22791   22773
   22797      11   22785   22764   22788       3   22779   22761   22782       3
   22773   22758   22776       3   22767   22755   22770       3   22764   22785
   22806       3   22761   22779   22803       3   22758   22773   22797       3
   22752   22761   22782       3   22752   22764   22788       3   22749   22755
   22770       3   22749   22758   22776       3   22737   22725   22740       3
   22737   22731   22743       3   22731   22713   22734       3   22725   22710
   22728       3   22719   22707   22722       1   22716   22707   22719       1
   22716   22707   22722       1   22713   22731   22743       3   22710   22725
   22740       3   22704   22710   22728       3   22704   22713   22734       3
   22701   22707   22716       2   22701   22707   22719       2   22701   22707
   22722       2   23661   23610   23664       1   23658   23610   23661       1
   23658   23610   23664       1   23652   23607   23655       1   23649   23607
   23652       1   23649   23607   23655       1   23643   23604   23646       1
   23640   23604   23643       1   23640   23604   23646       1   23634   23601
   23637       1   23631   23601   23634       1   23631   23601   23637       1
   23625   23598   23628       1   23622   23598   23625       1   23622   23598
   23628       1   23616   23595   23619       1   23613   23595   23616       1
   23613   23595   23619       1   23592   23610   23658       2   23592   23610
   23661       2   23592   23610   23664       2   23589   23607   23649       2
   23589   23607   23652       2   23589   23607   23655       2   23586   23604
   23640       2   23586   23604   23643       2   23586   23604   23646       2
   23583   23601   23631       2   23583   23601   23634       2   23583   23601
   23637       2   23580   23598   23622       2   23580   23598   23625       2
   23580   23598   23628       2   23577   23595   23613       2   23577   23595
   23616       2   23577   23595   23619       2   23568   23511   23571       3
   23568   23517   23574       3   23559   23499   23562       3   23559   23505
   23565       3   23550   23487   23553       3   23550   23493   23556       3
   23544   23481   23547       3   23541   23475   23544       3   23532   23466
   23535       3   23532   23472   23538       3   23523   23451   23526       3
   23523   23457   23529       3   23517   23448   23520       3   23511   23445
   23514       3   23505   23442   23508       3   23499   23439   23502       3
   23493   23436   23496       3   23487   23433   23490       3   23481   23430
   23484       3   23475   23427   23478       3   23469   23424   23472       3
   23463   23421   23466       3   23457   23418   23460       3   23451   23415
   23454       3   23448   23517   23574       3   23445   23511   23571       3
   23442   23505   23565       3   23439   23499   23562       3   23436   23493
   23556       3   23433   23487   23553       3   23430   23481   23547       3
   23427   23475   23541       3   23424   23472   23538       3   23421   23466
   23535       3   23418   23457   23529       3   23415   23451   23526       3
   23409   23445   23514       3   23409   23448   23520       3   23406   23439
   23502       3   23406   23442   23508       3   23400   23433   23490       3
   23400   23436   23496       3   23397   23427   23478       3   23397   23430
   23484       3   23394   23421   23463       3   23394   23424   23469       3
   23391   23415   23454       3   23391   23418   23460       3   23385   23355
   23388       3   23376   23346   23379       3   23361   23325   23364       1
   23358   23325   23361       1   23358   23325   23364       1   23355   23385
   23412       3   23352   23385   23412       3   23349   23319   23352       3
   23346   23376   23403       3   23340   23313   23343       3   23340   23376
   23403       3   23334   23310   23337       3   23334   23328   23367       3
   23328   23307   23331       3   23322   23355   23388      11   23316   23346
   23379      11   23307   23328   23367       3   23304   23325   23358       2
   23304   23325   23361       2   23304   23325   23364       2   23301   23319
   23349       3   23298   23313   23343       3   23295   23310   23337       3
   23292   23307   23331      11   23283   23262   23286       3   23283   23268
   23289       3   23274   23256   23280      11   23268   23247   23271       3
   23262   23244   23265       3   23256   23241   23259       3   23250   23238
   23253       3   23247   23268   23289       3   23244   23262   23286       3
   23241   23256   23280       3   23235   23244   23265       3   23235   23247
   23271       3   23232   23238   23253       3   23232   23241   23259       3
   23220   23208   23223       3   23220   23214   23226       3   23214   23196
   23217       3   23208   23193   23211       3   23202   23190   23205       1
   23199   23190   23202       1   23199   23190   23205       1   23196   23214
   23226       3   23193   23208   23223       3   23187   23193   23211       3
   23187   23196   23217       3   23184   23190   23199       2   23184   23190
   23202       2   23184   23190   23205       2   24144   24093   24147       1
   24141   24093   24144       1   24141   24093   24147       1   24135   24090
   24138       1   24132   24090   24135       1   24132   24090   24138       1
   24126   24087   24129       1   24123   24087   24126       1   24123   24087
   24129       1   24117   24084   24120       1   24114   24084   24117       1
   24114   24084   24120       1   24108   24081   24111       1   24105   24081
   24108       1   24105   24081   24111       1   24099   24078   24102       1
   24096   24078   24099       1   24096   24078   24102       1   24075   24093
   24141       2   24075   24093   24144       2   24075   24093   24147       2
   24072   24090   24132       2   24072   24090   24135       2   24072   24090
   24138       2   24069   24087   24123       2   24069   24087   24126       2
   24069   24087   24129       2   24066   24084   24114       2   24066   24084
   24117       2   24066   24084   24120       2   24063   24081   24105       2
   24063   24081   24108       2   24063   24081   24111       2   24060   24078
   24096       2   24060   24078   24099       2   24060   24078   24102       2
   24051   23994   24054       3   24051   24000   24057       3   24042   23982
   24045       3   24042   23988   24048       3   24033   23970   24036       3
   24033   23976   24039       3   24027   23964   24030       3   24024   23958
   24027       3   24015   23949   24018       3   24015   23955   24021       3
   24006   23934   24009       3   24006   23940   24012       3   24000   23931
   24003       3   23994   23928   23997       3   23988   23925   23991       3
   23982   23922   23985       3   23976   23919   23979       3   23970   23916
   23973       3   23964   23913   23967       3   23958   23910   23961       3
   23952   23907   23955       3   23946   23904   23949       3   23940   23901
   23943       3   23934   23898   23937       3   23931   24000   24057       3
   23928   23994   24054       3   23925   23988   24048       3   23922   23982
   24045       3   23919   23976   24039       3   23916   23970   24036       3
   23913   23964   24030       3   23910   23958   24024       3   23907   23955
   24021       3   23904   23949   24018       3   23901   23940   24012       3
   23898   23934   24009       3   23892   23928   23997       3   23892   23931
   24003       3   23889   23922   23985       3   23889   23925   23991       3
   23883   23916   23973       3   23883   23919   23979       3   23880   23910
   23961       3   23880   23913   23967       3   23877   23904   23946       3
   23877   23907   23952       3   23874   23898   23937       3   23874   23901
   23943       3   23868   23838   23871       3   23859   23829   23862       3
   23844   23808   23847       1   23841   23808   23844       1   23841   23808
   23847       1   23838   23868   23895       3   23835   23868   23895       3
   23832   23802   23835       3   23829   23859   23886       3   23823   23796
   23826       3   23823   23859   23886       3   23817   23793   23820       3
   23817   23811   23850       3   23811   23790   23814       3   23805   23838
   23871      11   23799   23829   23862      11   23790   23811   23850       3
   23787   23808   23841       2   23787   23808   23844       2   23787   23808
   23847       2   23784   23802   23832       3   23781   23796   23826       3
   23778   23793   23820       3   23775   23790   23814      11   23766   23745
   23769       3   23766   23751   23772       3   23757   23739   23763      11
   23751   23730   23754       3   23745   23727   23748       3   23739   23724
   23742       3   23733   23721   23736       3   23730   23751   23772       3
   23727   23745   23769       3   23724   23739   23763       3   23718   23727
   23748       3   23718   23730   23754       3   23715   23721   23736       3
   23715   23724   23742       3   23703   23691   23706       3   23703   23697
   23709       3   23697   23679   23700       3   23691   23676   23694       3
   23685   23673   23688       1   23682   23673   23685       1   23682   23673
   23688       1   23679   23697   23709       3   23676   23691   23706       3
   23670   23676   23694       3   23670   23679   23700       3   23667   23673
   23682       2   23667   23673   23685       2   23667   23673   23688       2
   24627   24576   24630       1   24624   24576   24627       1   24624   24576
   24630       1   24618   24573   24621       1   24615   24573   24618       1
   24615   24573   24621       1   24609   24570   24612       1   24606   24570
   24609       1   24606   24570   24612       1   24600   24567   24603       1
   24597   24567   24600       1   24597   24567   24603       1   24591   24564
   24594       1   24588   24564   24591       1   24588   24564   24594       1
   24582   24561   24585       1   24579   24561   24582       1   24579   24561
   24585       1   24558   24576   24624       2   24558   24576   24627       2
   24558   24576   24630       2   24555   24573   24615       2   24555   24573
   24618       2   24555   24573   24621       2   24552   24570   24606       2
   24552   24570   24609       2   24552   24570   24612       2   24549   24567
   24597       2   24549   24567   24600       2   24549   24567   24603       2
   24546   24564   24588       2   24546   24564   24591       2   24546   24564
   24594       2   24543   24561   24579       2   24543   24561   24582       2
   24543   24561   24585       2   24534   24477   24537       3   24534   24483
   24540       3   24525   24465   24528       3   24525   24471   24531       3
   24516   24453   24519       3   24516   24459   24522       3   24510   24447
   24513       3   24507   24441   24510       3   24498   24432   24501       3
   24498   24438   24504       3   24489   24417   24492       3   24489   24423
   24495       3   24483   24414   24486       3   24477   24411   24480       3
   24471   24408   24474       3   24465   24405   24468       3   24459   24402
   24462       3   24453   24399   24456       3   24447   24396   24450       3
   24441   24393   24444       3   24435   24390   24438       3   24429   24387
   24432       3   24423   24384   24426       3   24417   24381   24420       3
   24414   24483   24540       3   24411   24477   24537       3   24408   24471
   24531       3   24405   24465   24528       3   24402   24459   24522       3
   24399   24453   24519       3   24396   24447   24513       3   24393   24441
   24507       3   24390   24438   24504       3   24387   24432   24501       3
   24384   24423   24495       3   24381   24417   24492       3   24375   24411
   24480       3   24375   24414   24486       3   24372   24405   24468       3
   24372   24408   24474       3   24366   24399   24456       3   24366   24402
   24462       3   24363   24393   24444       3   24363   24396   24450       3
   24360   24387   24429       3   24360   24390   24435       3   24357   24381
   24420       3   24357   24384   24426       3   24351   24321   24354       3
   24342   24312   24345       3   24327   24291   24330       1   24324   24291
   24327       1   24324   24291   24330       1   24321   24351   24378       3
   24318   24351   24378       3   24315   24285   24318       3   24312   24342
   24369       3   24306   24279   24309       3   24306   24342   24369       3
   24300   24276   24303       3   24300   24294   24333       3   24294   24273
   24297       3   24288   24321   24354      11   24282   24312   24345      11
   24273   24294   24333       3   24270   24291   24324       2   24270   24291
   24327       2   24270   24291   24330       2   24267   24285   24315       3
   24264   24279   24309       3   24261   24276   24303       3   24258   24273
   24297      11   24249   24228   24252       3   24249   24234   24255       3
   24240   24222   24246      11   24234   24213   24237       3   24228   24210
   24231       3   24222   24207   24225       3   24216   24204   24219       3
   24213   24234   24255       3   24210   24228   24252       3   24207   24222
   24246       3   24201   24210   24231       3   24201   24213   24237       3
   24198   24204   24219       3   24198   24207   24225       3   24186   24174
   24189       3   24186   24180   24192       3   24180   24162   24183       3
   24174   24159   24177       3   24168   24156   24171       1   24165   24156
   24168       1   24165   24156   24171       1   24162   24180   24192       3
   24159   24174   24189       3   24153   24159   24177       3   24153   24162
   24183       3   24150   24156   24165       2   24150   24156   24168       2
   24150   24156   24171       2   25110   25059   25113       1   25107   25059
   25110       1   25107   25059   25113       1   25101   25056   25104       1
   25098   25056   25101       1   25098   25056   25104       1   25092   25053
   25095       1   25089   25053   25092       1   25089   25053   25095       1
   25083   25050   25086       1   25080   25050   25083       1   25080   25050
   25086       1   25074   25047   25077       1   25071   25047   25074       1
   25071   25047   25077       1   25065   25044   25068       1   25062   25044
   25065       1   25062   25044   25068       1   25041   25059   25107       2
   25041   25059   25110       2   25041   25059   25113       2   25038   25056
   25098       2   25038   25056   25101       2   25038   25056   25104       2
   25035   25053   25089       2   25035   25053   25092       2   25035   25053
   25095       2   25032   25050   25080       2   25032   25050   25083       2
   25032   25050   25086       2   25029   25047   25071       2   25029   25047
   25074       2   25029   25047   25077       2   25026   25044   25062       2
   25026   25044   25065       2   25026   25044   25068       2   25017   24960
   25020       3   25017   24966   25023       3   25008   24948   25011       3
   25008   24954   25014       3   24999   24936   25002       3   24999   24942
   25005       3   24993   24930   24996       3   24990   24924   24993       3
   24981   24915   24984       3   24981   24921   24987       3   24972   24900
   24975       3   24972   24906   24978       3   24966   24897   24969       3
   24960   24894   24963       3   24954   24891   24957       3   24948   24888
   24951       3   24942   24885   24945       3   24936   24882   24939       3
   24930   24879   24933       3   24924   24876   24927       3   24918   24873
   24921       3   24912   24870   24915       3   24906   24867   24909       3
   24900   24864   24903       3   24897   24966   25023       3   24894   24960
   25020       3   24891   24954   25014       3   24888   24948   25011       3
   24885   24942   25005       3   24882   24936   25002       3   24879   24930
   24996       3   24876   24924   24990       3   24873   24921   24987       3
   24870   24915   24984       3   24867   24906   24978       3   24864   24900
   24975       3   24858   24894   24963       3   24858   24897   24969       3
   24855   24888   24951       3   24855   24891   24957       3   24849   24882
   24939       3   24849   24885   24945       3   24846   24876   24927       3
   24846   24879   24933       3   24843   24870   24912       3   24843   24873
   24918       3   24840   24864   24903       3   24840   24867   24909       3
   24834   24804   24837       3   24825   24795   24828       3   24810   24774
   24813       1   24807   24774   24810       1   24807   24774   24813       1
   24804   24834   24861       3   24801   24834   24861       3   24798   24768
   24801       3   24795   24825   24852       3   24789   24762   24792       3
   24789   24825   24852       3   24783   24759   24786       3   24783   24777
   24816       3   24777   24756   24780       3   24771   24804   24837      11
   24765   24795   24828      11   24756   24777   24816       3   24753   24774
   24807       2   24753   24774   24810       2   24753   24774   24813       2
   24750   24768   24798       3   24747   24762   24792       3   24744   24759
   24786       3   24741   24756   24780      11   24732   24711   24735       3
   24732   24717   24738       3   24723   24705   24729      11   24717   24696
   24720       3   24711   24693   24714       3   24705   24690   24708       3
   24699   24687   24702       3   24696   24717   24738       3   24693   24711
   24735       3   24690   24705   24729       3   24684   24693   24714       3
   24684   24696   24720       3   24681   24687   24702       3   24681   24690
   24708       3   24669   24657   24672       3   24669   24663   24675       3
   24663   24645   24666       3   24657   24642   24660       3   24651   24639
   24654       1   24648   24639   24651       1   24648   24639   24654       1
   24645   24663   24675       3   24642   24657   24672       3   24636   24642
   24660       3   24636   24645   24666       3   24633   24639   24648       2
   24633   24639   24651       2   24633   24639   24654       2   25593   25542
   25596       1   25590   25542   25593       1   25590   25542   25596       1
   25584   25539   25587       1   25581   25539   25584       1   25581   25539
   25587       1   25575   25536   25578       1   25572   25536   25575       1
   25572   25536   25578       1   25566   25533   25569       1   25563   25533
   25566       1   25563   25533   25569       1   25557   25530   25560       1
   25554   25530   25557       1   25554   25530   25560       1   25548   25527
   25551       1   25545   25527   25548       1   25545   25527   25551       1
   25524   25542   25590       2   25524   25542   25593       2   25524   25542
   25596       2   25521   25539   25581       2   25521   25539   25584       2
   25521   25539   25587       2   25518   25536   25572       2   25518   25536
   25575       2   25518   25536   25578       2   25515   25533   25563       2
   25515   25533   25566       2   25515   25533   25569       2   25512   25530
   25554       2   25512   25530   25557       2   25512   25530   25560       2
   25509   25527   25545       2   25509   25527   25548       2   25509   25527
   25551       2   25500   25443   25503       3   25500   25449   25506       3
   25491   25431   25494       3   25491   25437   25497       3   25482   25419
   25485       3   25482   25425   25488       3   25476   25413   25479       3
   25473   25407   25476       3   25464   25398   25467       3   25464   25404
   25470       3   25455   25383   25458       3   25455   25389   25461       3
   25449   25380   25452       3   25443   25377   25446       3   25437   25374
   25440       3   25431   25371   25434       3   25425   25368   25428       3
   25419   25365   25422       3   25413   25362   25416       3   25407   25359
   25410       3   25401   25356   25404       3   25395   25353   25398       3
   25389   25350   25392       3   25383   25347   25386       3   25380   25449
   25506       3   25377   25443   25503       3   25374   25437   25497       3
   25371   25431   25494       3   25368   25425   25488       3   25365   25419
   25485       3   25362   25413   25479       3   25359   25407   25473       3
   25356   25404   25470       3   25353   25398   25467       3   25350   25389
   25461       3   25347   25383   25458       3   25341   25377   25446       3
   25341   25380   25452       3   25338   25371   25434       3   25338   25374
   25440       3   25332   25365   25422       3   25332   25368   25428       3
   25329   25359   25410       3   25329   25362   25416       3   25326   25353
   25395       3   25326   25356   25401       3   25323   25347   25386       3
   25323   25350   25392       3   25317   25287   25320       3   25308   25278
   25311       3   25293   25257   25296       1   25290   25257   25293       1
   25290   25257   25296       1   25287   25317   25344       3   25284   25317
   25344       3   25281   25251   25284       3   25278   25308   25335       3
   25272   25245   25275       3   25272   25308   25335       3   25266   25242
   25269       3   25266   25260   25299       3   25260   25239   25263       3
   25254   25287   25320      11   25248   25278   25311      11   25239   25260
   25299       3   25236   25257   25290       2   25236   25257   25293       2
   25236   25257   25296       2   25233   25251   25281       3   25230   25245
   25275       3   25227   25242   25269       3   25224   25239   25263      11
   25215   25194   25218       3   25215   25200   25221       3   25206   25188
   25212      11   25200   25179   25203       3   25194   25176   25197       3
   25188   25173   25191       3   25182   25170   25185       3   25179   25200
   25221       3   25176   25194   25218       3   25173   25188   25212       3
   25167   25176   25197       3   25167   25179   25203       3   25164   25170
   25185       3   25164   25173   25191       3   25152   25140   25155       3
   25152   25146   25158       3   25146   25128   25149       3   25140   25125
   25143       3   25134   25122   25137       1   25131   25122   25134       1
   25131   25122   25137       1   25128   25146   25158       3   25125   25140
   25155       3   25119   25125   25143       3   25119   25128   25149       3
   25116   25122   25131       2   25116   25122   25134       2   25116   25122
   25137       2   26076   26025   26079       1   26073   26025   26076       1
   26073   26025   26079       1   26067   26022   26070       1   26064   26022
   26067       1   26064   26022   26070       1   26058   26019   26061       1
   26055   26019   26058       1   26055   26019   26061       1   26049   26016
   26052       1   26046   26016   26049       1   26046   26016   26052       1
   26040   26013   26043       1   26037   26013   26040       1   26037   26013
   26043       1   26031   26010   26034       1   26028   26010   26031       1
   26028   26010   26034       1   26007   26025   26073       2   26007   26025
   26076       2   26007   26025   26079       2   26004   26022   26064       2
   26004   26022   26067       2   26004   26022   26070       2   26001   26019
   26055       2   26001   26019   26058       2   26001   26019   26061       2
   25998   26016   26046       2   25998   26016   26049       2   25998   26016
   26052       2   25995   26013   26037       2   25995   26013   26040       2
   25995   26013   26043       2   25992   26010   26028       2   25992   26010
   26031       2   25992   26010   26034       2   25983   25926   25986       3
   25983   25932   25989       3   25974   25914   25977       3   25974   25920
   25980       3   25965   25902   25968       3   25965   25908   25971       3
   25959   25896   25962       3   25956   25890   25959       3   25947   25881
   25950       3   25947   25887   25953       3   25938   25866   25941       3
   25938   25872   25944       3   25932   25863   25935       3   25926   25860
   25929       3   25920   25857   25923       3   25914   25854   25917       3
   25908   25851   25911       3   25902   25848   25905       3   25896   25845
   25899       3   25890   25842   25893       3   25884   25839   25887       3
   25878   25836   25881       3   25872   25833   25875       3   25866   25830
   25869       3   25863   25932   25989       3   25860   25926   25986       3
   25857   25920   25980       3   25854   25914   25977       3   25851   25908
   25971       3   25848   25902   25968       3   25845   25896   25962       3
   25842   25890   25956       3   25839   25887   25953       3   25836   25881
   25950       3   25833   25872   25944       3   25830   25866   25941       3
   25824   25860   25929       3   25824   25863   25935       3   25821   25854
   25917       3   25821   25857   25923       3   25815   25848   25905       3
   25815   25851   25911       3   25812   25842   25893       3   25812   25845
   25899       3   25809   25836   25878       3   25809   25839   25884       3
   25806   25830   25869       3   25806   25833   25875       3   25800   25770
   25803       3   25791   25761   25794       3   25776   25740   25779       1
   25773   25740   25776       1   25773   25740   25779       1   25770   25800
   25827       3   25767   25800   25827       3   25764   25734   25767       3
   25761   25791   25818       3   25755   25728   25758       3   25755   25791
   25818       3   25749   25725   25752       3   25749   25743   25782       3
   25743   25722   25746       3   25737   25770   25803      11   25731   25761
   25794      11   25722   25743   25782       3   25719   25740   25773       2
   25719   25740   25776       2   25719   25740   25779       2   25716   25734
   25764       3   25713   25728   25758       3   25710   25725   25752       3
   25707   25722   25746      11   25698   25677   25701       3   25698   25683
   25704       3   25689   25671   25695      11   25683   25662   25686       3
   25677   25659   25680       3   25671   25656   25674       3   25665   25653
   25668       3   25662   25683   25704       3   25659   25677   25701       3
   25656   25671   25695       3   25650   25659   25680       3   25650   25662
   25686       3   25647   25653   25668       3   25647   25656   25674       3
   25635   25623   25638       3   25635   25629   25641       3   25629   25611
   25632       3   25623   25608   25626       3   25617   25605   25620       1
   25614   25605   25617       1   25614   25605   25620       1   25611   25629
   25641       3   25608   25623   25638       3   25602   25608   25626       3
   25602   25611   25632       3   25599   25605   25614       2   25599   25605
   25617       2   25599   25605   25620       2   26559   26508   26562       1
   26556   26508   26559       1   26556   26508   26562       1   26550   26505
   26553       1   26547   26505   26550       1   26547   26505   26553       1
   26541   26502   26544       1   26538   26502   26541       1   26538   26502
   26544       1   26532   26499   26535       1   26529   26499   26532       1
   26529   26499   26535       1   26523   26496   26526       1   26520   26496
   26523       1   26520   26496   26526       1   26514   26493   26517       1
   26511   26493   26514       1   26511   26493   26517       1   26490   26508
   26556       2   26490   26508   26559       2   26490   26508   26562       2
   26487   26505   26547       2   26487   26505   26550       2   26487   26505
   26553       2   26484   26502   26538       2   26484   26502   26541       2
   26484   26502   26544       2   26481   26499   26529       2   26481   26499
   26532       2   26481   26499   26535       2   26478   26496   26520       2
   26478   26496   26523       2   26478   26496   26526       2   26475   26493
   26511       2   26475   26493   26514       2   26475   26493   26517       2
   26466   26409   26469       3   26466   26415   26472       3   26457   26397
   26460       3   26457   26403   26463       3   26448   26385   26451       3
   26448   26391   26454       3   26442   26379   26445       3   26439   26373
   26442       3   26430   26364   26433       3   26430   26370   26436       3
   26421   26349   26424       3   26421   26355   26427       3   26415   26346
   26418       3   26409   26343   26412       3   26403   26340   26406       3
   26397   26337   26400       3   26391   26334   26394       3   26385   26331
   26388       3   26379   26328   26382       3   26373   26325   26376       3
   26367   26322   26370       3   26361   26319   26364       3   26355   26316
   26358       3   26349   26313   26352       3   26346   26415   26472       3
   26343   26409   26469       3   26340   26403   26463       3   26337   26397
   26460       3   26334   26391   26454       3   26331   26385   26451       3
   26328   26379   26445       3   26325   26373   26439       3   26322   26370
   26436       3   26319   26364   26433       3   26316   26355   26427       3
   26313   26349   26424       3   26307   26343   26412       3   26307   26346
   26418       3   26304   26337   26400       3   26304   26340   26406       3
   26298   26331   26388       3   26298   26334   26394       3   26295   26325
   26376       3   26295   26328   26382       3   26292   26319   26361       3
   26292   26322   26367       3   26289   26313   26352       3   26289   26316
   26358       3   26283   26253   26286       3   26274   26244   26277       3
   26259   26223   26262       1   26256   26223   26259       1   26256   26223
   26262       1   26253   26283   26310       3   26250   26283   26310       3
   26247   26217   26250       3   26244   26274   26301       3   26238   26211
   26241       3   26238   26274   26301       3   26232   26208   26235       3
   26232   26226   26265       3   26226   26205   26229       3   26220   26253
   26286      11   26214   26244   26277      11   26205   26226   26265       3
   26202   26223   26256       2   26202   26223   26259       2   26202   26223
   26262       2   26199   26217   26247       3   26196   26211   26241       3
   26193   26208   26235       3   26190   26205   26229      11   26181   26160
   26184       3   26181   26166   26187       3   26172   26154   26178      11
   26166   26145   26169       3   26160   26142   26163       3   26154   26139
   26157       3   26148   26136   26151       3   26145   26166   26187       3
   26142   26160   26184       3   26139   26154   26178       3   26133   26142
   26163       3   26133   26145   26169       3   26130   26136   26151       3
   26130   26139   26157       3   26118   26106   26121       3   26118   26112
   26124       3   26112   26094   26115       3   26106   26091   26109       3
   26100   26088   26103       1   26097   26088   26100       1   26097   26088
   26103       1   26094   26112   26124       3   26091   26106   26121       3
   26085   26091   26109       3   26085   26094   26115       3   26082   26088
   26097       2   26082   26088   26100       2   26082   26088   26103       2
   27042   26991   27045       1   27039   26991   27042       1   27039   26991
   27045       1   27033   26988   27036       1   27030   26988   27033       1
   27030   26988   27036       1   27024   26985   27027       1   27021   26985
   27024       1   27021   26985   27027       1   27015   26982   27018       1
   27012   26982   27015       1   27012   26982   27018       1   27006   26979
   27009       1   27003   26979   27006       1   27003   26979   27009       1
   26997   26976   27000       1   26994   26976   26997       1   26994   26976
   27000       1   26973   26991   27039       2   26973   26991   27042       2
   26973   26991   27045       2   26970   26988   27030       2   26970   26988
   27033       2   26970   26988   27036       2   26967   26985   27021       2
   26967   26985   27024       2   26967   26985   27027       2   26964   26982
   27012       2   26964   26982   27015       2   26964   26982   27018       2
   26961   26979   27003       2   26961   26979   27006       2   26961   26979
   27009       2   26958   26976   26994       2   26958   26976   26997       2
   26958   26976   27000       2   26949   26892   26952       3   26949   26898
   26955       3   26940   26880   26943       3   26940   26886   26946       3
   26931   26868   26934       3   26931   26874   26937       3   26925   26862
   26928       3   26922   26856   26925       3   26913   26847   26916       3
   26913   26853   26919       3   26904   26832   26907       3   26904   26838
   26910       3   26898   26829   26901       3   26892   26826   26895       3
   26886   26823   26889       3   26880   26820   26883       3   26874   26817
   26877       3   26868   26814   26871       3   26862   26811   26865       3
   26856   26808   26859       3   26850   26805   26853       3   26844   26802
   26847       3   26838   26799   26841       3   26832   26796   26835       3
   26829   26898   26955       3   26826   26892   26952       3   26823   26886
   26946       3   26820   26880   26943       3   26817   26874   26937       3
   26814   26868   26934       3   26811   26862   26928       3   26808   26856
   26922       3   26805   26853   26919       3   26802   26847   26916       3
   26799   26838   26910       3   26796   26832   26907       3   26790   26826
   26895       3   26790   26829   26901       3   26787   26820   26883       3
   26787   26823   26889       3   26781   26814   26871       3   26781   26817
   26877       3   26778   26808   26859       3   26778   26811   26865       3
   26775   26802   26844       3   26775   26805   26850       3   26772   26796
   26835       3   26772   26799   26841       3   26766   26736   26769       3
   26757   26727   26760       3   26742   26706   26745       1   26739   26706
   26742       1   26739   26706   26745       1   26736   26766   26793       3
   26733   26766   26793       3   26730   26700   26733       3   26727   26757
   26784       3   26721   26694   26724       3   26721   26757   26784       3
   26715   26691   26718       3   26715   26709   26748       3   26709   26688
   26712       3   26703   26736   26769      11   26697   26727   26760      11
   26688   26709   26748       3   26685   26706   26739       2   26685   26706
   26742       2   26685   26706   26745       2   26682   26700   26730       3
   26679   26694   26724       3   26676   26691   26718       3   26673   26688
   26712      11   26664   26643   26667       3   26664   26649   26670       3
   26655   26637   26661      11   26649   26628   26652       3   26643   26625
   26646       3   26637   26622   26640       3   26631   26619   26634       3
   26628   26649   26670       3   26625   26643   26667       3   26622   26637
   26661       3   26616   26625   26646       3   26616   26628   26652       3
   26613   26619   26634       3   26613   26622   26640       3   26601   26589
   26604       3   26601   26595   26607       3   26595   26577   26598       3
   26589   26574   26592       3   26583   26571   26586       1   26580   26571
   26583       1   26580   26571   26586       1   26577   26595   26607       3
   26574   26589   26604       3   26568   26574   26592       3   26568   26577
   26598       3   26565   26571   26580       2   26565   26571   26583       2
   26565   26571   26586       2   27525   27474   27528       1   27522   27474
   27525       1   27522   27474   27528       1   27516   27471   27519       1
   27513   27471   27516       1   27513   27471   27519       1   27507   27468
   27510       1   27504   27468   27507       1   27504   27468   27510       1
   27498   27465   27501       1   27495   27465   27498       1   27495   27465
   27501       1   27489   27462   27492       1   27486   27462   27489       1
   27486   27462   27492       1   27480   27459   27483       1   27477   27459
   27480       1   27477   27459   27483       1   27456   27474   27522       2
   27456   27474   27525       2   27456   27474   27528       2   27453   27471
   27513       2   27453   27471   27516       2   27453   27471   27519       2
   27450   27468   27504       2   27450   27468   27507       2   27450   27468
   27510       2   27447   27465   27495       2   27447   27465   27498       2
   27447   27465   27501       2   27444   27462   27486       2   27444   27462
   27489       2   27444   27462   27492       2   27441   27459   27477       2
   27441   27459   27480       2   27441   27459   27483       2   27432   27375
   27435       3   27432   27381   27438       3   27423   27363   27426       3
   27423   27369   27429       3   27414   27351   27417       3   27414   27357
   27420       3   27408   27345   27411       3   27405   27339   27408       3
   27396   27330   27399       3   27396   27336   27402       3   27387   27315
   27390       3   27387   27321   27393       3   27381   27312   27384       3
   27375   27309   27378       3   27369   27306   27372       3   27363   27303
   27366       3   27357   27300   27360       3   27351   27297   27354       3
   27345   27294   27348       3   27339   27291   27342       3   27333   27288
   27336       3   27327   27285   27330       3   27321   27282   27324       3
   27315   27279   27318       3   27312   27381   27438       3   27309   27375
   27435       3   27306   27369   27429       3   27303   27363   27426       3
   27300   27357   27420       3   27297   27351   27417       3   27294   27345
   27411       3   27291   27339   27405       3   27288   27336   27402       3
   27285   27330   27399       3   27282   27321   27393       3   27279   27315
   27390       3   27273   27309   27378       3   27273   27312   27384       3
   27270   27303   27366       3   27270   27306   27372       3   27264   27297
   27354       3   27264   27300   27360       3   27261   27291   27342       3
   27261   27294   27348       3   27258   27285   27327       3   27258   27288
   27333       3   27255   27279   27318       3   27255   27282   27324       3
   27249   27219   27252       3   27240   27210   27243       3   27225   27189
   27228       1   27222   27189   27225       1   27222   27189   27228       1
   27219   27249   27276       3   27216   27249   27276       3   27213   27183
   27216       3   27210   27240   27267       3   27204   27177   27207       3
   27204   27240   27267       3   27198   27174   27201       3   27198   27192
   27231       3   27192   27171   27195       3   27186   27219   27252      11
   27180   27210   27243      11   27171   27192   27231       3   27168   27189
   27222       2   27168   27189   27225       2   27168   27189   27228       2
   27165   27183   27213       3   27162   27177   27207       3   27159   27174
   27201       3   27156   27171   27195      11   27147   27126   27150       3
   27147   27132   27153       3   27138   27120   27144      11   27132   27111
   27135       3   27126   27108   27129       3   27120   27105   27123       3
   27114   27102   27117       3   27111   27132   27153       3   27108   27126
   27150       3   27105   27120   27144       3   27099   27108   27129       3
   27099   27111   27135       3   27096   27102   27117       3   27096   27105
   27123       3   27084   27072   27087       3   27084   27078   27090       3
   27078   27060   27081       3   27072   27057   27075       3   27066   27054
   27069       1   27063   27054   27066       1   27063   27054   27069       1
   27060   27078   27090       3   27057   27072   27087       3   27051   27057
   27075       3   27051   27060   27081       3   27048   27054   27063       2
   27048   27054   27066       2   27048   27054   27069       2   28008   27957
   28011       1   28005   27957   28008       1   28005   27957   28011       1
   27999   27954   28002       1   27996   27954   27999       1   27996   27954
   28002       1   27990   27951   27993       1   27987   27951   27990       1
   27987   27951   27993       1   27981   27948   27984       1   27978   27948
   27981       1   27978   27948   27984       1   27972   27945   27975       1
   27969   27945   27972       1   27969   27945   27975       1   27963   27942
   27966       1   27960   27942   27963       1   27960   27942   27966       1
   27939   27957   28005       2   27939   27957   28008       2   27939   27957
   28011       2   27936   27954   27996       2   27936   27954   27999       2
   27936   27954   28002       2   27933   27951   27987       2   27933   27951
   27990       2   27933   27951   27993       2   27930   27948   27978       2
   27930   27948   27981       2   27930   27948   27984       2   27927   27945
   27969       2   27927   27945   27972       2   27927   27945   27975       2
   27924   27942   27960       2   27924   27942   27963       2   27924   27942
   27966       2   27915   27858   27918       3   27915   27864   27921       3
   27906   27846   27909       3   27906   27852   27912       3   27897   27834
   27900       3   27897   27840   27903       3   27891   27828   27894       3
   27888   27822   27891       3   27879   27813   27882       3   27879   27819
   27885       3   27870   27798   27873       3   27870   27804   27876       3
   27864   27795   27867       3   27858   27792   27861       3   27852   27789
   27855       3   27846   27786   27849       3   27840   27783   27843       3
   27834   27780   27837       3   27828   27777   27831       3   27822   27774
   27825       3   27816   27771   27819       3   27810   27768   27813       3
   27804   27765   27807       3   27798   27762   27801       3   27795   27864
   27921       3   27792   27858   27918       3   27789   27852   27912       3
   27786   27846   27909       3   27783   27840   27903       3   27780   27834
   27900       3   27777   27828   27894       3   27774   27822   27888       3
   27771   27819   27885       3   27768   27813   27882       3   27765   27804
   27876       3   27762   27798   27873       3   27756   27792   27861       3
   27756   27795   27867       3   27753   27786   27849       3   27753   27789
   27855       3   27747   27780   27837       3   27747   27783   27843       3
   27744   27774   27825       3   27744   27777   27831       3   27741   27768
   27810       3   27741   27771   27816       3   27738   27762   27801       3
   27738   27765   27807       3   27732   27702   27735       3   27723   27693
   27726       3   27708   27672   27711       1   27705   27672   27708       1
   27705   27672   27711       1   27702   27732   27759       3   27699   27732
   27759       3   27696   27666   27699       3   27693   27723   27750       3
   27687   27660   27690       3   27687   27723   27750       3   27681   27657
   27684       3   27681   27675   27714       3   27675   27654   27678       3
   27669   27702   27735      11   27663   27693   27726      11   27654   27675
   27714       3   27651   27672   27705       2   27651   27672   27708       2
   27651   27672   27711       2   27648   27666   27696       3   27645   27660
   27690       3   27642   27657   27684       3   27639   27654   27678      11
   27630   27609   27633       3   27630   27615   27636       3   27621   27603
   27627      11   27615   27594   27618       3   27609   27591   27612       3
   27603   27588   27606       3   27597   27585   27600       3   27594   27615
   27636       3   27591   27609   27633       3   27588   27603   27627       3
   27582   27591   27612       3   27582   27594   27618       3   27579   27585
   27600       3   27579   27588   27606       3   27567   27555   27570       3
   27567   27561   27573       3   27561   27543   27564       3   27555   27540
   27558       3   27549   27537   27552       1   27546   27537   27549       1
   27546   27537   27552       1   27543   27561   27573       3   27540   27555
   27570       3   27534   27540   27558       3   27534   27543   27564       3
   27531   27537   27546       2   27531   27537   27549       2   27531   27537
   27552       2   28491   28440   28494       1   28488   28440   28491       1
   28488   28440   28494       1   28482   28437   28485       1   28479   28437
   28482       1   28479   28437   28485       1   28473   28434   28476       1
   28470   28434   28473       1   28470   28434   28476       1   28464   28431
   28467       1   28461   28431   28464       1   28461   28431   28467       1
   28455   28428   28458       1   28452   28428   28455       1   28452   28428
   28458       1   28446   28425   28449       1   28443   28425   28446       1
   28443   28425   28449       1   28422   28440   28488       2   28422   28440
   28491       2   28422   28440   28494       2   28419   28437   28479       2
   28419   28437   28482       2   28419   28437   28485       2   28416   28434
   28470       2   28416   28434   28473       2   28416   28434   28476       2
   28413   28431   28461       2   28413   28431   28464       2   28413   28431
   28467       2   28410   28428   28452       2   28410   28428   28455       2
   28410   28428   28458       2   28407   28425   28443       2   28407   28425
   28446       2   28407   28425   28449       2   28398   28341   28401       3
   28398   28347   28404       3   28389   28329   28392       3   28389   28335
   28395       3   28380   28317   28383       3   28380   28323   28386       3
   28374   28311   28377       3   28371   28305   28374       3   28362   28296
   28365       3   28362   28302   28368       3   28353   28281   28356       3
   28353   28287   28359       3   28347   28278   28350       3   28341   28275
   28344       3   28335   28272   28338       3   28329   28269   28332       3
   28323   28266   28326       3   28317   28263   28320       3   28311   28260
   28314       3   28305   28257   28308       3   28299   28254   28302       3
   28293   28251   28296       3   28287   28248   28290       3   28281   28245
   28284       3   28278   28347   28404       3   28275   28341   28401       3
   28272   28335   28395       3   28269   28329   28392       3   28266   28323
   28386       3   28263   28317   28383       3   28260   28311   28377       3
   28257   28305   28371       3   28254   28302   28368       3   28251   28296
   28365       3   28248   28287   28359       3   28245   28281   28356       3
   28239   28275   28344       3   28239   28278   28350       3   28236   28269
   28332       3   28236   28272   28338       3   28230   28263   28320       3
   28230   28266   28326       3   28227   28257   28308       3   28227   28260
   28314       3   28224   28251   28293       3   28224   28254   28299       3
   28221   28245   28284       3   28221   28248   28290       3   28215   28185
   28218       3   28206   28176   28209       3   28191   28155   28194       1
   28188   28155   28191       1   28188   28155   28194       1   28185   28215
   28242       3   28182   28215   28242       3   28179   28149   28182       3
   28176   28206   28233       3   28170   28143   28173       3   28170   28206
   28233       3   28164   28140   28167       3   28164   28158   28197       3
   28158   28137   28161       3   28152   28185   28218      11   28146   28176
   28209      11   28137   28158   28197       3   28134   28155   28188       2
   28134   28155   28191       2   28134   28155   28194       2   28131   28149
   28179       3   28128   28143   28173       3   28125   28140   28167       3
   28122   28137   28161      11   28113   28092   28116       3   28113   28098
   28119       3   28104   28086   28110      11   28098   28077   28101       3
   28092   28074   28095       3   28086   28071   28089       3   28080   28068
   28083       3   28077   28098   28119       3   28074   28092   28116       3
   28071   28086   28110       3   28065   28074   28095       3   28065   28077
   28101       3   28062   28068   28083       3   28062   28071   28089       3
   28050   28038   28053       3   28050   28044   28056       3   28044   28026
   28047       3   28038   28023   28041       3   28032   28020   28035       1
   28029   28020   28032       1   28029   28020   28035       1   28026   28044
   28056       3   28023   28038   28053       3   28017   28023   28041       3
   28017   28026   28047       3   28014   28020   28029       2   28014   28020
   28032       2   28014   28020   28035       2   28974   28923   28977       1
   28971   28923   28974       1   28971   28923   28977       1   28965   28920
   28968       1   28962   28920   28965       1   28962   28920   28968       1
   28956   28917   28959       1   28953   28917   28956       1   28953   28917
   28959       1   28947   28914   28950       1   28944   28914   28947       1
   28944   28914   28950       1   28938   28911   28941       1   28935   28911
   28938       1   28935   28911   28941       1   28929   28908   28932       1
   28926   28908   28929       1   28926   28908   28932       1   28905   28923
   28971       2   28905   28923   28974       2   28905   28923   28977       2
   28902   28920   28962       2   28902   28920   28965       2   28902   28920
   28968       2   28899   28917   28953       2   28899   28917   28956       2
   28899   28917   28959       2   28896   28914   28944       2   28896   28914
   28947       2   28896   28914   28950       2   28893   28911   28935       2
   28893   28911   28938       2   28893   28911   28941       2   28890   28908
   28926       2   28890   28908   28929       2   28890   28908   28932       2
   28881   28824   28884       3   28881   28830   28887       3   28872   28812
   28875       3   28872   28818   28878       3   28863   28800   28866       3
   28863   28806   28869       3   28857   28794   28860       3   28854   28788
   28857       3   28845   28779   28848       3   28845   28785   28851       3
   28836   28764   28839       3   28836   28770   28842       3   28830   28761
   28833       3   28824   28758   28827       3   28818   28755   28821       3
   28812   28752   28815       3   28806   28749   28809       3   28800   28746
   28803       3   28794   28743   28797       3   28788   28740   28791       3
   28782   28737   28785       3   28776   28734   28779       3   28770   28731
   28773       3   28764   28728   28767       3   28761   28830   28887       3
   28758   28824   28884       3   28755   28818   28878       3   28752   28812
   28875       3   28749   28806   28869       3   28746   28800   28866       3
   28743   28794   28860       3   28740   28788   28854       3   28737   28785
   28851       3   28734   28779   28848       3   28731   28770   28842       3
   28728   28764   28839       3   28722   28758   28827       3   28722   28761
   28833       3   28719   28752   28815       3   28719   28755   28821       3
   28713   28746   28803       3   28713   28749   28809       3   28710   28740
   28791       3   28710   28743   28797       3   28707   28734   28776       3
   28707   28737   28782       3   28704   28728   28767       3   28704   28731
   28773       3   28698   28668   28701       3   28689   28659   28692       3
   28674   28638   28677       1   28671   28638   28674       1   28671   28638
   28677       1   28668   28698   28725       3   28665   28698   28725       3
   28662   28632   28665       3   28659   28689   28716       3   28653   28626
   28656       3   28653   28689   28716       3   28647   28623   28650       3
   28647   28641   28680       3   28641   28620   28644       3   28635   28668
   28701      11   28629   28659   28692      11   28620   28641   28680       3
   28617   28638   28671       2   28617   28638   28674       2   28617   28638
   28677       2   28614   28632   28662       3   28611   28626   28656       3
   28608   28623   28650       3   28605   28620   28644      11   28596   28575
   28599       3   28596   28581   28602       3   28587   28569   28593      11
   28581   28560   28584       3   28575   28557   28578       3   28569   28554
   28572       3   28563   28551   28566       3   28560   28581   28602       3
   28557   28575   28599       3   28554   28569   28593       3   28548   28557
   28578       3   28548   28560   28584       3   28545   28551   28566       3
   28545   28554   28572       3   28533   28521   28536       3   28533   28527
   28539       3   28527   28509   28530       3   28521   28506   28524       3
   28515   28503   28518       1   28512   28503   28515       1   28512   28503
   28518       1   28509   28527   28539       3   28506   28521   28536       3
   28500   28506   28524       3   28500   28509   28530       3   28497   28503
   28512       2   28497   28503   28515       2   28497   28503   28518       2
   29457   29406   29460       1   29454   29406   29457       1   29454   29406
   29460       1   29448   29403   29451       1   29445   29403   29448       1
   29445   29403   29451       1   29439   29400   29442       1   29436   29400
   29439       1   29436   29400   29442       1   29430   29397   29433       1
   29427   29397   29430       1   29427   29397   29433       1   29421   29394
   29424       1   29418   29394   29421       1   29418   29394   29424       1
   29412   29391   29415       1   29409   29391   29412       1   29409   29391
   29415       1   29388   29406   29454       2   29388   29406   29457       2
   29388   29406   29460       2   29385   29403   29445       2   29385   29403
   29448       2   29385   29403   29451       2   29382   29400   29436       2
   29382   29400   29439       2   29382   29400   29442       2   29379   29397
   29427       2   29379   29397   29430       2   29379   29397   29433       2
   29376   29394   29418       2   29376   29394   29421       2   29376   29394
   29424       2   29373   29391   29409       2   29373   29391   29412       2
   29373   29391   29415       2   29364   29307   29367       3   29364   29313
   29370       3   29355   29295   29358       3   29355   29301   29361       3
   29346   29283   29349       3   29346   29289   29352       3   29340   29277
   29343       3   29337   29271   29340       3   29328   29262   29331       3
   29328   29268   29334       3   29319   29247   29322       3   29319   29253
   29325       3   29313   29244   29316       3   29307   29241   29310       3
   29301   29238   29304       3   29295   29235   29298       3   29289   29232
   29292       3   29283   29229   29286       3   29277   29226   29280       3
   29271   29223   29274       3   29265   29220   29268       3   29259   29217
   29262       3   29253   29214   29256       3   29247   29211   29250       3
   29244   29313   29370       3   29241   29307   29367       3   29238   29301
   29361       3   29235   29295   29358       3   29232   29289   29352       3
   29229   29283   29349       3   29226   29277   29343       3   29223   29271
   29337       3   29220   29268   29334       3   29217   29262   29331       3
   29214   29253   29325       3   29211   29247   29322       3   29205   29241
   29310       3   29205   29244   29316       3   29202   29235   29298       3
   29202   29238   29304       3   29196   29229   29286       3   29196   29232
   29292       3   29193   29223   29274       3   29193   29226   29280       3
   29190   29217   29259       3   29190   29220   29265       3   29187   29211
   29250       3   29187   29214   29256       3   29181   29151   29184       3
   29172   29142   29175       3   29157   29121   29160       1   29154   29121
   29157       1   29154   29121   29160       1   29151   29181   29208       3
   29148   29181   29208       3   29145   29115   29148       3   29142   29172
   29199       3   29136   29109   29139       3   29136   29172   29199       3
   29130   29106   29133       3   29130   29124   29163       3   29124   29103
   29127       3   29118   29151   29184      11   29112   29142   29175      11
   29103   29124   29163       3   29100   29121   29154       2   29100   29121
   29157       2   29100   29121   29160       2   29097   29115   29145       3
   29094   29109   29139       3   29091   29106   29133       3   29088   29103
   29127      11   29079   29058   29082       3   29079   29064   29085       3
   29070   29052   29076      11   29064   29043   29067       3   29058   29040
   29061       3   29052   29037   29055       3   29046   29034   29049       3
   29043   29064   29085       3   29040   29058   29082       3   29037   29052
   29076       3   29031   29040   29061       3   29031   29043   29067       3
   29028   29034   29049       3   29028   29037   29055       3   29016   29004
   29019       3   29016   29010   29022       3   29010   28992   29013       3
   29004   28989   29007       3   28998   28986   29001       1   28995   28986
   28998       1   28995   28986   29001       1   28992   29010   29022       3
   28989   29004   29019       3   28983   28989   29007       3   28983   28992
   29013       3   28980   28986   28995       2   28980   28986   28998       2
   28980   28986   29001       2   29940   29889   29943       1   29937   29889
   29940       1   29937   29889   29943       1   29931   29886   29934       1
   29928   29886   29931       1   29928   29886   29934       1   29922   29883
   29925       1   29919   29883   29922       1   29919   29883   29925       1
   29913   29880   29916       1   29910   29880   29913       1   29910   29880
   29916       1   29904   29877   29907       1   29901   29877   29904       1
   29901   29877   29907       1   29895   29874   29898       1   29892   29874
   29895       1   29892   29874   29898       1   29871   29889   29937       2
   29871   29889   29940       2   29871   29889   29943       2   29868   29886
   29928       2   29868   29886   29931       2   29868   29886   29934       2
   29865   29883   29919       2   29865   29883   29922       2   29865   29883
   29925       2   29862   29880   29910       2   29862   29880   29913       2
   29862   29880   29916       2   29859   29877   29901       2   29859   29877
   29904       2   29859   29877   29907       2   29856   29874   29892       2
   29856   29874   29895       2   29856   29874   29898       2   29847   29790
   29850       3   29847   29796   29853       3   29838   29778   29841       3
   29838   29784   29844       3   29829   29766   29832       3   29829   29772
   29835       3   29823   29760   29826       3   29820   29754   29823       3
   29811   29745   29814       3   29811   29751   29817       3   29802   29730
   29805       3   29802   29736   29808       3   29796   29727   29799       3
   29790   29724   29793       3   29784   29721   29787       3   29778   29718
   29781       3   29772   29715   29775       3   29766   29712   29769       3
   29760   29709   29763       3   29754   29706   29757       3   29748   29703
   29751       3   29742   29700   29745       3   29736   29697   29739       3
   29730   29694   29733       3   29727   29796   29853       3   29724   29790
   29850       3   29721   29784   29844       3   29718   29778   29841       3
   29715   29772   29835       3   29712   29766   29832       3   29709   29760
   29826       3   29706   29754   29820       3   29703   29751   29817       3
   29700   29745   29814       3   29697   29736   29808       3   29694   29730
   29805       3   29688   29724   29793       3   29688   29727   29799       3
   29685   29718   29781       3   29685   29721   29787       3   29679   29712
   29769       3   29679   29715   29775       3   29676   29706   29757       3
   29676   29709   29763       3   29673   29700   29742       3   29673   29703
   29748       3   29670   29694   29733       3   29670   29697   29739       3
   29664   29634   29667       3   29655   29625   29658       3   29640   29604
   29643       1   29637   29604   29640       1   29637   29604   29643       1
   29634   29664   29691       3   29631   29664   29691       3   29628   29598
   29631       3   29625   29655   29682       3   29619   29592   29622       3
   29619   29655   29682       3   29613   29589   29616       3   29613   29607
   29646       3   29607   29586   29610       3   29601   29634   29667      11
   29595   29625   29658      11   29586   29607   29646       3   29583   29604
   29637       2   29583   29604   29640       2   29583   29604   29643       2
   29580   29598   29628       3   29577   29592   29622       3   29574   29589
   29616       3   29571   29586   29610      11   29562   29541   29565       3
   29562   29547   29568       3   29553   29535   29559      11   29547   29526
   29550       3   29541   29523   29544       3   29535   29520   29538       3
   29529   29517   29532       3   29526   29547   29568       3   29523   29541
   29565       3   29520   29535   29559       3   29514   29523   29544       3
   29514   29526   29550       3   29511   29517   29532       3   29511   29520
   29538       3   29499   29487   29502       3   29499   29493   29505       3
   29493   29475   29496       3   29487   29472   29490       3   29481   29469
   29484       1   29478   29469   29481       1   29478   29469   29484       1
   29475   29493   29505       3   29472   29487   29502       3   29466   29472
   29490       3   29466   29475   29496       3   29463   29469   29478       2
   29463   29469   29481       2   29463   29469   29484       2   30423   30372
   30426       1   30420   30372   30423       1   30420   30372   30426       1
   30414   30369   30417       1   30411   30369   30414       1   30411   30369
   30417       1   30405   30366   30408       1   30402   30366   30405       1
   30402   30366   30408       1   30396   30363   30399       1   30393   30363
   30396       1   30393   30363   30399       1   30387   30360   30390       1
   30384   30360   30387       1   30384   30360   30390       1   30378   30357
   30381       1   30375   30357   30378       1   30375   30357   30381       1
   30354   30372   30420       2   30354   30372   30423       2   30354   30372
   30426       2   30351   30369   30411       2   30351   30369   30414       2
   30351   30369   30417       2   30348   30366   30402       2   30348   30366
   30405       2   30348   30366   30408       2   30345   30363   30393       2
   30345   30363   30396       2   30345   30363   30399       2   30342   30360
   30384       2   30342   30360   30387       2   30342   30360   30390       2
   30339   30357   30375       2   30339   30357   30378       2   30339   30357
   30381       2   30330   30273   30333       3   30330   30279   30336       3
   30321   30261   30324       3   30321   30267   30327       3   30312   30249
   30315       3   30312   30255   30318       3   30306   30243   30309       3
   30303   30237   30306       3   30294   30228   30297       3   30294   30234
   30300       3   30285   30213   30288       3   30285   30219   30291       3
   30279   30210   30282       3   30273   30207   30276       3   30267   30204
   30270       3   30261   30201   30264       3   30255   30198   30258       3
   30249   30195   30252       3   30243   30192   30246       3   30237   30189
   30240       3   30231   30186   30234       3   30225   30183   30228       3
   30219   30180   30222       3   30213   30177   30216       3   30210   30279
   30336       3   30207   30273   30333       3   30204   30267   30327       3
   30201   30261   30324       3   30198   30255   30318       3   30195   30249
   30315       3   30192   30243   30309       3   30189   30237   30303       3
   30186   30234   30300       3   30183   30228   30297       3   30180   30219
   30291       3   30177   30213   30288       3   30171   30207   30276       3
   30171   30210   30282       3   30168   30201   30264       3   30168   30204
   30270       3   30162   30195   30252       3   30162   30198   30258       3
   30159   30189   30240       3   30159   30192   30246       3   30156   30183
   30225       3   30156   30186   30231       3   30153   30177   30216       3
   30153   30180   30222       3   30147   30117   30150       3   30138   30108
   30141       3   30123   30087   30126       1   30120   30087   30123       1
   30120   30087   30126       1   30117   30147   30174       3   30114   30147
   30174       3   30111   30081   30114       3   30108   30138   30165       3
   30102   30075   30105       3   30102   30138   30165       3   30096   30072
   30099       3   30096   30090   30129       3   30090   30069   30093       3
   30084   30117   30150      11   30078   30108   30141      11   30069   30090
   30129       3   30066   30087   30120       2   30066   30087   30123       2
   30066   30087   30126       2   30063   30081   30111       3   30060   30075
   30105       3   30057   30072   30099       3   30054   30069   30093      11
   30045   30024   30048       3   30045   30030   30051       3   30036   30018
   30042      11   30030   30009   30033       3   30024   30006   30027       3
   30018   30003   30021       3   30012   30000   30015       3   30009   30030
   30051       3   30006   30024   30048       3   30003   30018   30042       3
   29997   30006   30027       3   29997   30009   30033       3   29994   30000
   30015       3   29994   30003   30021       3   29982   29970   29985       3
   29982   29976   29988       3   29976   29958   29979       3   29970   29955
   29973       3   29964   29952   29967       1   29961   29952   29964       1
   29961   29952   29967       1   29958   29976   29988       3   29955   29970
   29985       3   29949   29955   29973       3   29949   29958   29979       3
   29946   29952   29961       2   29946   29952   29964       2   29946   29952
   29967       2   30906   30855   30909       1   30903   30855   30906       1
   30903   30855   30909       1   30897   30852   30900       1   30894   30852
   30897       1   30894   30852   30900       1   30888   30849   30891       1
   30885   30849   30888       1   30885   30849   30891       1   30879   30846
   30882       1   30876   30846   30879       1   30876   30846   30882       1
   30870   30843   30873       1   30867   30843   30870       1   30867   30843
   30873       1   30861   30840   30864       1   30858   30840   30861       1
   30858   30840   30864       1   30837   30855   30903       2   30837   30855
   30906       2   30837   30855   30909       2   30834   30852   30894       2
   30834   30852   30897       2   30834   30852   30900       2   30831   30849
   30885       2   30831   30849   30888       2   30831   30849   30891       2
   30828   30846   30876       2   30828   30846   30879       2   30828   30846
   30882       2   30825   30843   30867       2   30825   30843   30870       2
   30825   30843   30873       2   30822   30840   30858       2   30822   30840
   30861       2   30822   30840   30864       2   30813   30756   30816       3
   30813   30762   30819       3   30804   30744   30807       3   30804   30750
   30810       3   30795   30732   30798       3   30795   30738   30801       3
   30789   30726   30792       3   30786   30720   30789       3   30777   30711
   30780       3   30777   30717   30783       3   30768   30696   30771       3
   30768   30702   30774       3   30762   30693   30765       3   30756   30690
   30759       3   30750   30687   30753       3   30744   30684   30747       3
   30738   30681   30741       3   30732   30678   30735       3   30726   30675
   30729       3   30720   30672   30723       3   30714   30669   30717       3
   30708   30666   30711       3   30702   30663   30705       3   30696   30660
   30699       3   30693   30762   30819       3   30690   30756   30816       3
   30687   30750   30810       3   30684   30744   30807       3   30681   30738
   30801       3   30678   30732   30798       3   30675   30726   30792       3
   30672   30720   30786       3   30669   30717   30783       3   30666   30711
   30780       3   30663   30702   30774       3   30660   30696   30771       3
   30654   30690   30759       3   30654   30693   30765       3   30651   30684
   30747       3   30651   30687   30753       3   30645   30678   30735       3
   30645   30681   30741       3   30642   30672   30723       3   30642   30675
   30729       3   30639   30666   30708       3   30639   30669   30714       3
   30636   30660   30699       3   30636   30663   30705       3   30630   30600
   30633       3   30621   30591   30624       3   30606   30570   30609       1
   30603   30570   30606       1   30603   30570   30609       1   30600   30630
   30657       3   30597   30630   30657       3   30594   30564   30597       3
   30591   30621   30648       3   30585   30558   30588       3   30585   30621
   30648       3   30579   30555   30582       3   30579   30573   30612       3
   30573   30552   30576       3   30567   30600   30633      11   30561   30591
   30624      11   30552   30573   30612       3   30549   30570   30603       2
   30549   30570   30606       2   30549   30570   30609       2   30546   30564
   30594       3   30543   30558   30588       3   30540   30555   30582       3
   30537   30552   30576      11   30528   30507   30531       3   30528   30513
   30534       3   30519   30501   30525      11   30513   30492   30516       3
   30507   30489   30510       3   30501   30486   30504       3   30495   30483
   30498       3   30492   30513   30534       3   30489   30507   30531       3
   30486   30501   30525       3   30480   30489   30510       3   30480   30492
   30516       3   30477   30483   30498       3   30477   30486   30504       3
   30465   30453   30468       3   30465   30459   30471       3   30459   30441
   30462       3   30453   30438   30456       3   30447   30435   30450       1
   30444   30435   30447       1   30444   30435   30450       1   30441   30459
   30471       3   30438   30453   30468       3   30432   30438   30456       3
   30432   30441   30462       3   30429   30435   30444       2   30429   30435
   30447       2   30429   30435   30450       2   31389   31338   31392       1
   31386   31338   31389       1   31386   31338   31392       1   31380   31335
   31383       1   31377   31335   31380       1   31377   31335   31383       1
   31371   31332   31374       1   31368   31332   31371       1   31368   31332
   31374       1   31362   31329   31365       1   31359   31329   31362       1
   31359   31329   31365       1   31353   31326   31356       1   31350   31326
   31353       1   31350   31326   31356       1   31344   31323   31347       1
   31341   31323   31344       1   31341   31323   31347       1   31320   31338
   31386       2   31320   31338   31389       2   31320   31338   31392       2
   31317   31335   31377       2   31317   31335   31380       2   31317   31335
   31383       2   31314   31332   31368       2   31314   31332   31371       2
   31314   31332   31374       2   31311   31329   31359       2   31311   31329
   31362       2   31311   31329   31365       2   31308   31326   31350       2
   31308   31326   31353       2   31308   31326   31356       2   31305   31323
   31341       2   31305   31323   31344       2   31305   31323   31347       2
   31296   31239   31299       3   31296   31245   31302       3   31287   31227
   31290       3   31287   31233   31293       3   31278   31215   31281       3
   31278   31221   31284       3   31272   31209   31275       3   31269   31203
   31272       3   31260   31194   31263       3   31260   31200   31266       3
   31251   31179   31254       3   31251   31185   31257       3   31245   31176
   31248       3   31239   31173   31242       3   31233   31170   31236       3
   31227   31167   31230       3   31221   31164   31224       3   31215   31161
   31218       3   31209   31158   31212       3   31203   31155   31206       3
   31197   31152   31200       3   31191   31149   31194       3   31185   31146
   31188       3   31179   31143   31182       3   31176   31245   31302       3
   31173   31239   31299       3   31170   31233   31293       3   31167   31227
   31290       3   31164   31221   31284       3   31161   31215   31281       3
   31158   31209   31275       3   31155   31203   31269       3   31152   31200
   31266       3   31149   31194   31263       3   31146   31185   31257       3
   31143   31179   31254       3   31137   31173   31242       3   31137   31176
   31248       3   31134   31167   31230       3   31134   31170   31236       3
   31128   31161   31218       3   31128   31164   31224       3   31125   31155
   31206       3   31125   31158   31212       3   31122   31149   31191       3
   31122   31152   31197       3   31119   31143   31182       3   31119   31146
   31188       3   31113   31083   31116       3   31104   31074   31107       3
   31089   31053   31092       1   31086   31053   31089       1   31086   31053
   31092       1   31083   31113   31140       3   31080   31113   31140       3
   31077   31047   31080       3   31074   31104   31131       3   31068   31041
   31071       3   31068   31104   31131       3   31062   31038   31065       3
   31062   31056   31095       3   31056   31035   31059       3   31050   31083
   31116      11   31044   31074   31107      11   31035   31056   31095       3
   31032   31053   31086       2   31032   31053   31089       2   31032   31053
   31092       2   31029   31047   31077       3   31026   31041   31071       3
   31023   31038   31065       3   31020   31035   31059      11   31011   30990
   31014       3   31011   30996   31017       3   31002   30984   31008      11
   30996   30975   30999       3   30990   30972   30993       3   30984   30969
   30987       3   30978   30966   30981       3   30975   30996   31017       3
   30972   30990   31014       3   30969   30984   31008       3   30963   30972
   30993       3   30963   30975   30999       3   30960   30966   30981       3
   30960   30969   30987       3   30948   30936   30951       3   30948   30942
   30954       3   30942   30924   30945       3   30936   30921   30939       3
   30930   30918   30933       1   30927   30918   30930       1   30927   30918
   30933       1   30924   30942   30954       3   30921   30936   30951       3
   30915   30921   30939       3   30915   30924   30945       3   30912   30918
   30927       2   30912   30918   30930       2   30912   30918   30933       2
   31872   31821   31875       1   31869   31821   31872       1   31869   31821
   31875       1   31863   31818   31866       1   31860   31818   31863       1
   31860   31818   31866       1   31854   31815   31857       1   31851   31815
   31854       1   31851   31815   31857       1   31845   31812   31848       1
   31842   31812   31845       1   31842   31812   31848       1   31836   31809
   31839       1   31833   31809   31836       1   31833   31809   31839       1
   31827   31806   31830       1   31824   31806   31827       1   31824   31806
   31830       1   31803   31821   31869       2   31803   31821   31872       2
   31803   31821   31875       2   31800   31818   31860       2   31800   31818
   31863       2   31800   31818   31866       2   31797   31815   31851       2
   31797   31815   31854       2   31797   31815   31857       2   31794   31812
   31842       2   31794   31812   31845       2   31794   31812   31848       2
   31791   31809   31833       2   31791   31809   31836       2   31791   31809
   31839       2   31788   31806   31824       2   31788   31806   31827       2
   31788   31806   31830       2   31779   31722   31782       3   31779   31728
   31785       3   31770   31710   31773       3   31770   31716   31776       3
   31761   31698   31764       3   31761   31704   31767       3   31755   31692
   31758       3   31752   31686   31755       3   31743   31677   31746       3
   31743   31683   31749       3   31734   31662   31737       3   31734   31668
   31740       3   31728   31659   31731       3   31722   31656   31725       3
   31716   31653   31719       3   31710   31650   31713       3   31704   31647
   31707       3   31698   31644   31701       3   31692   31641   31695       3
   31686   31638   31689       3   31680   31635   31683       3   31674   31632
   31677       3   31668   31629   31671       3   31662   31626   31665       3
   31659   31728   31785       3   31656   31722   31782       3   31653   31716
   31776       3   31650   31710   31773       3   31647   31704   31767       3
   31644   31698   31764       3   31641   31692   31758       3   31638   31686
   31752       3   31635   31683   31749       3   31632   31677   31746       3
   31629   31668   31740       3   31626   31662   31737       3   31620   31656
   31725       3   31620   31659   31731       3   31617   31650   31713       3
   31617   31653   31719       3   31611   31644   31701       3   31611   31647
   31707       3   31608   31638   31689       3   31608   31641   31695       3
   31605   31632   31674       3   31605   31635   31680       3   31602   31626
   31665       3   31602   31629   31671       3   31596   31566   31599       3
   31587   31557   31590       3   31572   31536   31575       1   31569   31536
   31572       1   31569   31536   31575       1   31566   31596   31623       3
   31563   31596   31623       3   31560   31530   31563       3   31557   31587
   31614       3   31551   31524   31554       3   31551   31587   31614       3
   31545   31521   31548       3   31545   31539   31578       3   31539   31518
   31542       3   31533   31566   31599      11   31527   31557   31590      11
   31518   31539   31578       3   31515   31536   31569       2   31515   31536
   31572       2   31515   31536   31575       2   31512   31530   31560       3
   31509   31524   31554       3   31506   31521   31548       3   31503   31518
   31542      11   31494   31473   31497       3   31494   31479   31500       3
   31485   31467   31491      11   31479   31458   31482       3   31473   31455
   31476       3   31467   31452   31470       3   31461   31449   31464       3
   31458   31479   31500       3   31455   31473   31497       3   31452   31467
   31491       3   31446   31455   31476       3   31446   31458   31482       3
   31443   31449   31464       3   31443   31452   31470       3   31431   31419
   31434       3   31431   31425   31437       3   31425   31407   31428       3
   31419   31404   31422       3   31413   31401   31416       1   31410   31401
   31413       1   31410   31401   31416       1   31407   31425   31437       3
   31404   31419   31434       3   31398   31404   31422       3   31398   31407
   31428       3   31395   31401   31410       2   31395   31401   31413       2
   31395   31401   31416       2   32355   32304   32358       1   32352   32304
   32355       1   32352   32304   32358       1   32346   32301   32349       1
   32343   32301   32346       1   32343   32301   32349       1   32337   32298
   32340       1   32334   32298   32337       1   32334   32298   32340       1
   32328   32295   32331       1   32325   32295   32328       1   32325   32295
   32331       1   32319   32292   32322       1   32316   32292   32319       1
   32316   32292   32322       1   32310   32289   32313       1   32307   32289
   32310       1   32307   32289   32313       1   32286   32304   32352       2
   32286   32304   32355       2   32286   32304   32358       2   32283   32301
   32343       2   32283   32301   32346       2   32283   32301   32349       2
   32280   32298   32334       2   32280   32298   32337       2   32280   32298
   32340       2   32277   32295   32325       2   32277   32295   32328       2
   32277   32295   32331       2   32274   32292   32316       2   32274   32292
   32319       2   32274   32292   32322       2   32271   32289   32307       2
   32271   32289   32310       2   32271   32289   32313       2   32262   32205
   32265       3   32262   32211   32268       3   32253   32193   32256       3
   32253   32199   32259       3   32244   32181   32247       3   32244   32187
   32250       3   32238   32175   32241       3   32235   32169   32238       3
   32226   32160   32229       3   32226   32166   32232       3   32217   32145
   32220       3   32217   32151   32223       3   32211   32142   32214       3
   32205   32139   32208       3   32199   32136   32202       3   32193   32133
   32196       3   32187   32130   32190       3   32181   32127   32184       3
   32175   32124   32178       3   32169   32121   32172       3   32163   32118
   32166       3   32157   32115   32160       3   32151   32112   32154       3
   32145   32109   32148       3   32142   32211   32268       3   32139   32205
   32265       3   32136   32199   32259       3   32133   32193   32256       3
   32130   32187   32250       3   32127   32181   32247       3   32124   32175
   32241       3   32121   32169   32235       3   32118   32166   32232       3
   32115   32160   32229       3   32112   32151   32223       3   32109   32145
   32220       3   32103   32139   32208       3   32103   32142   32214       3
   32100   32133   32196       3   32100   32136   32202       3   32094   32127
   32184       3   32094   32130   32190       3   32091   32121   32172       3
   32091   32124   32178       3   32088   32115   32157       3   32088   32118
   32163       3   32085   32109   32148       3   32085   32112   32154       3
   32079   32049   32082       3   32070   32040   32073       3   32055   32019
   32058       1   32052   32019   32055       1   32052   32019   32058       1
   32049   32079   32106       3   32046   32079   32106       3   32043   32013
   32046       3   32040   32070   32097       3   32034   32007   32037       3
   32034   32070   32097       3   32028   32004   32031       3   32028   32022
   32061       3   32022   32001   32025       3   32016   32049   32082      11
   32010   32040   32073      11   32001   32022   32061       3   31998   32019
   32052       2   31998   32019   32055       2   31998   32019   32058       2
   31995   32013   32043       3   31992   32007   32037       3   31989   32004
   32031       3   31986   32001   32025      11   31977   31956   31980       3
   31977   31962   31983       3   31968   31950   31974      11   31962   31941
   31965       3   31956   31938   31959       3   31950   31935   31953       3
   31944   31932   31947       3   31941   31962   31983       3   31938   31956
   31980       3   31935   31950   31974       3   31929   31938   31959       3
   31929   31941   31965       3   31926   31932   31947       3   31926   31935
   31953       3   31914   31902   31917       3   31914   31908   31920       3
   31908   31890   31911       3   31902   31887   31905       3   31896   31884
   31899       1   31893   31884   31896       1   31893   31884   31899       1
   31890   31908   31920       3   31887   31902   31917       3   31881   31887
   31905       3   31881   31890   31911       3   31878   31884   31893       2
   31878   31884   31896       2   31878   31884   31899       2   32838   32787
   32841       1   32835   32787   32838       1   32835   32787   32841       1
   32829   32784   32832       1   32826   32784   32829       1   32826   32784
   32832       1   32820   32781   32823       1   32817   32781   32820       1
   32817   32781   32823       1   32811   32778   32814       1   32808   32778
   32811       1   32808   32778   32814       1   32802   32775   32805       1
   32799   32775   32802       1   32799   32775   32805       1   32793   32772
   32796       1   32790   32772   32793       1   32790   32772   32796       1
   32769   32787   32835       2   32769   32787   32838       2   32769   32787
   32841       2   32766   32784   32826       2   32766   32784   32829       2
   32766   32784   32832       2   32763   32781   32817       2   32763   32781
   32820       2   32763   32781   32823       2   32760   32778   32808       2
   32760   32778   32811       2   32760   32778   32814       2   32757   32775
   32799       2   32757   32775   32802       2   32757   32775   32805       2
   32754   32772   32790       2   32754   32772   32793       2   32754   32772
   32796       2   32745   32688   32748       3   32745   32694   32751       3
   32736   32676   32739       3   32736   32682   32742       3   32727   32664
   32730       3   32727   32670   32733       3   32721   32658   32724       3
   32718   32652   32721       3   32709   32643   32712       3   32709   32649
   32715       3   32700   32628   32703       3   32700   32634   32706       3
   32694   32625   32697       3   32688   32622   32691       3   32682   32619
   32685       3   32676   32616   32679       3   32670   32613   32673       3
   32664   32610   32667       3   32658   32607   32661       3   32652   32604
   32655       3   32646   32601   32649       3   32640   32598   32643       3
   32634   32595   32637       3   32628   32592   32631       3   32625   32694
   32751       3   32622   32688   32748       3   32619   32682   32742       3
   32616   32676   32739       3   32613   32670   32733       3   32610   32664
   32730       3   32607   32658   32724       3   32604   32652   32718       3
   32601   32649   32715       3   32598   32643   32712       3   32595   32634
   32706       3   32592   32628   32703       3   32586   32622   32691       3
   32586   32625   32697       3   32583   32616   32679       3   32583   32619
   32685       3   32577   32610   32667       3   32577   32613   32673       3
   32574   32604   32655       3   32574   32607   32661       3   32571   32598
   32640       3   32571   32601   32646       3   32568   32592   32631       3
   32568   32595   32637       3   32562   32532   32565       3   32553   32523
   32556       3   32538   32502   32541       1   32535   32502   32538       1
   32535   32502   32541       1   32532   32562   32589       3   32529   32562
   32589       3   32526   32496   32529       3   32523   32553   32580       3
   32517   32490   32520       3   32517   32553   32580       3   32511   32487
   32514       3   32511   32505   32544       3   32505   32484   32508       3
   32499   32532   32565      11   32493   32523   32556      11   32484   32505
   32544       3   32481   32502   32535       2   32481   32502   32538       2
   32481   32502   32541       2   32478   32496   32526       3   32475   32490
   32520       3   32472   32487   32514       3   32469   32484   32508      11
   32460   32439   32463       3   32460   32445   32466       3   32451   32433
   32457      11   32445   32424   32448       3   32439   32421   32442       3
   32433   32418   32436       3   32427   32415   32430       3   32424   32445
   32466       3   32421   32439   32463       3   32418   32433   32457       3
   32412   32421   32442       3   32412   32424   32448       3   32409   32415
   32430       3   32409   32418   32436       3   32397   32385   32400       3
   32397   32391   32403       3   32391   32373   32394       3   32385   32370
   32388       3   32379   32367   32382       1   32376   32367   32379       1
   32376   32367   32382       1   32373   32391   32403       3   32370   32385
   32400       3   32364   32370   32388       3   32364   32373   32394       3
   32361   32367   32376       2   32361   32367   32379       2   32361   32367
   32382       2   33321   33270   33324       1   33318   33270   33321       1
   33318   33270   33324       1   33312   33267   33315       1   33309   33267
   33312       1   33309   33267   33315       1   33303   33264   33306       1
   33300   33264   33303       1   33300   33264   33306       1   33294   33261
   33297       1   33291   33261   33294       1   33291   33261   33297       1
   33285   33258   33288       1   33282   33258   33285       1   33282   33258
   33288       1   33276   33255   33279       1   33273   33255   33276       1
   33273   33255   33279       1   33252   33270   33318       2   33252   33270
   33321       2   33252   33270   33324       2   33249   33267   33309       2
   33249   33267   33312       2   33249   33267   33315       2   33246   33264
   33300       2   33246   33264   33303       2   33246   33264   33306       2
   33243   33261   33291       2   33243   33261   33294       2   33243   33261
   33297       2   33240   33258   33282       2   33240   33258   33285       2
   33240   33258   33288       2   33237   33255   33273       2   33237   33255
   33276       2   33237   33255   33279       2   33228   33171   33231       3
   33228   33177   33234       3   33219   33159   33222       3   33219   33165
   33225       3   33210   33147   33213       3   33210   33153   33216       3
   33204   33141   33207       3   33201   33135   33204       3   33192   33126
   33195       3   33192   33132   33198       3   33183   33111   33186       3
   33183   33117   33189       3   33177   33108   33180       3   33171   33105
   33174       3   33165   33102   33168       3   33159   33099   33162       3
   33153   33096   33156       3   33147   33093   33150       3   33141   33090
   33144       3   33135   33087   33138       3   33129   33084   33132       3
   33123   33081   33126       3   33117   33078   33120       3   33111   33075
   33114       3   33108   33177   33234       3   33105   33171   33231       3
   33102   33165   33225       3   33099   33159   33222       3   33096   33153
   33216       3   33093   33147   33213       3   33090   33141   33207       3
   33087   33135   33201       3   33084   33132   33198       3   33081   33126
   33195       3   33078   33117   33189       3   33075   33111   33186       3
   33069   33105   33174       3   33069   33108   33180       3   33066   33099
   33162       3   33066   33102   33168       3   33060   33093   33150       3
   33060   33096   33156       3   33057   33087   33138       3   33057   33090
   33144       3   33054   33081   33123       3   33054   33084   33129       3
   33051   33075   33114       3   33051   33078   33120       3   33045   33015
   33048       3   33036   33006   33039       3   33021   32985   33024       1
   33018   32985   33021       1   33018   32985   33024       1   33015   33045
   33072       3   33012   33045   33072       3   33009   32979   33012       3
   33006   33036   33063       3   33000   32973   33003       3   33000   33036
   33063       3   32994   32970   32997       3   32994   32988   33027       3
   32988   32967   32991       3   32982   33015   33048      11   32976   33006
   33039      11   32967   32988   33027       3   32964   32985   33018       2
   32964   32985   33021       2   32964   32985   33024       2   32961   32979
   33009       3   32958   32973   33003       3   32955   32970   32997       3
   32952   32967   32991      11   32943   32922   32946       3   32943   32928
   32949       3   32934   32916   32940      11   32928   32907   32931       3
   32922   32904   32925       3   32916   32901   32919       3   32910   32898
   32913       3   32907   32928   32949       3   32904   32922   32946       3
   32901   32916   32940       3   32895   32904   32925       3   32895   32907
   32931       3   32892   32898   32913       3   32892   32901   32919       3
   32880   32868   32883       3   32880   32874   32886       3   32874   32856
   32877       3   32868   32853   32871       3   32862   32850   32865       1
   32859   32850   32862       1   32859   32850   32865       1   32856   32874
   32886       3   32853   32868   32883       3   32847   32853   32871       3
   32847   32856   32877       3   32844   32850   32859       2   32844   32850
   32862       2   32844   32850   32865       2   33804   33753   33807       1
   33801   33753   33804       1   33801   33753   33807       1   33795   33750
   33798       1   33792   33750   33795       1   33792   33750   33798       1
   33786   33747   33789       1   33783   33747   33786       1   33783   33747
   33789       1   33777   33744   33780       1   33774   33744   33777       1
   33774   33744   33780       1   33768   33741   33771       1   33765   33741
   33768       1   33765   33741   33771       1   33759   33738   33762       1
   33756   33738   33759       1   33756   33738   33762       1   33735   33753
   33801       2   33735   33753   33804       2   33735   33753   33807       2
   33732   33750   33792       2   33732   33750   33795       2   33732   33750
   33798       2   33729   33747   33783       2   33729   33747   33786       2
   33729   33747   33789       2   33726   33744   33774       2   33726   33744
   33777       2   33726   33744   33780       2   33723   33741   33765       2
   33723   33741   33768       2   33723   33741   33771       2   33720   33738
   33756       2   33720   33738   33759       2   33720   33738   33762       2
   33711   33654   33714       3   33711   33660   33717       3   33702   33642
   33705       3   33702   33648   33708       3   33693   33630   33696       3
   33693   33636   33699       3   33687   33624   33690       3   33684   33618
   33687       3   33675   33609   33678       3   33675   33615   33681       3
   33666   33594   33669       3   33666   33600   33672       3   33660   33591
   33663       3   33654   33588   33657       3   33648   33585   33651       3
   33642   33582   33645       3   33636   33579   33639       3   33630   33576
   33633       3   33624   33573   33627       3   33618   33570   33621       3
   33612   33567   33615       3   33606   33564   33609       3   33600   33561
   33603       3   33594   33558   33597       3   33591   33660   33717       3
   33588   33654   33714       3   33585   33648   33708       3   33582   33642
   33705       3   33579   33636   33699       3   33576   33630   33696       3
   33573   33624   33690       3   33570   33618   33684       3   33567   33615
   33681       3   33564   33609   33678       3   33561   33600   33672       3
   33558   33594   33669       3   33552   33588   33657       3   33552   33591
   33663       3   33549   33582   33645       3   33549   33585   33651       3
   33543   33576   33633       3   33543   33579   33639       3   33540   33570
   33621       3   33540   33573   33627       3   33537   33564   33606       3
   33537   33567   33612       3   33534   33558   33597       3   33534   33561
   33603       3   33528   33498   33531       3   33519   33489   33522       3
   33504   33468   33507       1   33501   33468   33504       1   33501   33468
   33507       1   33498   33528   33555       3   33495   33528   33555       3
   33492   33462   33495       3   33489   33519   33546       3   33483   33456
   33486       3   33483   33519   33546       3   33477   33453   33480       3
   33477   33471   33510       3   33471   33450   33474       3   33465   33498
   33531      11   33459   33489   33522      11   33450   33471   33510       3
   33447   33468   33501       2   33447   33468   33504       2   33447   33468
   33507       2   33444   33462   33492       3   33441   33456   33486       3
   33438   33453   33480       3   33435   33450   33474      11   33426   33405
   33429       3   33426   33411   33432       3   33417   33399   33423      11
   33411   33390   33414       3   33405   33387   33408       3   33399   33384
   33402       3   33393   33381   33396       3   33390   33411   33432       3
   33387   33405   33429       3   33384   33399   33423       3   33378   33387
   33408       3   33378   33390   33414       3   33375   33381   33396       3
   33375   33384   33402       3   33363   33351   33366       3   33363   33357
   33369       3   33357   33339   33360       3   33351   33336   33354       3
   33345   33333   33348       1   33342   33333   33345       1   33342   33333
   33348       1   33339   33357   33369       3   33336   33351   33366       3
   33330   33336   33354       3   33330   33339   33360       3   33327   33333
   33342       2   33327   33333   33345       2   33327   33333   33348       2
   34287   34236   34290       1   34284   34236   34287       1   34284   34236
   34290       1   34278   34233   34281       1   34275   34233   34278       1
   34275   34233   34281       1   34269   34230   34272       1   34266   34230
   34269       1   34266   34230   34272       1   34260   34227   34263       1
   34257   34227   34260       1   34257   34227   34263       1   34251   34224
   34254       1   34248   34224   34251       1   34248   34224   34254       1
   34242   34221   34245       1   34239   34221   34242       1   34239   34221
   34245       1   34218   34236   34284       2   34218   34236   34287       2
   34218   34236   34290       2   34215   34233   34275       2   34215   34233
   34278       2   34215   34233   34281       2   34212   34230   34266       2
   34212   34230   34269       2   34212   34230   34272       2   34209   34227
   34257       2   34209   34227   34260       2   34209   34227   34263       2
   34206   34224   34248       2   34206   34224   34251       2   34206   34224
   34254       2   34203   34221   34239       2   34203   34221   34242       2
   34203   34221   34245       2   34194   34137   34197       3   34194   34143
   34200       3   34185   34125   34188       3   34185   34131   34191       3
   34176   34113   34179       3   34176   34119   34182       3   34170   34107
   34173       3   34167   34101   34170       3   34158   34092   34161       3
   34158   34098   34164       3   34149   34077   34152       3   34149   34083
   34155       3   34143   34074   34146       3   34137   34071   34140       3
   34131   34068   34134       3   34125   34065   34128       3   34119   34062
   34122       3   34113   34059   34116       3   34107   34056   34110       3
   34101   34053   34104       3   34095   34050   34098       3   34089   34047
   34092       3   34083   34044   34086       3   34077   34041   34080       3
   34074   34143   34200       3   34071   34137   34197       3   34068   34131
   34191       3   34065   34125   34188       3   34062   34119   34182       3
   34059   34113   34179       3   34056   34107   34173       3   34053   34101
   34167       3   34050   34098   34164       3   34047   34092   34161       3
   34044   34083   34155       3   34041   34077   34152       3   34035   34071
   34140       3   34035   34074   34146       3   34032   34065   34128       3
   34032   34068   34134       3   34026   34059   34116       3   34026   34062
   34122       3   34023   34053   34104       3   34023   34056   34110       3
   34020   34047   34089       3   34020   34050   34095       3   34017   34041
   34080       3   34017   34044   34086       3   34011   33981   34014       3
   34002   33972   34005       3   33987   33951   33990       1   33984   33951
   33987       1   33984   33951   33990       1   33981   34011   34038       3
   33978   34011   34038       3   33975   33945   33978       3   33972   34002
   34029       3   33966   33939   33969       3   33966   34002   34029       3
   33960   33936   33963       3   33960   33954   33993       3   33954   33933
   33957       3   33948   33981   34014      11   33942   33972   34005      11
   33933   33954   33993       3   33930   33951   33984       2   33930   33951
   33987       2   33930   33951   33990       2   33927   33945   33975       3
   33924   33939   33969       3   33921   33936   33963       3   33918   33933
   33957      11   33909   33888   33912       3   33909   33894   33915       3
   33900   33882   33906      11   33894   33873   33897       3   33888   33870
   33891       3   33882   33867   33885       3   33876   33864   33879       3
   33873   33894   33915       3   33870   33888   33912       3   33867   33882
   33906       3   33861   33870   33891       3   33861   33873   33897       3
   33858   33864   33879       3   33858   33867   33885       3   33846   33834
   33849       3   33846   33840   33852       3   33840   33822   33843       3
   33834   33819   33837       3   33828   33816   33831       1   33825   33816
   33828       1   33825   33816   33831       1   33822   33840   33852       3
   33819   33834   33849       3   33813   33819   33837       3   33813   33822
   33843       3   33810   33816   33825       2   33810   33816   33828       2
   33810   33816   33831       2   34770   34719   34773       1   34767   34719
   34770       1   34767   34719   34773       1   34761   34716   34764       1
   34758   34716   34761       1   34758   34716   34764       1   34752   34713
   34755       1   34749   34713   34752       1   34749   34713   34755       1
   34743   34710   34746       1   34740   34710   34743       1   34740   34710
   34746       1   34734   34707   34737       1   34731   34707   34734       1
   34731   34707   34737       1   34725   34704   34728       1   34722   34704
   34725       1   34722   34704   34728       1   34701   34719   34767       2
   34701   34719   34770       2   34701   34719   34773       2   34698   34716
   34758       2   34698   34716   34761       2   34698   34716   34764       2
   34695   34713   34749       2   34695   34713   34752       2   34695   34713
   34755       2   34692   34710   34740       2   34692   34710   34743       2
   34692   34710   34746       2   34689   34707   34731       2   34689   34707
   34734       2   34689   34707   34737       2   34686   34704   34722       2
   34686   34704   34725       2   34686   34704   34728       2   34677   34620
   34680       3   34677   34626   34683       3   34668   34608   34671       3
   34668   34614   34674       3   34659   34596   34662       3   34659   34602
   34665       3   34653   34590   34656       3   34650   34584   34653       3
   34641   34575   34644       3   34641   34581   34647       3   34632   34560
   34635       3   34632   34566   34638       3   34626   34557   34629       3
   34620   34554   34623       3   34614   34551   34617       3   34608   34548
   34611       3   34602   34545   34605       3   34596   34542   34599       3
   34590   34539   34593       3   34584   34536   34587       3   34578   34533
   34581       3   34572   34530   34575       3   34566   34527   34569       3
   34560   34524   34563       3   34557   34626   34683       3   34554   34620
   34680       3   34551   34614   34674       3   34548   34608   34671       3
   34545   34602   34665       3   34542   34596   34662       3   34539   34590
   34656       3   34536   34584   34650       3   34533   34581   34647       3
   34530   34575   34644       3   34527   34566   34638       3   34524   34560
   34635       3   34518   34554   34623       3   34518   34557   34629       3
   34515   34548   34611       3   34515   34551   34617       3   34509   34542
   34599       3   34509   34545   34605       3   34506   34536   34587       3
   34506   34539   34593       3   34503   34530   34572       3   34503   34533
   34578       3   34500   34524   34563       3   34500   34527   34569       3
   34494   34464   34497       3   34485   34455   34488       3   34470   34434
   34473       1   34467   34434   34470       1   34467   34434   34473       1
   34464   34494   34521       3   34461   34494   34521       3   34458   34428
   34461       3   34455   34485   34512       3   34449   34422   34452       3
   34449   34485   34512       3   34443   34419   34446       3   34443   34437
   34476       3   34437   34416   34440       3   34431   34464   34497      11
   34425   34455   34488      11   34416   34437   34476       3   34413   34434
   34467       2   34413   34434   34470       2   34413   34434   34473       2
   34410   34428   34458       3   34407   34422   34452       3   34404   34419
   34446       3   34401   34416   34440      11   34392   34371   34395       3
   34392   34377   34398       3   34383   34365   34389      11   34377   34356
   34380       3   34371   34353   34374       3   34365   34350   34368       3
   34359   34347   34362       3   34356   34377   34398       3   34353   34371
   34395       3   34350   34365   34389       3   34344   34353   34374       3
   34344   34356   34380       3   34341   34347   34362       3   34341   34350
   34368       3   34329   34317   34332       3   34329   34323   34335       3
   34323   34305   34326       3   34317   34302   34320       3   34311   34299
   34314       1   34308   34299   34311       1   34308   34299   34314       1
   34305   34323   34335       3   34302   34317   34332       3   34296   34302
   34320       3   34296   34305   34326       3   34293   34299   34308       2
   34293   34299   34311       2   34293   34299   34314       2   35253   35202
   35256       1   35250   35202   35253       1   35250   35202   35256       1
   35244   35199   35247       1   35241   35199   35244       1   35241   35199
   35247       1   35235   35196   35238       1   35232   35196   35235       1
   35232   35196   35238       1   35226   35193   35229       1   35223   35193
   35226       1   35223   35193   35229       1   35217   35190   35220       1
   35214   35190   35217       1   35214   35190   35220       1   35208   35187
   35211       1   35205   35187   35208       1   35205   35187   35211       1
   35184   35202   35250       2   35184   35202   35253       2   35184   35202
   35256       2   35181   35199   35241       2   35181   35199   35244       2
   35181   35199   35247       2   35178   35196   35232       2   35178   35196
   35235       2   35178   35196   35238       2   35175   35193   35223       2
   35175   35193   35226       2   35175   35193   35229       2   35172   35190
   35214       2   35172   35190   35217       2   35172   35190   35220       2
   35169   35187   35205       2   35169   35187   35208       2   35169   35187
   35211       2   35160   35103   35163       3   35160   35109   35166       3
   35151   35091   35154       3   35151   35097   35157       3   35142   35079
   35145       3   35142   35085   35148       3   35136   35073   35139       3
   35133   35067   35136       3   35124   35058   35127       3   35124   35064
   35130       3   35115   35043   35118       3   35115   35049   35121       3
   35109   35040   35112       3   35103   35037   35106       3   35097   35034
   35100       3   35091   35031   35094       3   35085   35028   35088       3
   35079   35025   35082       3   35073   35022   35076       3   35067   35019
   35070       3   35061   35016   35064       3   35055   35013   35058       3
   35049   35010   35052       3   35043   35007   35046       3   35040   35109
   35166       3   35037   35103   35163       3   35034   35097   35157       3
   35031   35091   35154       3   35028   35085   35148       3   35025   35079
   35145       3   35022   35073   35139       3   35019   35067   35133       3
   35016   35064   35130       3   35013   35058   35127       3   35010   35049
   35121       3   35007   35043   35118       3   35001   35037   35106       3
   35001   35040   35112       3   34998   35031   35094       3   34998   35034
   35100       3   34992   35025   35082       3   34992   35028   35088       3
   34989   35019   35070       3   34989   35022   35076       3   34986   35013
   35055       3   34986   35016   35061       3   34983   35007   35046       3
   34983   35010   35052       3   34977   34947   34980       3   34968   34938
   34971       3   34953   34917   34956       1   34950   34917   34953       1
   34950   34917   34956       1   34947   34977   35004       3   34944   34977
   35004       3   34941   34911   34944       3   34938   34968   34995       3
   34932   34905   34935       3   34932   34968   34995       3   34926   34902
   34929       3   34926   34920   34959       3   34920   34899   34923       3
   34914   34947   34980      11   34908   34938   34971      11   34899   34920
   34959       3   34896   34917   34950       2   34896   34917   34953       2
   34896   34917   34956       2   34893   34911   34941       3   34890   34905
   34935       3   34887   34902   34929       3   34884   34899   34923      11
   34875   34854   34878       3   34875   34860   34881       3   34866   34848
   34872      11   34860   34839   34863       3   34854   34836   34857       3
   34848   34833   34851       3   34842   34830   34845       3   34839   34860
   34881       3   34836   34854   34878       3   34833   34848   34872       3
   34827   34836   34857       3   34827   34839   34863       3   34824   34830
   34845       3   34824   34833   34851       3   34812   34800   34815       3
   34812   34806   34818       3   34806   34788   34809       3   34800   34785
   34803       3   34794   34782   34797       1   34791   34782   34794       1
   34791   34782   34797       1   34788   34806   34818       3   34785   34800
   34815       3   34779   34785   34803       3   34779   34788   34809       3
   34776   34782   34791       2   34776   34782   34794       2   34776   34782
   34797       2   35736   35685   35739       1   35733   35685   35736       1
   35733   35685   35739       1   35727   35682   35730       1   35724   35682
   35727       1   35724   35682   35730       1   35718   35679   35721       1
   35715   35679   35718       1   35715   35679   35721       1   35709   35676
   35712       1   35706   35676   35709       1   35706   35676   35712       1
   35700   35673   35703       1   35697   35673   35700       1   35697   35673
   35703       1   35691   35670   35694       1   35688   35670   35691       1
   35688   35670   35694       1   35667   35685   35733       2   35667   35685
   35736       2   35667   35685   35739       2   35664   35682   35724       2
   35664   35682   35727       2   35664   35682   35730       2   35661   35679
   35715       2   35661   35679   35718       2   35661   35679   35721       2
   35658   35676   35706       2   35658   35676   35709       2   35658   35676
   35712       2   35655   35673   35697       2   35655   35673   35700       2
   35655   35673   35703       2   35652   35670   35688       2   35652   35670
   35691       2   35652   35670   35694       2   35643   35586   35646       3
   35643   35592   35649       3   35634   35574   35637       3   35634   35580
   35640       3   35625   35562   35628       3   35625   35568   35631       3
   35619   35556   35622       3   35616   35550   35619       3   35607   35541
   35610       3   35607   35547   35613       3   35598   35526   35601       3
   35598   35532   35604       3   35592   35523   35595       3   35586   35520
   35589       3   35580   35517   35583       3   35574   35514   35577       3
   35568   35511   35571       3   35562   35508   35565       3   35556   35505
   35559       3   35550   35502   35553       3   35544   35499   35547       3
   35538   35496   35541       3   35532   35493   35535       3   35526   35490
   35529       3   35523   35592   35649       3   35520   35586   35646       3
   35517   35580   35640       3   35514   35574   35637       3   35511   35568
   35631       3   35508   35562   35628       3   35505   35556   35622       3
   35502   35550   35616       3   35499   35547   35613       3   35496   35541
   35610       3   35493   35532   35604       3   35490   35526   35601       3
   35484   35520   35589       3   35484   35523   35595       3   35481   35514
   35577       3   35481   35517   35583       3   35475   35508   35565       3
   35475   35511   35571       3   35472   35502   35553       3   35472   35505
   35559       3   35469   35496   35538       3   35469   35499   35544       3
   35466   35490   35529       3   35466   35493   35535       3   35460   35430
   35463       3   35451   35421   35454       3   35436   35400   35439       1
   35433   35400   35436       1   35433   35400   35439       1   35430   35460
   35487       3   35427   35460   35487       3   35424   35394   35427       3
   35421   35451   35478       3   35415   35388   35418       3   35415   35451
   35478       3   35409   35385   35412       3   35409   35403   35442       3
   35403   35382   35406       3   35397   35430   35463      11   35391   35421
   35454      11   35382   35403   35442       3   35379   35400   35433       2
   35379   35400   35436       2   35379   35400   35439       2   35376   35394
   35424       3   35373   35388   35418       3   35370   35385   35412       3
   35367   35382   35406      11   35358   35337   35361       3   35358   35343
   35364       3   35349   35331   35355      11   35343   35322   35346       3
   35337   35319   35340       3   35331   35316   35334       3   35325   35313
   35328       3   35322   35343   35364       3   35319   35337   35361       3
   35316   35331   35355       3   35310   35319   35340       3   35310   35322
   35346       3   35307   35313   35328       3   35307   35316   35334       3
   35295   35283   35298       3   35295   35289   35301       3   35289   35271
   35292       3   35283   35268   35286       3   35277   35265   35280       1
   35274   35265   35277       1   35274   35265   35280       1   35271   35289
   35301       3   35268   35283   35298       3   35262   35268   35286       3
   35262   35271   35292       3   35259   35265   35274       2   35259   35265
   35277       2   35259   35265   35280       2   36219   36168   36222       1
   36216   36168   36219       1   36216   36168   36222       1   36210   36165
   36213       1   36207   36165   36210       1   36207   36165   36213       1
   36201   36162   36204       1   36198   36162   36201       1   36198   36162
   36204       1   36192   36159   36195       1   36189   36159   36192       1
   36189   36159   36195       1   36183   36156   36186       1   36180   36156
   36183       1   36180   36156   36186       1   36174   36153   36177       1
   36171   36153   36174       1   36171   36153   36177       1   36150   36168
   36216       2   36150   36168   36219       2   36150   36168   36222       2
   36147   36165   36207       2   36147   36165   36210       2   36147   36165
   36213       2   36144   36162   36198       2   36144   36162   36201       2
   36144   36162   36204       2   36141   36159   36189       2   36141   36159
   36192       2   36141   36159   36195       2   36138   36156   36180       2
   36138   36156   36183       2   36138   36156   36186       2   36135   36153
   36171       2   36135   36153   36174       2   36135   36153   36177       2
   36126   36069   36129       3   36126   36075   36132       3   36117   36057
   36120       3   36117   36063   36123       3   36108   36045   36111       3
   36108   36051   36114       3   36102   36039   36105       3   36099   36033
   36102       3   36090   36024   36093       3   36090   36030   36096       3
   36081   36009   36084       3   36081   36015   36087       3   36075   36006
   36078       3   36069   36003   36072       3   36063   36000   36066       3
   36057   35997   36060       3   36051   35994   36054       3   36045   35991
   36048       3   36039   35988   36042       3   36033   35985   36036       3
   36027   35982   36030       3   36021   35979   36024       3   36015   35976
   36018       3   36009   35973   36012       3   36006   36075   36132       3
   36003   36069   36129       3   36000   36063   36123       3   35997   36057
   36120       3   35994   36051   36114       3   35991   36045   36111       3
   35988   36039   36105       3   35985   36033   36099       3   35982   36030
   36096       3   35979   36024   36093       3   35976   36015   36087       3
   35973   36009   36084       3   35967   36003   36072       3   35967   36006
   36078       3   35964   35997   36060       3   35964   36000   36066       3
   35958   35991   36048       3   35958   35994   36054       3   35955   35985
   36036       3   35955   35988   36042       3   35952   35979   36021       3
   35952   35982   36027       3   35949   35973   36012       3   35949   35976
   36018       3   35943   35913   35946       3   35934   35904   35937       3
   35919   35883   35922       1   35916   35883   35919       1   35916   35883
   35922       1   35913   35943   35970       3   35910   35943   35970       3
   35907   35877   35910       3   35904   35934   35961       3   35898   35871
   35901       3   35898   35934   35961       3   35892   35868   35895       3
   35892   35886   35925       3   35886   35865   35889       3   35880   35913
   35946      11   35874   35904   35937      11   35865   35886   35925       3
   35862   35883   35916       2   35862   35883   35919       2   35862   35883
   35922       2   35859   35877   35907       3   35856   35871   35901       3
   35853   35868   35895       3   35850   35865   35889      11   35841   35820
   35844       3   35841   35826   35847       3   35832   35814   35838      11
   35826   35805   35829       3   35820   35802   35823       3   35814   35799
   35817       3   35808   35796   35811       3   35805   35826   35847       3
   35802   35820   35844       3   35799   35814   35838       3   35793   35802
   35823       3   35793   35805   35829       3   35790   35796   35811       3
   35790   35799   35817       3   35778   35766   35781       3   35778   35772
   35784       3   35772   35754   35775       3   35766   35751   35769       3
   35760   35748   35763       1   35757   35748   35760       1   35757   35748
   35763       1   35754   35772   35784       3   35751   35766   35781       3
   35745   35751   35769       3   35745   35754   35775       3   35742   35748
   35757       2   35742   35748   35760       2   35742   35748   35763       2
   36702   36651   36705       1   36699   36651   36702       1   36699   36651
   36705       1   36693   36648   36696       1   36690   36648   36693       1
   36690   36648   36696       1   36684   36645   36687       1   36681   36645
   36684       1   36681   36645   36687       1   36675   36642   36678       1
   36672   36642   36675       1   36672   36642   36678       1   36666   36639
   36669       1   36663   36639   36666       1   36663   36639   36669       1
   36657   36636   36660       1   36654   36636   36657       1   36654   36636
   36660       1   36633   36651   36699       2   36633   36651   36702       2
   36633   36651   36705       2   36630   36648   36690       2   36630   36648
   36693       2   36630   36648   36696       2   36627   36645   36681       2
   36627   36645   36684       2   36627   36645   36687       2   36624   36642
   36672       2   36624   36642   36675       2   36624   36642   36678       2
   36621   36639   36663       2   36621   36639   36666       2   36621   36639
   36669       2   36618   36636   36654       2   36618   36636   36657       2
   36618   36636   36660       2   36609   36552   36612       3   36609   36558
   36615       3   36600   36540   36603       3   36600   36546   36606       3
   36591   36528   36594       3   36591   36534   36597       3   36585   36522
   36588       3   36582   36516   36585       3   36573   36507   36576       3
   36573   36513   36579       3   36564   36492   36567       3   36564   36498
   36570       3   36558   36489   36561       3   36552   36486   36555       3
   36546   36483   36549       3   36540   36480   36543       3   36534   36477
   36537       3   36528   36474   36531       3   36522   36471   36525       3
   36516   36468   36519       3   36510   36465   36513       3   36504   36462
   36507       3   36498   36459   36501       3   36492   36456   36495       3
   36489   36558   36615       3   36486   36552   36612       3   36483   36546
   36606       3   36480   36540   36603       3   36477   36534   36597       3
   36474   36528   36594       3   36471   36522   36588       3   36468   36516
   36582       3   36465   36513   36579       3   36462   36507   36576       3
   36459   36498   36570       3   36456   36492   36567       3   36450   36486
   36555       3   36450   36489   36561       3   36447   36480   36543       3
   36447   36483   36549       3   36441   36474   36531       3   36441   36477
   36537       3   36438   36468   36519       3   36438   36471   36525       3
   36435   36462   36504       3   36435   36465   36510       3   36432   36456
   36495       3   36432   36459   36501       3   36426   36396   36429       3
   36417   36387   36420       3   36402   36366   36405       1   36399   36366
   36402       1   36399   36366   36405       1   36396   36426   36453       3
   36393   36426   36453       3   36390   36360   36393       3   36387   36417
   36444       3   36381   36354   36384       3   36381   36417   36444       3
   36375   36351   36378       3   36375   36369   36408       3   36369   36348
   36372       3   36363   36396   36429      11   36357   36387   36420      11
   36348   36369   36408       3   36345   36366   36399       2   36345   36366
   36402       2   36345   36366   36405       2   36342   36360   36390       3
   36339   36354   36384       3   36336   36351   36378       3   36333   36348
   36372      11   36324   36303   36327       3   36324   36309   36330       3
   36315   36297   36321      11   36309   36288   36312       3   36303   36285
   36306       3   36297   36282   36300       3   36291   36279   36294       3
   36288   36309   36330       3   36285   36303   36327       3   36282   36297
   36321       3   36276   36285   36306       3   36276   36288   36312       3
   36273   36279   36294       3   36273   36282   36300       3   36261   36249
   36264       3   36261   36255   36267       3   36255   36237   36258       3
   36249   36234   36252       3   36243   36231   36246       1   36240   36231
   36243       1   36240   36231   36246       1   36237   36255   36267       3
   36234   36249   36264       3   36228   36234   36252       3   36228   36237
   36258       3   36225   36231   36240       2   36225   36231   36243       2
   36225   36231   36246       2   37185   37134   37188       1   37182   37134
   37185       1   37182   37134   37188       1   37176   37131   37179       1
   37173   37131   37176       1   37173   37131   37179       1   37167   37128
   37170       1   37164   37128   37167       1   37164   37128   37170       1
   37158   37125   37161       1   37155   37125   37158       1   37155   37125
   37161       1   37149   37122   37152       1   37146   37122   37149       1
   37146   37122   37152       1   37140   37119   37143       1   37137   37119
   37140       1   37137   37119   37143       1   37116   37134   37182       2
   37116   37134   37185       2   37116   37134   37188       2   37113   37131
   37173       2   37113   37131   37176       2   37113   37131   37179       2
   37110   37128   37164       2   37110   37128   37167       2   37110   37128
   37170       2   37107   37125   37155       2   37107   37125   37158       2
   37107   37125   37161       2   37104   37122   37146       2   37104   37122
   37149       2   37104   37122   37152       2   37101   37119   37137       2
   37101   37119   37140       2   37101   37119   37143       2   37092   37035
   37095       3   37092   37041   37098       3   37083   37023   37086       3
   37083   37029   37089       3   37074   37011   37077       3   37074   37017
   37080       3   37068   37005   37071       3   37065   36999   37068       3
   37056   36990   37059       3   37056   36996   37062       3   37047   36975
   37050       3   37047   36981   37053       3   37041   36972   37044       3
   37035   36969   37038       3   37029   36966   37032       3   37023   36963
   37026       3   37017   36960   37020       3   37011   36957   37014       3
   37005   36954   37008       3   36999   36951   37002       3   36993   36948
   36996       3   36987   36945   36990       3   36981   36942   36984       3
   36975   36939   36978       3   36972   37041   37098       3   36969   37035
   37095       3   36966   37029   37089       3   36963   37023   37086       3
   36960   37017   37080       3   36957   37011   37077       3   36954   37005
   37071       3   36951   36999   37065       3   36948   36996   37062       3
   36945   36990   37059       3   36942   36981   37053       3   36939   36975
   37050       3   36933   36969   37038       3   36933   36972   37044       3
   36930   36963   37026       3   36930   36966   37032       3   36924   36957
   37014       3   36924   36960   37020       3   36921   36951   37002       3
   36921   36954   37008       3   36918   36945   36987       3   36918   36948
   36993       3   36915   36939   36978       3   36915   36942   36984       3
   36909   36879   36912       3   36900   36870   36903       3   36885   36849
   36888       1   36882   36849   36885       1   36882   36849   36888       1
   36879   36909   36936       3   36876   36909   36936       3   36873   36843
   36876       3   36870   36900   36927       3   36864   36837   36867       3
   36864   36900   36927       3   36858   36834   36861       3   36858   36852
   36891       3   36852   36831   36855       3   36846   36879   36912      11
   36840   36870   36903      11   36831   36852   36891       3   36828   36849
   36882       2   36828   36849   36885       2   36828   36849   36888       2
   36825   36843   36873       3   36822   36837   36867       3   36819   36834
   36861       3   36816   36831   36855      11   36807   36786   36810       3
   36807   36792   36813       3   36798   36780   36804      11   36792   36771
   36795       3   36786   36768   36789       3   36780   36765   36783       3
   36774   36762   36777       3   36771   36792   36813       3   36768   36786
   36810       3   36765   36780   36804       3   36759   36768   36789       3
   36759   36771   36795       3   36756   36762   36777       3   36756   36765
   36783       3   36744   36732   36747       3   36744   36738   36750       3
   36738   36720   36741       3   36732   36717   36735       3   36726   36714
   36729       1   36723   36714   36726       1   36723   36714   36729       1
   36720   36738   36750       3   36717   36732   36747       3   36711   36717
   36735       3   36711   36720   36741       3   36708   36714   36723       2
   36708   36714   36726       2   36708   36714   36729       2   37668   37617
   37671       1   37665   37617   37668       1   37665   37617   37671       1
   37659   37614   37662       1   37656   37614   37659       1   37656   37614
   37662       1   37650   37611   37653       1   37647   37611   37650       1
   37647   37611   37653       1   37641   37608   37644       1   37638   37608
   37641       1   37638   37608   37644       1   37632   37605   37635       1
   37629   37605   37632       1   37629   37605   37635       1   37623   37602
   37626       1   37620   37602   37623       1   37620   37602   37626       1
   37599   37617   37665       2   37599   37617   37668       2   37599   37617
   37671       2   37596   37614   37656       2   37596   37614   37659       2
   37596   37614   37662       2   37593   37611   37647       2   37593   37611
   37650       2   37593   37611   37653       2   37590   37608   37638       2
   37590   37608   37641       2   37590   37608   37644       2   37587   37605
   37629       2   37587   37605   37632       2   37587   37605   37635       2
   37584   37602   37620       2   37584   37602   37623       2   37584   37602
   37626       2   37575   37518   37578       3   37575   37524   37581       3
   37566   37506   37569       3   37566   37512   37572       3   37557   37494
   37560       3   37557   37500   37563       3   37551   37488   37554       3
   37548   37482   37551       3   37539   37473   37542       3   37539   37479
   37545       3   37530   37458   37533       3   37530   37464   37536       3
   37524   37455   37527       3   37518   37452   37521       3   37512   37449
   37515       3   37506   37446   37509       3   37500   37443   37503       3
   37494   37440   37497       3   37488   37437   37491       3   37482   37434
   37485       3   37476   37431   37479       3   37470   37428   37473       3
   37464   37425   37467       3   37458   37422   37461       3   37455   37524
   37581       3   37452   37518   37578       3   37449   37512   37572       3
   37446   37506   37569       3   37443   37500   37563       3   37440   37494
   37560       3   37437   37488   37554       3   37434   37482   37548       3
   37431   37479   37545       3   37428   37473   37542       3   37425   37464
   37536       3   37422   37458   37533       3   37416   37452   37521       3
   37416   37455   37527       3   37413   37446   37509       3   37413   37449
   37515       3   37407   37440   37497       3   37407   37443   37503       3
   37404   37434   37485       3   37404   37437   37491       3   37401   37428
   37470       3   37401   37431   37476       3   37398   37422   37461       3
   37398   37425   37467       3   37392   37362   37395       3   37383   37353
   37386       3   37368   37332   37371       1   37365   37332   37368       1
   37365   37332   37371       1   37362   37392   37419       3   37359   37392
   37419       3   37356   37326   37359       3   37353   37383   37410       3
   37347   37320   37350       3   37347   37383   37410       3   37341   37317
   37344       3   37341   37335   37374       3   37335   37314   37338       3
   37329   37362   37395      11   37323   37353   37386      11   37314   37335
   37374       3   37311   37332   37365       2   37311   37332   37368       2
   37311   37332   37371       2   37308   37326   37356       3   37305   37320
   37350       3   37302   37317   37344       3   37299   37314   37338      11
   37290   37269   37293       3   37290   37275   37296       3   37281   37263
   37287      11   37275   37254   37278       3   37269   37251   37272       3
   37263   37248   37266       3   37257   37245   37260       3   37254   37275
   37296       3   37251   37269   37293       3   37248   37263   37287       3
   37242   37251   37272       3   37242   37254   37278       3   37239   37245
   37260       3   37239   37248   37266       3   37227   37215   37230       3
   37227   37221   37233       3   37221   37203   37224       3   37215   37200
   37218       3   37209   37197   37212       1   37206   37197   37209       1
   37206   37197   37212       1   37203   37221   37233       3   37200   37215
   37230       3   37194   37200   37218       3   37194   37203   37224       3
   37191   37197   37206       2   37191   37197   37209       2   37191   37197
   37212       2   38151   38100   38154       1   38148   38100   38151       1
   38148   38100   38154       1   38142   38097   38145       1   38139   38097
   38142       1   38139   38097   38145       1   38133   38094   38136       1
   38130   38094   38133       1   38130   38094   38136       1   38124   38091
   38127       1   38121   38091   38124       1   38121   38091   38127       1
   38115   38088   38118       1   38112   38088   38115       1   38112   38088
   38118       1   38106   38085   38109       1   38103   38085   38106       1
   38103   38085   38109       1   38082   38100   38148       2   38082   38100
   38151       2   38082   38100   38154       2   38079   38097   38139       2
   38079   38097   38142       2   38079   38097   38145       2   38076   38094
   38130       2   38076   38094   38133       2   38076   38094   38136       2
   38073   38091   38121       2   38073   38091   38124       2   38073   38091
   38127       2   38070   38088   38112       2   38070   38088   38115       2
   38070   38088   38118       2   38067   38085   38103       2   38067   38085
   38106       2   38067   38085   38109       2   38058   38001   38061       3
   38058   38007   38064       3   38049   37989   38052       3   38049   37995
   38055       3   38040   37977   38043       3   38040   37983   38046       3
   38034   37971   38037       3   38031   37965   38034       3   38022   37956
   38025       3   38022   37962   38028       3   38013   37941   38016       3
   38013   37947   38019       3   38007   37938   38010       3   38001   37935
   38004       3   37995   37932   37998       3   37989   37929   37992       3
   37983   37926   37986       3   37977   37923   37980       3   37971   37920
   37974       3   37965   37917   37968       3   37959   37914   37962       3
   37953   37911   37956       3   37947   37908   37950       3   37941   37905
   37944       3   37938   38007   38064       3   37935   38001   38061       3
   37932   37995   38055       3   37929   37989   38052       3   37926   37983
   38046       3   37923   37977   38043       3   37920   37971   38037       3
   37917   37965   38031       3   37914   37962   38028       3   37911   37956
   38025       3   37908   37947   38019       3   37905   37941   38016       3
   37899   37935   38004       3   37899   37938   38010       3   37896   37929
   37992       3   37896   37932   37998       3   37890   37923   37980       3
   37890   37926   37986       3   37887   37917   37968       3   37887   37920
   37974       3   37884   37911   37953       3   37884   37914   37959       3
   37881   37905   37944       3   37881   37908   37950       3   37875   37845
   37878       3   37866   37836   37869       3   37851   37815   37854       1
   37848   37815   37851       1   37848   37815   37854       1   37845   37875
   37902       3   37842   37875   37902       3   37839   37809   37842       3
   37836   37866   37893       3   37830   37803   37833       3   37830   37866
   37893       3   37824   37800   37827       3   37824   37818   37857       3
   37818   37797   37821       3   37812   37845   37878      11   37806   37836
   37869      11   37797   37818   37857       3   37794   37815   37848       2
   37794   37815   37851       2   37794   37815   37854       2   37791   37809
   37839       3   37788   37803   37833       3   37785   37800   37827       3
   37782   37797   37821      11   37773   37752   37776       3   37773   37758
   37779       3   37764   37746   37770      11   37758   37737   37761       3
   37752   37734   37755       3   37746   37731   37749       3   37740   37728
   37743       3   37737   37758   37779       3   37734   37752   37776       3
   37731   37746   37770       3   37725   37734   37755       3   37725   37737
   37761       3   37722   37728   37743       3   37722   37731   37749       3
   37710   37698   37713       3   37710   37704   37716       3   37704   37686
   37707       3   37698   37683   37701       3   37692   37680   37695       1
   37689   37680   37692       1   37689   37680   37695       1   37686   37704
   37716       3   37683   37698   37713       3   37677   37683   37701       3
   37677   37686   37707       3   37674   37680   37689       2   37674   37680
   37692       2   37674   37680   37695       2   38634   38583   38637       1
   38631   38583   38634       1   38631   38583   38637       1   38625   38580
   38628       1   38622   38580   38625       1   38622   38580   38628       1
   38616   38577   38619       1   38613   38577   38616       1   38613   38577
   38619       1   38607   38574   38610       1   38604   38574   38607       1
   38604   38574   38610       1   38598   38571   38601       1   38595   38571
   38598       1   38595   38571   38601       1   38589   38568   38592       1
   38586   38568   38589       1   38586   38568   38592       1   38565   38583
   38631       2   38565   38583   38634       2   38565   38583   38637       2
   38562   38580   38622       2   38562   38580   38625       2   38562   38580
   38628       2   38559   38577   38613       2   38559   38577   38616       2
   38559   38577   38619       2   38556   38574   38604       2   38556   38574
   38607       2   38556   38574   38610       2   38553   38571   38595       2
   38553   38571   38598       2   38553   38571   38601       2   38550   38568
   38586       2   38550   38568   38589       2   38550   38568   38592       2
   38541   38484   38544       3   38541   38490   38547       3   38532   38472
   38535       3   38532   38478   38538       3   38523   38460   38526       3
   38523   38466   38529       3   38517   38454   38520       3   38514   38448
   38517       3   38505   38439   38508       3   38505   38445   38511       3
   38496   38424   38499       3   38496   38430   38502       3   38490   38421
   38493       3   38484   38418   38487       3   38478   38415   38481       3
   38472   38412   38475       3   38466   38409   38469       3   38460   38406
   38463       3   38454   38403   38457       3   38448   38400   38451       3
   38442   38397   38445       3   38436   38394   38439       3   38430   38391
   38433       3   38424   38388   38427       3   38421   38490   38547       3
   38418   38484   38544       3   38415   38478   38538       3   38412   38472
   38535       3   38409   38466   38529       3   38406   38460   38526       3
   38403   38454   38520       3   38400   38448   38514       3   38397   38445
   38511       3   38394   38439   38508       3   38391   38430   38502       3
   38388   38424   38499       3   38382   38418   38487       3   38382   38421
   38493       3   38379   38412   38475       3   38379   38415   38481       3
   38373   38406   38463       3   38373   38409   38469       3   38370   38400
   38451       3   38370   38403   38457       3   38367   38394   38436       3
   38367   38397   38442       3   38364   38388   38427       3   38364   38391
   38433       3   38358   38328   38361       3   38349   38319   38352       3
   38334   38298   38337       1   38331   38298   38334       1   38331   38298
   38337       1   38328   38358   38385       3   38325   38358   38385       3
   38322   38292   38325       3   38319   38349   38376       3   38313   38286
   38316       3   38313   38349   38376       3   38307   38283   38310       3
   38307   38301   38340       3   38301   38280   38304       3   38295   38328
   38361      11   38289   38319   38352      11   38280   38301   38340       3
   38277   38298   38331       2   38277   38298   38334       2   38277   38298
   38337       2   38274   38292   38322       3   38271   38286   38316       3
   38268   38283   38310       3   38265   38280   38304      11   38256   38235
   38259       3   38256   38241   38262       3   38247   38229   38253      11
   38241   38220   38244       3   38235   38217   38238       3   38229   38214
   38232       3   38223   38211   38226       3   38220   38241   38262       3
   38217   38235   38259       3   38214   38229   38253       3   38208   38217
   38238       3   38208   38220   38244       3   38205   38211   38226       3
   38205   38214   38232       3   38193   38181   38196       3   38193   38187
   38199       3   38187   38169   38190       3   38181   38166   38184       3
   38175   38163   38178       1   38172   38163   38175       1   38172   38163
   38178       1   38169   38187   38199       3   38166   38181   38196       3
   38160   38166   38184       3   38160   38169   38190       3   38157   38163
   38172       2   38157   38163   38175       2   38157   38163   38178       2
   39117   39066   39120       1   39114   39066   39117       1   39114   39066
   39120       1   39108   39063   39111       1   39105   39063   39108       1
   39105   39063   39111       1   39099   39060   39102       1   39096   39060
   39099       1   39096   39060   39102       1   39090   39057   39093       1
   39087   39057   39090       1   39087   39057   39093       1   39081   39054
   39084       1   39078   39054   39081       1   39078   39054   39084       1
   39072   39051   39075       1   39069   39051   39072       1   39069   39051
   39075       1   39048   39066   39114       2   39048   39066   39117       2
   39048   39066   39120       2   39045   39063   39105       2   39045   39063
   39108       2   39045   39063   39111       2   39042   39060   39096       2
   39042   39060   39099       2   39042   39060   39102       2   39039   39057
   39087       2   39039   39057   39090       2   39039   39057   39093       2
   39036   39054   39078       2   39036   39054   39081       2   39036   39054
   39084       2   39033   39051   39069       2   39033   39051   39072       2
   39033   39051   39075       2   39024   38967   39027       3   39024   38973
   39030       3   39015   38955   39018       3   39015   38961   39021       3
   39006   38943   39009       3   39006   38949   39012       3   39000   38937
   39003       3   38997   38931   39000       3   38988   38922   38991       3
   38988   38928   38994       3   38979   38907   38982       3   38979   38913
   38985       3   38973   38904   38976       3   38967   38901   38970       3
   38961   38898   38964       3   38955   38895   38958       3   38949   38892
   38952       3   38943   38889   38946       3   38937   38886   38940       3
   38931   38883   38934       3   38925   38880   38928       3   38919   38877
   38922       3   38913   38874   38916       3   38907   38871   38910       3
   38904   38973   39030       3   38901   38967   39027       3   38898   38961
   39021       3   38895   38955   39018       3   38892   38949   39012       3
   38889   38943   39009       3   38886   38937   39003       3   38883   38931
   38997       3   38880   38928   38994       3   38877   38922   38991       3
   38874   38913   38985       3   38871   38907   38982       3   38865   38901
   38970       3   38865   38904   38976       3   38862   38895   38958       3
   38862   38898   38964       3   38856   38889   38946       3   38856   38892
   38952       3   38853   38883   38934       3   38853   38886   38940       3
   38850   38877   38919       3   38850   38880   38925       3   38847   38871
   38910       3   38847   38874   38916       3   38841   38811   38844       3
   38832   38802   38835       3   38817   38781   38820       1   38814   38781
   38817       1   38814   38781   38820       1   38811   38841   38868       3
   38808   38841   38868       3   38805   38775   38808       3   38802   38832
   38859       3   38796   38769   38799       3   38796   38832   38859       3
   38790   38766   38793       3   38790   38784   38823       3   38784   38763
   38787       3   38778   38811   38844      11   38772   38802   38835      11
   38763   38784   38823       3   38760   38781   38814       2   38760   38781
   38817       2   38760   38781   38820       2   38757   38775   38805       3
   38754   38769   38799       3   38751   38766   38793       3   38748   38763
   38787      11   38739   38718   38742       3   38739   38724   38745       3
   38730   38712   38736      11   38724   38703   38727       3   38718   38700
   38721       3   38712   38697   38715       3   38706   38694   38709       3
   38703   38724   38745       3   38700   38718   38742       3   38697   38712
   38736       3   38691   38700   38721       3   38691   38703   38727       3
   38688   38694   38709       3   38688   38697   38715       3   38676   38664
   38679       3   38676   38670   38682       3   38670   38652   38673       3
   38664   38649   38667       3   38658   38646   38661       1   38655   38646
   38658       1   38655   38646   38661       1   38652   38670   38682       3
   38649   38664   38679       3   38643   38649   38667       3   38643   38652
   38673       3   38640   38646   38655       2   38640   38646   38658       2
   38640   38646   38661       2   39600   39549   39603       1   39597   39549
   39600       1   39597   39549   39603       1   39591   39546   39594       1
   39588   39546   39591       1   39588   39546   39594       1   39582   39543
   39585       1   39579   39543   39582       1   39579   39543   39585       1
   39573   39540   39576       1   39570   39540   39573       1   39570   39540
   39576       1   39564   39537   39567       1   39561   39537   39564       1
   39561   39537   39567       1   39555   39534   39558       1   39552   39534
   39555       1   39552   39534   39558       1   39531   39549   39597       2
   39531   39549   39600       2   39531   39549   39603       2   39528   39546
   39588       2   39528   39546   39591       2   39528   39546   39594       2
   39525   39543   39579       2   39525   39543   39582       2   39525   39543
   39585       2   39522   39540   39570       2   39522   39540   39573       2
   39522   39540   39576       2   39519   39537   39561       2   39519   39537
   39564       2   39519   39537   39567       2   39516   39534   39552       2
   39516   39534   39555       2   39516   39534   39558       2   39507   39450
   39510       3   39507   39456   39513       3   39498   39438   39501       3
   39498   39444   39504       3   39489   39426   39492       3   39489   39432
   39495       3   39483   39420   39486       3   39480   39414   39483       3
   39471   39405   39474       3   39471   39411   39477       3   39462   39390
   39465       3   39462   39396   39468       3   39456   39387   39459       3
   39450   39384   39453       3   39444   39381   39447       3   39438   39378
   39441       3   39432   39375   39435       3   39426   39372   39429       3
   39420   39369   39423       3   39414   39366   39417       3   39408   39363
   39411       3   39402   39360   39405       3   39396   39357   39399       3
   39390   39354   39393       3   39387   39456   39513       3   39384   39450
   39510       3   39381   39444   39504       3   39378   39438   39501       3
   39375   39432   39495       3   39372   39426   39492       3   39369   39420
   39486       3   39366   39414   39480       3   39363   39411   39477       3
   39360   39405   39474       3   39357   39396   39468       3   39354   39390
   39465       3   39348   39384   39453       3   39348   39387   39459       3
   39345   39378   39441       3   39345   39381   39447       3   39339   39372
   39429       3   39339   39375   39435       3   39336   39366   39417       3
   39336   39369   39423       3   39333   39360   39402       3   39333   39363
   39408       3   39330   39354   39393       3   39330   39357   39399       3
   39324   39294   39327       3   39315   39285   39318       3   39300   39264
   39303       1   39297   39264   39300       1   39297   39264   39303       1
   39294   39324   39351       3   39291   39324   39351       3   39288   39258
   39291       3   39285   39315   39342       3   39279   39252   39282       3
   39279   39315   39342       3   39273   39249   39276       3   39273   39267
   39306       3   39267   39246   39270       3   39261   39294   39327      11
   39255   39285   39318      11   39246   39267   39306       3   39243   39264
   39297       2   39243   39264   39300       2   39243   39264   39303       2
   39240   39258   39288       3   39237   39252   39282       3   39234   39249
   39276       3   39231   39246   39270      11   39222   39201   39225       3
   39222   39207   39228       3   39213   39195   39219      11   39207   39186
   39210       3   39201   39183   39204       3   39195   39180   39198       3
   39189   39177   39192       3   39186   39207   39228       3   39183   39201
   39225       3   39180   39195   39219       3   39174   39183   39204       3
   39174   39186   39210       3   39171   39177   39192       3   39171   39180
   39198       3   39159   39147   39162       3   39159   39153   39165       3
   39153   39135   39156       3   39147   39132   39150       3   39141   39129
   39144       1   39138   39129   39141       1   39138   39129   39144       1
   39135   39153   39165       3   39132   39147   39162       3   39126   39132
   39150       3   39126   39135   39156       3   39123   39129   39138       2
   39123   39129   39141       2   39123   39129   39144       2   40083   40032
   40086       1   40080   40032   40083       1   40080   40032   40086       1
   40074   40029   40077       1   40071   40029   40074       1   40071   40029
   40077       1   40065   40026   40068       1   40062   40026   40065       1
   40062   40026   40068       1   40056   40023   40059       1   40053   40023
   40056       1   40053   40023   40059       1   40047   40020   40050       1
   40044   40020   40047       1   40044   40020   40050       1   40038   40017
   40041       1   40035   40017   40038       1   40035   40017   40041       1
   40014   40032   40080       2   40014   40032   40083       2   40014   40032
   40086       2   40011   40029   40071       2   40011   40029   40074       2
   40011   40029   40077       2   40008   40026   40062       2   40008   40026
   40065       2   40008   40026   40068       2   40005   40023   40053       2
   40005   40023   40056       2   40005   40023   40059       2   40002   40020
   40044       2   40002   40020   40047       2   40002   40020   40050       2
   39999   40017   40035       2   39999   40017   40038       2   39999   40017
   40041       2   39990   39933   39993       3   39990   39939   39996       3
   39981   39921   39984       3   39981   39927   39987       3   39972   39909
   39975       3   39972   39915   39978       3   39966   39903   39969       3
   39963   39897   39966       3   39954   39888   39957       3   39954   39894
   39960       3   39945   39873   39948       3   39945   39879   39951       3
   39939   39870   39942       3   39933   39867   39936       3   39927   39864
   39930       3   39921   39861   39924       3   39915   39858   39918       3
   39909   39855   39912       3   39903   39852   39906       3   39897   39849
   39900       3   39891   39846   39894       3   39885   39843   39888       3
   39879   39840   39882       3   39873   39837   39876       3   39870   39939
   39996       3   39867   39933   39993       3   39864   39927   39987       3
   39861   39921   39984       3   39858   39915   39978       3   39855   39909
   39975       3   39852   39903   39969       3   39849   39897   39963       3
   39846   39894   39960       3   39843   39888   39957       3   39840   39879
   39951       3   39837   39873   39948       3   39831   39867   39936       3
   39831   39870   39942       3   39828   39861   39924       3   39828   39864
   39930       3   39822   39855   39912       3   39822   39858   39918       3
   39819   39849   39900       3   39819   39852   39906       3   39816   39843
   39885       3   39816   39846   39891       3   39813   39837   39876       3
   39813   39840   39882       3   39807   39777   39810       3   39798   39768
   39801       3   39783   39747   39786       1   39780   39747   39783       1
   39780   39747   39786       1   39777   39807   39834       3   39774   39807
   39834       3   39771   39741   39774       3   39768   39798   39825       3
   39762   39735   39765       3   39762   39798   39825       3   39756   39732
   39759       3   39756   39750   39789       3   39750   39729   39753       3
   39744   39777   39810      11   39738   39768   39801      11   39729   39750
   39789       3   39726   39747   39780       2   39726   39747   39783       2
   39726   39747   39786       2   39723   39741   39771       3   39720   39735
   39765       3   39717   39732   39759       3   39714   39729   39753      11
   39705   39684   39708       3   39705   39690   39711       3   39696   39678
   39702      11   39690   39669   39693       3   39684   39666   39687       3
   39678   39663   39681       3   39672   39660   39675       3   39669   39690
   39711       3   39666   39684   39708       3   39663   39678   39702       3
   39657   39666   39687       3   39657   39669   39693       3   39654   39660
   39675       3   39654   39663   39681       3   39642   39630   39645       3
   39642   39636   39648       3   39636   39618   39639       3   39630   39615
   39633       3   39624   39612   39627       1   39621   39612   39624       1
   39621   39612   39627       1   39618   39636   39648       3   39615   39630
   39645       3   39609   39615   39633       3   39609   39618   39639       3
   39606   39612   39621       2   39606   39612   39624       2   39606   39612
   39627       2   40566   40515   40569       1   40563   40515   40566       1
   40563   40515   40569       1   40557   40512   40560       1   40554   40512
   40557       1   40554   40512   40560       1   40548   40509   40551       1
   40545   40509   40548       1   40545   40509   40551       1   40539   40506
   40542       1   40536   40506   40539       1   40536   40506   40542       1
   40530   40503   40533       1   40527   40503   40530       1   40527   40503
   40533       1   40521   40500   40524       1   40518   40500   40521       1
   40518   40500   40524       1   40497   40515   40563       2   40497   40515
   40566       2   40497   40515   40569       2   40494   40512   40554       2
   40494   40512   40557       2   40494   40512   40560       2   40491   40509
   40545       2   40491   40509   40548       2   40491   40509   40551       2
   40488   40506   40536       2   40488   40506   40539       2   40488   40506
   40542       2   40485   40503   40527       2   40485   40503   40530       2
   40485   40503   40533       2   40482   40500   40518       2   40482   40500
   40521       2   40482   40500   40524       2   40473   40416   40476       3
   40473   40422   40479       3   40464   40404   40467       3   40464   40410
   40470       3   40455   40392   40458       3   40455   40398   40461       3
   40449   40386   40452       3   40446   40380   40449       3   40437   40371
   40440       3   40437   40377   40443       3   40428   40356   40431       3
   40428   40362   40434       3   40422   40353   40425       3   40416   40350
   40419       3   40410   40347   40413       3   40404   40344   40407       3
   40398   40341   40401       3   40392   40338   40395       3   40386   40335
   40389       3   40380   40332   40383       3   40374   40329   40377       3
   40368   40326   40371       3   40362   40323   40365       3   40356   40320
   40359       3   40353   40422   40479       3   40350   40416   40476       3
   40347   40410   40470       3   40344   40404   40467       3   40341   40398
   40461       3   40338   40392   40458       3   40335   40386   40452       3
   40332   40380   40446       3   40329   40377   40443       3   40326   40371
   40440       3   40323   40362   40434       3   40320   40356   40431       3
   40314   40350   40419       3   40314   40353   40425       3   40311   40344
   40407       3   40311   40347   40413       3   40305   40338   40395       3
   40305   40341   40401       3   40302   40332   40383       3   40302   40335
   40389       3   40299   40326   40368       3   40299   40329   40374       3
   40296   40320   40359       3   40296   40323   40365       3   40290   40260
   40293       3   40281   40251   40284       3   40266   40230   40269       1
   40263   40230   40266       1   40263   40230   40269       1   40260   40290
   40317       3   40257   40290   40317       3   40254   40224   40257       3
   40251   40281   40308       3   40245   40218   40248       3   40245   40281
   40308       3   40239   40215   40242       3   40239   40233   40272       3
   40233   40212   40236       3   40227   40260   40293      11   40221   40251
   40284      11   40212   40233   40272       3   40209   40230   40263       2
   40209   40230   40266       2   40209   40230   40269       2   40206   40224
   40254       3   40203   40218   40248       3   40200   40215   40242       3
   40197   40212   40236      11   40188   40167   40191       3   40188   40173
   40194       3   40179   40161   40185      11   40173   40152   40176       3
   40167   40149   40170       3   40161   40146   40164       3   40155   40143
   40158       3   40152   40173   40194       3   40149   40167   40191       3
   40146   40161   40185       3   40140   40149   40170       3   40140   40152
   40176       3   40137   40143   40158       3   40137   40146   40164       3
   40125   40113   40128       3   40125   40119   40131       3   40119   40101
   40122       3   40113   40098   40116       3   40107   40095   40110       1
   40104   40095   40107       1   40104   40095   40110       1   40101   40119
   40131       3   40098   40113   40128       3   40092   40098   40116       3
   40092   40101   40122       3   40089   40095   40104       2   40089   40095
   40107       2   40089   40095   40110       2   41049   40998   41052       1
   41046   40998   41049       1   41046   40998   41052       1   41040   40995
   41043       1   41037   40995   41040       1   41037   40995   41043       1
   41031   40992   41034       1   41028   40992   41031       1   41028   40992
   41034       1   41022   40989   41025       1   41019   40989   41022       1
   41019   40989   41025       1   41013   40986   41016       1   41010   40986
   41013       1   41010   40986   41016       1   41004   40983   41007       1
   41001   40983   41004       1   41001   40983   41007       1   40980   40998
   41046       2   40980   40998   41049       2   40980   40998   41052       2
   40977   40995   41037       2   40977   40995   41040       2   40977   40995
   41043       2   40974   40992   41028       2   40974   40992   41031       2
   40974   40992   41034       2   40971   40989   41019       2   40971   40989
   41022       2   40971   40989   41025       2   40968   40986   41010       2
   40968   40986   41013       2   40968   40986   41016       2   40965   40983
   41001       2   40965   40983   41004       2   40965   40983   41007       2
   40956   40899   40959       3   40956   40905   40962       3   40947   40887
   40950       3   40947   40893   40953       3   40938   40875   40941       3
   40938   40881   40944       3   40932   40869   40935       3   40929   40863
   40932       3   40920   40854   40923       3   40920   40860   40926       3
   40911   40839   40914       3   40911   40845   40917       3   40905   40836
   40908       3   40899   40833   40902       3   40893   40830   40896       3
   40887   40827   40890       3   40881   40824   40884       3   40875   40821
   40878       3   40869   40818   40872       3   40863   40815   40866       3
   40857   40812   40860       3   40851   40809   40854       3   40845   40806
   40848       3   40839   40803   40842       3   40836   40905   40962       3
   40833   40899   40959       3   40830   40893   40953       3   40827   40887
   40950       3   40824   40881   40944       3   40821   40875   40941       3
   40818   40869   40935       3   40815   40863   40929       3   40812   40860
   40926       3   40809   40854   40923       3   40806   40845   40917       3
   40803   40839   40914       3   40797   40833   40902       3   40797   40836
   40908       3   40794   40827   40890       3   40794   40830   40896       3
   40788   40821   40878       3   40788   40824   40884       3   40785   40815
   40866       3   40785   40818   40872       3   40782   40809   40851       3
   40782   40812   40857       3   40779   40803   40842       3   40779   40806
   40848       3   40773   40743   40776       3   40764   40734   40767       3
   40749   40713   40752       1   40746   40713   40749       1   40746   40713
   40752       1   40743   40773   40800       3   40740   40773   40800       3
   40737   40707   40740       3   40734   40764   40791       3   40728   40701
   40731       3   40728   40764   40791       3   40722   40698   40725       3
   40722   40716   40755       3   40716   40695   40719       3   40710   40743
   40776      11   40704   40734   40767      11   40695   40716   40755       3
   40692   40713   40746       2   40692   40713   40749       2   40692   40713
   40752       2   40689   40707   40737       3   40686   40701   40731       3
   40683   40698   40725       3   40680   40695   40719      11   40671   40650
   40674       3   40671   40656   40677       3   40662   40644   40668      11
   40656   40635   40659       3   40650   40632   40653       3   40644   40629
   40647       3   40638   40626   40641       3   40635   40656   40677       3
   40632   40650   40674       3   40629   40644   40668       3   40623   40632
   40653       3   40623   40635   40659       3   40620   40626   40641       3
   40620   40629   40647       3   40608   40596   40611       3   40608   40602
   40614       3   40602   40584   40605       3   40596   40581   40599       3
   40590   40578   40593       1   40587   40578   40590       1   40587   40578
   40593       1   40584   40602   40614       3   40581   40596   40611       3
   40575   40581   40599       3   40575   40584   40605       3   40572   40578
   40587       2   40572   40578   40590       2   40572   40578   40593       2
   41532   41481   41535       1   41529   41481   41532       1   41529   41481
   41535       1   41523   41478   41526       1   41520   41478   41523       1
   41520   41478   41526       1   41514   41475   41517       1   41511   41475
   41514       1   41511   41475   41517       1   41505   41472   41508       1
   41502   41472   41505       1   41502   41472   41508       1   41496   41469
   41499       1   41493   41469   41496       1   41493   41469   41499       1
   41487   41466   41490       1   41484   41466   41487       1   41484   41466
   41490       1   41463   41481   41529       2   41463   41481   41532       2
   41463   41481   41535       2   41460   41478   41520       2   41460   41478
   41523       2   41460   41478   41526       2   41457   41475   41511       2
   41457   41475   41514       2   41457   41475   41517       2   41454   41472
   41502       2   41454   41472   41505       2   41454   41472   41508       2
   41451   41469   41493       2   41451   41469   41496       2   41451   41469
   41499       2   41448   41466   41484       2   41448   41466   41487       2
   41448   41466   41490       2   41439   41382   41442       3   41439   41388
   41445       3   41430   41370   41433       3   41430   41376   41436       3
   41421   41358   41424       3   41421   41364   41427       3   41415   41352
   41418       3   41412   41346   41415       3   41403   41337   41406       3
   41403   41343   41409       3   41394   41322   41397       3   41394   41328
   41400       3   41388   41319   41391       3   41382   41316   41385       3
   41376   41313   41379       3   41370   41310   41373       3   41364   41307
   41367       3   41358   41304   41361       3   41352   41301   41355       3
   41346   41298   41349       3   41340   41295   41343       3   41334   41292
   41337       3   41328   41289   41331       3   41322   41286   41325       3
   41319   41388   41445       3   41316   41382   41442       3   41313   41376
   41436       3   41310   41370   41433       3   41307   41364   41427       3
   41304   41358   41424       3   41301   41352   41418       3   41298   41346
   41412       3   41295   41343   41409       3   41292   41337   41406       3
   41289   41328   41400       3   41286   41322   41397       3   41280   41316
   41385       3   41280   41319   41391       3   41277   41310   41373       3
   41277   41313   41379       3   41271   41304   41361       3   41271   41307
   41367       3   41268   41298   41349       3   41268   41301   41355       3
   41265   41292   41334       3   41265   41295   41340       3   41262   41286
   41325       3   41262   41289   41331       3   41256   41226   41259       3
   41247   41217   41250       3   41232   41196   41235       1   41229   41196
   41232       1   41229   41196   41235       1   41226   41256   41283       3
   41223   41256   41283       3   41220   41190   41223       3   41217   41247
   41274       3   41211   41184   41214       3   41211   41247   41274       3
   41205   41181   41208       3   41205   41199   41238       3   41199   41178
   41202       3   41193   41226   41259      11   41187   41217   41250      11
   41178   41199   41238       3   41175   41196   41229       2   41175   41196
   41232       2   41175   41196   41235       2   41172   41190   41220       3
   41169   41184   41214       3   41166   41181   41208       3   41163   41178
   41202      11   41154   41133   41157       3   41154   41139   41160       3
   41145   41127   41151      11   41139   41118   41142       3   41133   41115
   41136       3   41127   41112   41130       3   41121   41109   41124       3
   41118   41139   41160       3   41115   41133   41157       3   41112   41127
   41151       3   41106   41115   41136       3   41106   41118   41142       3
   41103   41109   41124       3   41103   41112   41130       3   41091   41079
   41094       3   41091   41085   41097       3   41085   41067   41088       3
   41079   41064   41082       3   41073   41061   41076       1   41070   41061
   41073       1   41070   41061   41076       1   41067   41085   41097       3
   41064   41079   41094       3   41058   41064   41082       3   41058   41067
   41088       3   41055   41061   41070       2   41055   41061   41073       2
   41055   41061   41076       2   42015   41964   42018       1   42012   41964
   42015       1   42012   41964   42018       1   42006   41961   42009       1
   42003   41961   42006       1   42003   41961   42009       1   41997   41958
   42000       1   41994   41958   41997       1   41994   41958   42000       1
   41988   41955   41991       1   41985   41955   41988       1   41985   41955
   41991       1   41979   41952   41982       1   41976   41952   41979       1
   41976   41952   41982       1   41970   41949   41973       1   41967   41949
   41970       1   41967   41949   41973       1   41946   41964   42012       2
   41946   41964   42015       2   41946   41964   42018       2   41943   41961
   42003       2   41943   41961   42006       2   41943   41961   42009       2
   41940   41958   41994       2   41940   41958   41997       2   41940   41958
   42000       2   41937   41955   41985       2   41937   41955   41988       2
   41937   41955   41991       2   41934   41952   41976       2   41934   41952
   41979       2   41934   41952   41982       2   41931   41949   41967       2
   41931   41949   41970       2   41931   41949   41973       2   41922   41865
   41925       3   41922   41871   41928       3   41913   41853   41916       3
   41913   41859   41919       3   41904   41841   41907       3   41904   41847
   41910       3   41898   41835   41901       3   41895   41829   41898       3
   41886   41820   41889       3   41886   41826   41892       3   41877   41805
   41880       3   41877   41811   41883       3   41871   41802   41874       3
   41865   41799   41868       3   41859   41796   41862       3   41853   41793
   41856       3   41847   41790   41850       3   41841   41787   41844       3
   41835   41784   41838       3   41829   41781   41832       3   41823   41778
   41826       3   41817   41775   41820       3   41811   41772   41814       3
   41805   41769   41808       3   41802   41871   41928       3   41799   41865
   41925       3   41796   41859   41919       3   41793   41853   41916       3
   41790   41847   41910       3   41787   41841   41907       3   41784   41835
   41901       3   41781   41829   41895       3   41778   41826   41892       3
   41775   41820   41889       3   41772   41811   41883       3   41769   41805
   41880       3   41763   41799   41868       3   41763   41802   41874       3
   41760   41793   41856       3   41760   41796   41862       3   41754   41787
   41844       3   41754   41790   41850       3   41751   41781   41832       3
   41751   41784   41838       3   41748   41775   41817       3   41748   41778
   41823       3   41745   41769   41808       3   41745   41772   41814       3
   41739   41709   41742       3   41730   41700   41733       3   41715   41679
   41718       1   41712   41679   41715       1   41712   41679   41718       1
   41709   41739   41766       3   41706   41739   41766       3   41703   41673
   41706       3   41700   41730   41757       3   41694   41667   41697       3
   41694   41730   41757       3   41688   41664   41691       3   41688   41682
   41721       3   41682   41661   41685       3   41676   41709   41742      11
   41670   41700   41733      11   41661   41682   41721       3   41658   41679
   41712       2   41658   41679   41715       2   41658   41679   41718       2
   41655   41673   41703       3   41652   41667   41697       3   41649   41664
   41691       3   41646   41661   41685      11   41637   41616   41640       3
   41637   41622   41643       3   41628   41610   41634      11   41622   41601
   41625       3   41616   41598   41619       3   41610   41595   41613       3
   41604   41592   41607       3   41601   41622   41643       3   41598   41616
   41640       3   41595   41610   41634       3   41589   41598   41619       3
   41589   41601   41625       3   41586   41592   41607       3   41586   41595
   41613       3   41574   41562   41577       3   41574   41568   41580       3
   41568   41550   41571       3   41562   41547   41565       3   41556   41544
   41559       1   41553   41544   41556       1   41553   41544   41559       1
   41550   41568   41580       3   41547   41562   41577       3   41541   41547
   41565       3   41541   41550   41571       3   41538   41544   41553       2
   41538   41544   41556       2   41538   41544   41559       2   42498   42447
   42501       1   42495   42447   42498       1   42495   42447   42501       1
   42489   42444   42492       1   42486   42444   42489       1   42486   42444
   42492       1   42480   42441   42483       1   42477   42441   42480       1
   42477   42441   42483       1   42471   42438   42474       1   42468   42438
   42471       1   42468   42438   42474       1   42462   42435   42465       1
   42459   42435   42462       1   42459   42435   42465       1   42453   42432
   42456       1   42450   42432   42453       1   42450   42432   42456       1
   42429   42447   42495       2   42429   42447   42498       2   42429   42447
   42501       2   42426   42444   42486       2   42426   42444   42489       2
   42426   42444   42492       2   42423   42441   42477       2   42423   42441
   42480       2   42423   42441   42483       2   42420   42438   42468       2
   42420   42438   42471       2   42420   42438   42474       2   42417   42435
   42459       2   42417   42435   42462       2   42417   42435   42465       2
   42414   42432   42450       2   42414   42432   42453       2   42414   42432
   42456       2   42405   42348   42408       3   42405   42354   42411       3
   42396   42336   42399       3   42396   42342   42402       3   42387   42324
   42390       3   42387   42330   42393       3   42381   42318   42384       3
   42378   42312   42381       3   42369   42303   42372       3   42369   42309
   42375       3   42360   42288   42363       3   42360   42294   42366       3
   42354   42285   42357       3   42348   42282   42351       3   42342   42279
   42345       3   42336   42276   42339       3   42330   42273   42333       3
   42324   42270   42327       3   42318   42267   42321       3   42312   42264
   42315       3   42306   42261   42309       3   42300   42258   42303       3
   42294   42255   42297       3   42288   42252   42291       3   42285   42354
   42411       3   42282   42348   42408       3   42279   42342   42402       3
   42276   42336   42399       3   42273   42330   42393       3   42270   42324
   42390       3   42267   42318   42384       3   42264   42312   42378       3
   42261   42309   42375       3   42258   42303   42372       3   42255   42294
   42366       3   42252   42288   42363       3   42246   42282   42351       3
   42246   42285   42357       3   42243   42276   42339       3   42243   42279
   42345       3   42237   42270   42327       3   42237   42273   42333       3
   42234   42264   42315       3   42234   42267   42321       3   42231   42258
   42300       3   42231   42261   42306       3   42228   42252   42291       3
   42228   42255   42297       3   42222   42192   42225       3   42213   42183
   42216       3   42198   42162   42201       1   42195   42162   42198       1
   42195   42162   42201       1   42192   42222   42249       3   42189   42222
   42249       3   42186   42156   42189       3   42183   42213   42240       3
   42177   42150   42180       3   42177   42213   42240       3   42171   42147
   42174       3   42171   42165   42204       3   42165   42144   42168       3
   42159   42192   42225      11   42153   42183   42216      11   42144   42165
   42204       3   42141   42162   42195       2   42141   42162   42198       2
   42141   42162   42201       2   42138   42156   42186       3   42135   42150
   42180       3   42132   42147   42174       3   42129   42144   42168      11
   42120   42099   42123       3   42120   42105   42126       3   42111   42093
   42117      11   42105   42084   42108       3   42099   42081   42102       3
   42093   42078   42096       3   42087   42075   42090       3   42084   42105
   42126       3   42081   42099   42123       3   42078   42093   42117       3
   42072   42081   42102       3   42072   42084   42108       3   42069   42075
   42090       3   42069   42078   42096       3   42057   42045   42060       3
   42057   42051   42063       3   42051   42033   42054       3   42045   42030
   42048       3   42039   42027   42042       1   42036   42027   42039       1
   42036   42027   42042       1   42033   42051   42063       3   42030   42045
   42060       3   42024   42030   42048       3   42024   42033   42054       3
   42021   42027   42036       2   42021   42027   42039       2   42021   42027
   42042       2   42981   42930   42984       1   42978   42930   42981       1
   42978   42930   42984       1   42972   42927   42975       1   42969   42927
   42972       1   42969   42927   42975       1   42963   42924   42966       1
   42960   42924   42963       1   42960   42924   42966       1   42954   42921
   42957       1   42951   42921   42954       1   42951   42921   42957       1
   42945   42918   42948       1   42942   42918   42945       1   42942   42918
   42948       1   42936   42915   42939       1   42933   42915   42936       1
   42933   42915   42939       1   42912   42930   42978       2   42912   42930
   42981       2   42912   42930   42984       2   42909   42927   42969       2
   42909   42927   42972       2   42909   42927   42975       2   42906   42924
   42960       2   42906   42924   42963       2   42906   42924   42966       2
   42903   42921   42951       2   42903   42921   42954       2   42903   42921
   42957       2   42900   42918   42942       2   42900   42918   42945       2
   42900   42918   42948       2   42897   42915   42933       2   42897   42915
   42936       2   42897   42915   42939       2   42888   42831   42891       3
   42888   42837   42894       3   42879   42819   42882       3   42879   42825
   42885       3   42870   42807   42873       3   42870   42813   42876       3
   42864   42801   42867       3   42861   42795   42864       3   42852   42786
   42855       3   42852   42792   42858       3   42843   42771   42846       3
   42843   42777   42849       3   42837   42768   42840       3   42831   42765
   42834       3   42825   42762   42828       3   42819   42759   42822       3
   42813   42756   42816       3   42807   42753   42810       3   42801   42750
   42804       3   42795   42747   42798       3   42789   42744   42792       3
   42783   42741   42786       3   42777   42738   42780       3   42771   42735
   42774       3   42768   42837   42894       3   42765   42831   42891       3
   42762   42825   42885       3   42759   42819   42882       3   42756   42813
   42876       3   42753   42807   42873       3   42750   42801   42867       3
   42747   42795   42861       3   42744   42792   42858       3   42741   42786
   42855       3   42738   42777   42849       3   42735   42771   42846       3
   42729   42765   42834       3   42729   42768   42840       3   42726   42759
   42822       3   42726   42762   42828       3   42720   42753   42810       3
   42720   42756   42816       3   42717   42747   42798       3   42717   42750
   42804       3   42714   42741   42783       3   42714   42744   42789       3
   42711   42735   42774       3   42711   42738   42780       3   42705   42675
   42708       3   42696   42666   42699       3   42681   42645   42684       1
   42678   42645   42681       1   42678   42645   42684       1   42675   42705
   42732       3   42672   42705   42732       3   42669   42639   42672       3
   42666   42696   42723       3   42660   42633   42663       3   42660   42696
   42723       3   42654   42630   42657       3   42654   42648   42687       3
   42648   42627   42651       3   42642   42675   42708      11   42636   42666
   42699      11   42627   42648   42687       3   42624   42645   42678       2
   42624   42645   42681       2   42624   42645   42684       2   42621   42639
   42669       3   42618   42633   42663       3   42615   42630   42657       3
   42612   42627   42651      11   42603   42582   42606       3   42603   42588
   42609       3   42594   42576   42600      11   42588   42567   42591       3
   42582   42564   42585       3   42576   42561   42579       3   42570   42558
   42573       3   42567   42588   42609       3   42564   42582   42606       3
   42561   42576   42600       3   42555   42564   42585       3   42555   42567
   42591       3   42552   42558   42573       3   42552   42561   42579       3
   42540   42528   42543       3   42540   42534   42546       3   42534   42516
   42537       3   42528   42513   42531       3   42522   42510   42525       1
   42519   42510   42522       1   42519   42510   42525       1   42516   42534
   42546       3   42513   42528   42543       3   42507   42513   42531       3
   42507   42516   42537       3   42504   42510   42519       2   42504   42510
   42522       2   42504   42510   42525       2   43464   43413   43467       1
   43461   43413   43464       1   43461   43413   43467       1   43455   43410
   43458       1   43452   43410   43455       1   43452   43410   43458       1
   43446   43407   43449       1   43443   43407   43446       1   43443   43407
   43449       1   43437   43404   43440       1   43434   43404   43437       1
   43434   43404   43440       1   43428   43401   43431       1   43425   43401
   43428       1   43425   43401   43431       1   43419   43398   43422       1
   43416   43398   43419       1   43416   43398   43422       1   43395   43413
   43461       2   43395   43413   43464       2   43395   43413   43467       2
   43392   43410   43452       2   43392   43410   43455       2   43392   43410
   43458       2   43389   43407   43443       2   43389   43407   43446       2
   43389   43407   43449       2   43386   43404   43434       2   43386   43404
   43437       2   43386   43404   43440       2   43383   43401   43425       2
   43383   43401   43428       2   43383   43401   43431       2   43380   43398
   43416       2   43380   43398   43419       2   43380   43398   43422       2
   43371   43314   43374       3   43371   43320   43377       3   43362   43302
   43365       3   43362   43308   43368       3   43353   43290   43356       3
   43353   43296   43359       3   43347   43284   43350       3   43344   43278
   43347       3   43335   43269   43338       3   43335   43275   43341       3
   43326   43254   43329       3   43326   43260   43332       3   43320   43251
   43323       3   43314   43248   43317       3   43308   43245   43311       3
   43302   43242   43305       3   43296   43239   43299       3   43290   43236
   43293       3   43284   43233   43287       3   43278   43230   43281       3
   43272   43227   43275       3   43266   43224   43269       3   43260   43221
   43263       3   43254   43218   43257       3   43251   43320   43377       3
   43248   43314   43374       3   43245   43308   43368       3   43242   43302
   43365       3   43239   43296   43359       3   43236   43290   43356       3
   43233   43284   43350       3   43230   43278   43344       3   43227   43275
   43341       3   43224   43269   43338       3   43221   43260   43332       3
   43218   43254   43329       3   43212   43248   43317       3   43212   43251
   43323       3   43209   43242   43305       3   43209   43245   43311       3
   43203   43236   43293       3   43203   43239   43299       3   43200   43230
   43281       3   43200   43233   43287       3   43197   43224   43266       3
   43197   43227   43272       3   43194   43218   43257       3   43194   43221
   43263       3   43188   43158   43191       3   43179   43149   43182       3
   43164   43128   43167       1   43161   43128   43164       1   43161   43128
   43167       1   43158   43188   43215       3   43155   43188   43215       3
   43152   43122   43155       3   43149   43179   43206       3   43143   43116
   43146       3   43143   43179   43206       3   43137   43113   43140       3
   43137   43131   43170       3   43131   43110   43134       3   43125   43158
   43191      11   43119   43149   43182      11   43110   43131   43170       3
   43107   43128   43161       2   43107   43128   43164       2   43107   43128
   43167       2   43104   43122   43152       3   43101   43116   43146       3
   43098   43113   43140       3   43095   43110   43134      11   43086   43065
   43089       3   43086   43071   43092       3   43077   43059   43083      11
   43071   43050   43074       3   43065   43047   43068       3   43059   43044
   43062       3   43053   43041   43056       3   43050   43071   43092       3
   43047   43065   43089       3   43044   43059   43083       3   43038   43047
   43068       3   43038   43050   43074       3   43035   43041   43056       3
   43035   43044   43062       3   43023   43011   43026       3   43023   43017
   43029       3   43017   42999   43020       3   43011   42996   43014       3
   43005   42993   43008       1   43002   42993   43005       1   43002   42993
   43008       1   42999   43017   43029       3   42996   43011   43026       3
   42990   42996   43014       3   42990   42999   43020       3   42987   42993
   43002       2   42987   42993   43005       2   42987   42993   43008       2
   43947   43896   43950       1   43944   43896   43947       1   43944   43896
   43950       1   43938   43893   43941       1   43935   43893   43938       1
   43935   43893   43941       1   43929   43890   43932       1   43926   43890
   43929       1   43926   43890   43932       1   43920   43887   43923       1
   43917   43887   43920       1   43917   43887   43923       1   43911   43884
   43914       1   43908   43884   43911       1   43908   43884   43914       1
   43902   43881   43905       1   43899   43881   43902       1   43899   43881
   43905       1   43878   43896   43944       2   43878   43896   43947       2
   43878   43896   43950       2   43875   43893   43935       2   43875   43893
   43938       2   43875   43893   43941       2   43872   43890   43926       2
   43872   43890   43929       2   43872   43890   43932       2   43869   43887
   43917       2   43869   43887   43920       2   43869   43887   43923       2
   43866   43884   43908       2   43866   43884   43911       2   43866   43884
   43914       2   43863   43881   43899       2   43863   43881   43902       2
   43863   43881   43905       2   43854   43797   43857       3   43854   43803
   43860       3   43845   43785   43848       3   43845   43791   43851       3
   43836   43773   43839       3   43836   43779   43842       3   43830   43767
   43833       3   43827   43761   43830       3   43818   43752   43821       3
   43818   43758   43824       3   43809   43737   43812       3   43809   43743
   43815       3   43803   43734   43806       3   43797   43731   43800       3
   43791   43728   43794       3   43785   43725   43788       3   43779   43722
   43782       3   43773   43719   43776       3   43767   43716   43770       3
   43761   43713   43764       3   43755   43710   43758       3   43749   43707
   43752       3   43743   43704   43746       3   43737   43701   43740       3
   43734   43803   43860       3   43731   43797   43857       3   43728   43791
   43851       3   43725   43785   43848       3   43722   43779   43842       3
   43719   43773   43839       3   43716   43767   43833       3   43713   43761
   43827       3   43710   43758   43824       3   43707   43752   43821       3
   43704   43743   43815       3   43701   43737   43812       3   43695   43731
   43800       3   43695   43734   43806       3   43692   43725   43788       3
   43692   43728   43794       3   43686   43719   43776       3   43686   43722
   43782       3   43683   43713   43764       3   43683   43716   43770       3
   43680   43707   43749       3   43680   43710   43755       3   43677   43701
   43740       3   43677   43704   43746       3   43671   43641   43674       3
   43662   43632   43665       3   43647   43611   43650       1   43644   43611
   43647       1   43644   43611   43650       1   43641   43671   43698       3
   43638   43671   43698       3   43635   43605   43638       3   43632   43662
   43689       3   43626   43599   43629       3   43626   43662   43689       3
   43620   43596   43623       3   43620   43614   43653       3   43614   43593
   43617       3   43608   43641   43674      11   43602   43632   43665      11
   43593   43614   43653       3   43590   43611   43644       2   43590   43611
   43647       2   43590   43611   43650       2   43587   43605   43635       3
   43584   43599   43629       3   43581   43596   43623       3   43578   43593
   43617      11   43569   43548   43572       3   43569   43554   43575       3
   43560   43542   43566      11   43554   43533   43557       3   43548   43530
   43551       3   43542   43527   43545       3   43536   43524   43539       3
   43533   43554   43575       3   43530   43548   43572       3   43527   43542
   43566       3   43521   43530   43551       3   43521   43533   43557       3
   43518   43524   43539       3   43518   43527   43545       3   43506   43494
   43509       3   43506   43500   43512       3   43500   43482   43503       3
   43494   43479   43497       3   43488   43476   43491       1   43485   43476
   43488       1   43485   43476   43491       1   43482   43500   43512       3
   43479   43494   43509       3   43473   43479   43497       3   43473   43482
   43503       3   43470   43476   43485       2   43470   43476   43488       2
   43470   43476   43491       2   44430   44379   44433       1   44427   44379
   44430       1   44427   44379   44433       1   44421   44376   44424       1
   44418   44376   44421       1   44418   44376   44424       1   44412   44373
   44415       1   44409   44373   44412       1   44409   44373   44415       1
   44403   44370   44406       1   44400   44370   44403       1   44400   44370
   44406       1   44394   44367   44397       1   44391   44367   44394       1
   44391   44367   44397       1   44385   44364   44388       1   44382   44364
   44385       1   44382   44364   44388       1   44361   44379   44427       2
   44361   44379   44430       2   44361   44379   44433       2   44358   44376
   44418       2   44358   44376   44421       2   44358   44376   44424       2
   44355   44373   44409       2   44355   44373   44412       2   44355   44373
   44415       2   44352   44370   44400       2   44352   44370   44403       2
   44352   44370   44406       2   44349   44367   44391       2   44349   44367
   44394       2   44349   44367   44397       2   44346   44364   44382       2
   44346   44364   44385       2   44346   44364   44388       2   44337   44280
   44340       3   44337   44286   44343       3   44328   44268   44331       3
   44328   44274   44334       3   44319   44256   44322       3   44319   44262
   44325       3   44313   44250   44316       3   44310   44244   44313       3
   44301   44235   44304       3   44301   44241   44307       3   44292   44220
   44295       3   44292   44226   44298       3   44286   44217   44289       3
   44280   44214   44283       3   44274   44211   44277       3   44268   44208
   44271       3   44262   44205   44265       3   44256   44202   44259       3
   44250   44199   44253       3   44244   44196   44247       3   44238   44193
   44241       3   44232   44190   44235       3   44226   44187   44229       3
   44220   44184   44223       3   44217   44286   44343       3   44214   44280
   44340       3   44211   44274   44334       3   44208   44268   44331       3
   44205   44262   44325       3   44202   44256   44322       3   44199   44250
   44316       3   44196   44244   44310       3   44193   44241   44307       3
   44190   44235   44304       3   44187   44226   44298       3   44184   44220
   44295       3   44178   44214   44283       3   44178   44217   44289       3
   44175   44208   44271       3   44175   44211   44277       3   44169   44202
   44259       3   44169   44205   44265       3   44166   44196   44247       3
   44166   44199   44253       3   44163   44190   44232       3   44163   44193
   44238       3   44160   44184   44223       3   44160   44187   44229       3
   44154   44124   44157       3   44145   44115   44148       3   44130   44094
   44133       1   44127   44094   44130       1   44127   44094   44133       1
   44124   44154   44181       3   44121   44154   44181       3   44118   44088
   44121       3   44115   44145   44172       3   44109   44082   44112       3
   44109   44145   44172       3   44103   44079   44106       3   44103   44097
   44136       3   44097   44076   44100       3   44091   44124   44157      11
   44085   44115   44148      11   44076   44097   44136       3   44073   44094
   44127       2   44073   44094   44130       2   44073   44094   44133       2
   44070   44088   44118       3   44067   44082   44112       3   44064   44079
   44106       3   44061   44076   44100      11   44052   44031   44055       3
   44052   44037   44058       3   44043   44025   44049      11   44037   44016
   44040       3   44031   44013   44034       3   44025   44010   44028       3
   44019   44007   44022       3   44016   44037   44058       3   44013   44031
   44055       3   44010   44025   44049       3   44004   44013   44034       3
   44004   44016   44040       3   44001   44007   44022       3   44001   44010
   44028       3   43989   43977   43992       3   43989   43983   43995       3
   43983   43965   43986       3   43977   43962   43980       3   43971   43959
   43974       1   43968   43959   43971       1   43968   43959   43974       1
   43965   43983   43995       3   43962   43977   43992       3   43956   43962
   43980       3   43956   43965   43986       3   43953   43959   43968       2
   43953   43959   43971       2   43953   43959   43974       2   44913   44862
   44916       1   44910   44862   44913       1   44910   44862   44916       1
   44904   44859   44907       1   44901   44859   44904       1   44901   44859
   44907       1   44895   44856   44898       1   44892   44856   44895       1
   44892   44856   44898       1   44886   44853   44889       1   44883   44853
   44886       1   44883   44853   44889       1   44877   44850   44880       1
   44874   44850   44877       1   44874   44850   44880       1   44868   44847
   44871       1   44865   44847   44868       1   44865   44847   44871       1
   44844   44862   44910       2   44844   44862   44913       2   44844   44862
   44916       2   44841   44859   44901       2   44841   44859   44904       2
   44841   44859   44907       2   44838   44856   44892       2   44838   44856
   44895       2   44838   44856   44898       2   44835   44853   44883       2
   44835   44853   44886       2   44835   44853   44889       2   44832   44850
   44874       2   44832   44850   44877       2   44832   44850   44880       2
   44829   44847   44865       2   44829   44847   44868       2   44829   44847
   44871       2   44820   44763   44823       3   44820   44769   44826       3
   44811   44751   44814       3   44811   44757   44817       3   44802   44739
   44805       3   44802   44745   44808       3   44796   44733   44799       3
   44793   44727   44796       3   44784   44718   44787       3   44784   44724
   44790       3   44775   44703   44778       3   44775   44709   44781       3
   44769   44700   44772       3   44763   44697   44766       3   44757   44694
   44760       3   44751   44691   44754       3   44745   44688   44748       3
   44739   44685   44742       3   44733   44682   44736       3   44727   44679
   44730       3   44721   44676   44724       3   44715   44673   44718       3
   44709   44670   44712       3   44703   44667   44706       3   44700   44769
   44826       3   44697   44763   44823       3   44694   44757   44817       3
   44691   44751   44814       3   44688   44745   44808       3   44685   44739
   44805       3   44682   44733   44799       3   44679   44727   44793       3
   44676   44724   44790       3   44673   44718   44787       3   44670   44709
   44781       3   44667   44703   44778       3   44661   44697   44766       3
   44661   44700   44772       3   44658   44691   44754       3   44658   44694
   44760       3   44652   44685   44742       3   44652   44688   44748       3
   44649   44679   44730       3   44649   44682   44736       3   44646   44673
   44715       3   44646   44676   44721       3   44643   44667   44706       3
   44643   44670   44712       3   44637   44607   44640       3   44628   44598
   44631       3   44613   44577   44616       1   44610   44577   44613       1
   44610   44577   44616       1   44607   44637   44664       3   44604   44637
   44664       3   44601   44571   44604       3   44598   44628   44655       3
   44592   44565   44595       3   44592   44628   44655       3   44586   44562
   44589       3   44586   44580   44619       3   44580   44559   44583       3
   44574   44607   44640      11   44568   44598   44631      11   44559   44580
   44619       3   44556   44577   44610       2   44556   44577   44613       2
   44556   44577   44616       2   44553   44571   44601       3   44550   44565
   44595       3   44547   44562   44589       3   44544   44559   44583      11
   44535   44514   44538       3   44535   44520   44541       3   44526   44508
   44532      11   44520   44499   44523       3   44514   44496   44517       3
   44508   44493   44511       3   44502   44490   44505       3   44499   44520
   44541       3   44496   44514   44538       3   44493   44508   44532       3
   44487   44496   44517       3   44487   44499   44523       3   44484   44490
   44505       3   44484   44493   44511       3   44472   44460   44475       3
   44472   44466   44478       3   44466   44448   44469       3   44460   44445
   44463       3   44454   44442   44457       1   44451   44442   44454       1
   44451   44442   44457       1   44448   44466   44478       3   44445   44460
   44475       3   44439   44445   44463       3   44439   44448   44469       3
   44436   44442   44451       2   44436   44442   44454       2   44436   44442
   44457       2   45396   45345   45399       1   45393   45345   45396       1
   45393   45345   45399       1   45387   45342   45390       1   45384   45342
   45387       1   45384   45342   45390       1   45378   45339   45381       1
   45375   45339   45378       1   45375   45339   45381       1   45369   45336
   45372       1   45366   45336   45369       1   45366   45336   45372       1
   45360   45333   45363       1   45357   45333   45360       1   45357   45333
   45363       1   45351   45330   45354       1   45348   45330   45351       1
   45348   45330   45354       1   45327   45345   45393       2   45327   45345
   45396       2   45327   45345   45399       2   45324   45342   45384       2
   45324   45342   45387       2   45324   45342   45390       2   45321   45339
   45375       2   45321   45339   45378       2   45321   45339   45381       2
   45318   45336   45366       2   45318   45336   45369       2   45318   45336
   45372       2   45315   45333   45357       2   45315   45333   45360       2
   45315   45333   45363       2   45312   45330   45348       2   45312   45330
   45351       2   45312   45330   45354       2   45303   45246   45306       3
   45303   45252   45309       3   45294   45234   45297       3   45294   45240
   45300       3   45285   45222   45288       3   45285   45228   45291       3
   45279   45216   45282       3   45276   45210   45279       3   45267   45201
   45270       3   45267   45207   45273       3   45258   45186   45261       3
   45258   45192   45264       3   45252   45183   45255       3   45246   45180
   45249       3   45240   45177   45243       3   45234   45174   45237       3
   45228   45171   45231       3   45222   45168   45225       3   45216   45165
   45219       3   45210   45162   45213       3   45204   45159   45207       3
   45198   45156   45201       3   45192   45153   45195       3   45186   45150
   45189       3   45183   45252   45309       3   45180   45246   45306       3
   45177   45240   45300       3   45174   45234   45297       3   45171   45228
   45291       3   45168   45222   45288       3   45165   45216   45282       3
   45162   45210   45276       3   45159   45207   45273       3   45156   45201
   45270       3   45153   45192   45264       3   45150   45186   45261       3
   45144   45180   45249       3   45144   45183   45255       3   45141   45174
   45237       3   45141   45177   45243       3   45135   45168   45225       3
   45135   45171   45231       3   45132   45162   45213       3   45132   45165
   45219       3   45129   45156   45198       3   45129   45159   45204       3
   45126   45150   45189       3   45126   45153   45195       3   45120   45090
   45123       3   45111   45081   45114       3   45096   45060   45099       1
   45093   45060   45096       1   45093   45060   45099       1   45090   45120
   45147       3   45087   45120   45147       3   45084   45054   45087       3
   45081   45111   45138       3   45075   45048   45078       3   45075   45111
   45138       3   45069   45045   45072       3   45069   45063   45102       3
   45063   45042   45066       3   45057   45090   45123      11   45051   45081
   45114      11   45042   45063   45102       3   45039   45060   45093       2
   45039   45060   45096       2   45039   45060   45099       2   45036   45054
   45084       3   45033   45048   45078       3   45030   45045   45072       3
   45027   45042   45066      11   45018   44997   45021       3   45018   45003
   45024       3   45009   44991   45015      11   45003   44982   45006       3
   44997   44979   45000       3   44991   44976   44994       3   44985   44973
   44988       3   44982   45003   45024       3   44979   44997   45021       3
   44976   44991   45015       3   44970   44979   45000       3   44970   44982
   45006       3   44967   44973   44988       3   44967   44976   44994       3
   44955   44943   44958       3   44955   44949   44961       3   44949   44931
   44952       3   44943   44928   44946       3   44937   44925   44940       1
   44934   44925   44937       1   44934   44925   44940       1   44931   44949
   44961       3   44928   44943   44958       3   44922   44928   44946       3
   44922   44931   44952       3   44919   44925   44934       2   44919   44925
   44937       2   44919   44925   44940       2   45879   45828   45882       1
   45876   45828   45879       1   45876   45828   45882       1   45870   45825
   45873       1   45867   45825   45870       1   45867   45825   45873       1
   45861   45822   45864       1   45858   45822   45861       1   45858   45822
   45864       1   45852   45819   45855       1   45849   45819   45852       1
   45849   45819   45855       1   45843   45816   45846       1   45840   45816
   45843       1   45840   45816   45846       1   45834   45813   45837       1
   45831   45813   45834       1   45831   45813   45837       1   45810   45828
   45876       2   45810   45828   45879       2   45810   45828   45882       2
   45807   45825   45867       2   45807   45825   45870       2   45807   45825
   45873       2   45804   45822   45858       2   45804   45822   45861       2
   45804   45822   45864       2   45801   45819   45849       2   45801   45819
   45852       2   45801   45819   45855       2   45798   45816   45840       2
   45798   45816   45843       2   45798   45816   45846       2   45795   45813
   45831       2   45795   45813   45834       2   45795   45813   45837       2
   45786   45729   45789       3   45786   45735   45792       3   45777   45717
   45780       3   45777   45723   45783       3   45768   45705   45771       3
   45768   45711   45774       3   45762   45699   45765       3   45759   45693
   45762       3   45750   45684   45753       3   45750   45690   45756       3
   45741   45669   45744       3   45741   45675   45747       3   45735   45666
   45738       3   45729   45663   45732       3   45723   45660   45726       3
   45717   45657   45720       3   45711   45654   45714       3   45705   45651
   45708       3   45699   45648   45702       3   45693   45645   45696       3
   45687   45642   45690       3   45681   45639   45684       3   45675   45636
   45678       3   45669   45633   45672       3   45666   45735   45792       3
   45663   45729   45789       3   45660   45723   45783       3   45657   45717
   45780       3   45654   45711   45774       3   45651   45705   45771       3
   45648   45699   45765       3   45645   45693   45759       3   45642   45690
   45756       3   45639   45684   45753       3   45636   45675   45747       3
   45633   45669   45744       3   45627   45663   45732       3   45627   45666
   45738       3   45624   45657   45720       3   45624   45660   45726       3
   45618   45651   45708       3   45618   45654   45714       3   45615   45645
   45696       3   45615   45648   45702       3   45612   45639   45681       3
   45612   45642   45687       3   45609   45633   45672       3   45609   45636
   45678       3   45603   45573   45606       3   45594   45564   45597       3
   45579   45543   45582       1   45576   45543   45579       1   45576   45543
   45582       1   45573   45603   45630       3   45570   45603   45630       3
   45567   45537   45570       3   45564   45594   45621       3   45558   45531
   45561       3   45558   45594   45621       3   45552   45528   45555       3
   45552   45546   45585       3   45546   45525   45549       3   45540   45573
   45606      11   45534   45564   45597      11   45525   45546   45585       3
   45522   45543   45576       2   45522   45543   45579       2   45522   45543
   45582       2   45519   45537   45567       3   45516   45531   45561       3
   45513   45528   45555       3   45510   45525   45549      11   45501   45480
   45504       3   45501   45486   45507       3   45492   45474   45498      11
   45486   45465   45489       3   45480   45462   45483       3   45474   45459
   45477       3   45468   45456   45471       3   45465   45486   45507       3
   45462   45480   45504       3   45459   45474   45498       3   45453   45462
   45483       3   45453   45465   45489       3   45450   45456   45471       3
   45450   45459   45477       3   45438   45426   45441       3   45438   45432
   45444       3   45432   45414   45435       3   45426   45411   45429       3
   45420   45408   45423       1   45417   45408   45420       1   45417   45408
   45423       1   45414   45432   45444       3   45411   45426   45441       3
   45405   45411   45429       3   45405   45414   45435       3   45402   45408
   45417       2   45402   45408   45420       2   45402   45408   45423       2
   46362   46311   46365       1   46359   46311   46362       1   46359   46311
   46365       1   46353   46308   46356       1   46350   46308   46353       1
   46350   46308   46356       1   46344   46305   46347       1   46341   46305
   46344       1   46341   46305   46347       1   46335   46302   46338       1
   46332   46302   46335       1   46332   46302   46338       1   46326   46299
   46329       1   46323   46299   46326       1   46323   46299   46329       1
   46317   46296   46320       1   46314   46296   46317       1   46314   46296
   46320       1   46293   46311   46359       2   46293   46311   46362       2
   46293   46311   46365       2   46290   46308   46350       2   46290   46308
   46353       2   46290   46308   46356       2   46287   46305   46341       2
   46287   46305   46344       2   46287   46305   46347       2   46284   46302
   46332       2   46284   46302   46335       2   46284   46302   46338       2
   46281   46299   46323       2   46281   46299   46326       2   46281   46299
   46329       2   46278   46296   46314       2   46278   46296   46317       2
   46278   46296   46320       2   46269   46212   46272       3   46269   46218
   46275       3   46260   46200   46263       3   46260   46206   46266       3
   46251   46188   46254       3   46251   46194   46257       3   46245   46182
   46248       3   46242   46176   46245       3   46233   46167   46236       3
   46233   46173   46239       3   46224   46152   46227       3   46224   46158
   46230       3   46218   46149   46221       3   46212   46146   46215       3
   46206   46143   46209       3   46200   46140   46203       3   46194   46137
   46197       3   46188   46134   46191       3   46182   46131   46185       3
   46176   46128   46179       3   46170   46125   46173       3   46164   46122
   46167       3   46158   46119   46161       3   46152   46116   46155       3
   46149   46218   46275       3   46146   46212   46272       3   46143   46206
   46266       3   46140   46200   46263       3   46137   46194   46257       3
   46134   46188   46254       3   46131   46182   46248       3   46128   46176
   46242       3   46125   46173   46239       3   46122   46167   46236       3
   46119   46158   46230       3   46116   46152   46227       3   46110   46146
   46215       3   46110   46149   46221       3   46107   46140   46203       3
   46107   46143   46209       3   46101   46134   46191       3   46101   46137
   46197       3   46098   46128   46179       3   46098   46131   46185       3
   46095   46122   46164       3   46095   46125   46170       3   46092   46116
   46155       3   46092   46119   46161       3   46086   46056   46089       3
   46077   46047   46080       3   46062   46026   46065       1   46059   46026
   46062       1   46059   46026   46065       1   46056   46086   46113       3
   46053   46086   46113       3   46050   46020   46053       3   46047   46077
   46104       3   46041   46014   46044       3   46041   46077   46104       3
   46035   46011   46038       3   46035   46029   46068       3   46029   46008
   46032       3   46023   46056   46089      11   46017   46047   46080      11
   46008   46029   46068       3   46005   46026   46059       2   46005   46026
   46062       2   46005   46026   46065       2   46002   46020   46050       3
   45999   46014   46044       3   45996   46011   46038       3   45993   46008
   46032      11   45984   45963   45987       3   45984   45969   45990       3
   45975   45957   45981      11   45969   45948   45972       3   45963   45945
   45966       3   45957   45942   45960       3   45951   45939   45954       3
   45948   45969   45990       3   45945   45963   45987       3   45942   45957
   45981       3   45936   45945   45966       3   45936   45948   45972       3
   45933   45939   45954       3   45933   45942   45960       3   45921   45909
   45924       3   45921   45915   45927       3   45915   45897   45918       3
   45909   45894   45912       3   45903   45891   45906       1   45900   45891
   45903       1   45900   45891   45906       1   45897   45915   45927       3
   45894   45909   45924       3   45888   45894   45912       3   45888   45897
   45918       3   45885   45891   45900       2   45885   45891   45903       2
   45885   45891   45906       2   46845   46794   46848       1   46842   46794
   46845       1   46842   46794   46848       1   46836   46791   46839       1
   46833   46791   46836       1   46833   46791   46839       1   46827   46788
   46830       1   46824   46788   46827       1   46824   46788   46830       1
   46818   46785   46821       1   46815   46785   46818       1   46815   46785
   46821       1   46809   46782   46812       1   46806   46782   46809       1
   46806   46782   46812       1   46800   46779   46803       1   46797   46779
   46800       1   46797   46779   46803       1   46776   46794   46842       2
   46776   46794   46845       2   46776   46794   46848       2   46773   46791
   46833       2   46773   46791   46836       2   46773   46791   46839       2
   46770   46788   46824       2   46770   46788   46827       2   46770   46788
   46830       2   46767   46785   46815       2   46767   46785   46818       2
   46767   46785   46821       2   46764   46782   46806       2   46764   46782
   46809       2   46764   46782   46812       2   46761   46779   46797       2
   46761   46779   46800       2   46761   46779   46803       2   46752   46695
   46755       3   46752   46701   46758       3   46743   46683   46746       3
   46743   46689   46749       3   46734   46671   46737       3   46734   46677
   46740       3   46728   46665   46731       3   46725   46659   46728       3
   46716   46650   46719       3   46716   46656   46722       3   46707   46635
   46710       3   46707   46641   46713       3   46701   46632   46704       3
   46695   46629   46698       3   46689   46626   46692       3   46683   46623
   46686       3   46677   46620   46680       3   46671   46617   46674       3
   46665   46614   46668       3   46659   46611   46662       3   46653   46608
   46656       3   46647   46605   46650       3   46641   46602   46644       3
   46635   46599   46638       3   46632   46701   46758       3   46629   46695
   46755       3   46626   46689   46749       3   46623   46683   46746       3
   46620   46677   46740       3   46617   46671   46737       3   46614   46665
   46731       3   46611   46659   46725       3   46608   46656   46722       3
   46605   46650   46719       3   46602   46641   46713       3   46599   46635
   46710       3   46593   46629   46698       3   46593   46632   46704       3
   46590   46623   46686       3   46590   46626   46692       3   46584   46617
   46674       3   46584   46620   46680       3   46581   46611   46662       3
   46581   46614   46668       3   46578   46605   46647       3   46578   46608
   46653       3   46575   46599   46638       3   46575   46602   46644       3
   46569   46539   46572       3   46560   46530   46563       3   46545   46509
   46548       1   46542   46509   46545       1   46542   46509   46548       1
   46539   46569   46596       3   46536   46569   46596       3   46533   46503
   46536       3   46530   46560   46587       3   46524   46497   46527       3
   46524   46560   46587       3   46518   46494   46521       3   46518   46512
   46551       3   46512   46491   46515       3   46506   46539   46572      11
   46500   46530   46563      11   46491   46512   46551       3   46488   46509
   46542       2   46488   46509   46545       2   46488   46509   46548       2
   46485   46503   46533       3   46482   46497   46527       3   46479   46494
   46521       3   46476   46491   46515      11   46467   46446   46470       3
   46467   46452   46473       3   46458   46440   46464      11   46452   46431
   46455       3   46446   46428   46449       3   46440   46425   46443       3
   46434   46422   46437       3   46431   46452   46473       3   46428   46446
   46470       3   46425   46440   46464       3   46419   46428   46449       3
   46419   46431   46455       3   46416   46422   46437       3   46416   46425
   46443       3   46404   46392   46407       3   46404   46398   46410       3
   46398   46380   46401       3   46392   46377   46395       3   46386   46374
   46389       1   46383   46374   46386       1   46383   46374   46389       1
   46380   46398   46410       3   46377   46392   46407       3   46371   46377
   46395       3   46371   46380   46401       3   46368   46374   46383       2
   46368   46374   46386       2   46368   46374   46389       2   47328   47277
   47331       1   47325   47277   47328       1   47325   47277   47331       1
   47319   47274   47322       1   47316   47274   47319       1   47316   47274
   47322       1   47310   47271   47313       1   47307   47271   47310       1
   47307   47271   47313       1   47301   47268   47304       1   47298   47268
   47301       1   47298   47268   47304       1   47292   47265   47295       1
   47289   47265   47292       1   47289   47265   47295       1   47283   47262
   47286       1   47280   47262   47283       1   47280   47262   47286       1
   47259   47277   47325       2   47259   47277   47328       2   47259   47277
   47331       2   47256   47274   47316       2   47256   47274   47319       2
   47256   47274   47322       2   47253   47271   47307       2   47253   47271
   47310       2   47253   47271   47313       2   47250   47268   47298       2
   47250   47268   47301       2   47250   47268   47304       2   47247   47265
   47289       2   47247   47265   47292       2   47247   47265   47295       2
   47244   47262   47280       2   47244   47262   47283       2   47244   47262
   47286       2   47235   47178   47238       3   47235   47184   47241       3
   47226   47166   47229       3   47226   47172   47232       3   47217   47154
   47220       3   47217   47160   47223       3   47211   47148   47214       3
   47208   47142   47211       3   47199   47133   47202       3   47199   47139
   47205       3   47190   47118   47193       3   47190   47124   47196       3
   47184   47115   47187       3   47178   47112   47181       3   47172   47109
   47175       3   47166   47106   47169       3   47160   47103   47163       3
   47154   47100   47157       3   47148   47097   47151       3   47142   47094
   47145       3   47136   47091   47139       3   47130   47088   47133       3
   47124   47085   47127       3   47118   47082   47121       3   47115   47184
   47241       3   47112   47178   47238       3   47109   47172   47232       3
   47106   47166   47229       3   47103   47160   47223       3   47100   47154
   47220       3   47097   47148   47214       3   47094   47142   47208       3
   47091   47139   47205       3   47088   47133   47202       3   47085   47124
   47196       3   47082   47118   47193       3   47076   47112   47181       3
   47076   47115   47187       3   47073   47106   47169       3   47073   47109
   47175       3   47067   47100   47157       3   47067   47103   47163       3
   47064   47094   47145       3   47064   47097   47151       3   47061   47088
   47130       3   47061   47091   47136       3   47058   47082   47121       3
   47058   47085   47127       3   47052   47022   47055       3   47043   47013
   47046       3   47028   46992   47031       1   47025   46992   47028       1
   47025   46992   47031       1   47022   47052   47079       3   47019   47052
   47079       3   47016   46986   47019       3   47013   47043   47070       3
   47007   46980   47010       3   47007   47043   47070       3   47001   46977
   47004       3   47001   46995   47034       3   46995   46974   46998       3
   46989   47022   47055      11   46983   47013   47046      11   46974   46995
   47034       3   46971   46992   47025       2   46971   46992   47028       2
   46971   46992   47031       2   46968   46986   47016       3   46965   46980
   47010       3   46962   46977   47004       3   46959   46974   46998      11
   46950   46929   46953       3   46950   46935   46956       3   46941   46923
   46947      11   46935   46914   46938       3   46929   46911   46932       3
   46923   46908   46926       3   46917   46905   46920       3   46914   46935
   46956       3   46911   46929   46953       3   46908   46923   46947       3
   46902   46911   46932       3   46902   46914   46938       3   46899   46905
   46920       3   46899   46908   46926       3   46887   46875   46890       3
   46887   46881   46893       3   46881   46863   46884       3   46875   46860
   46878       3   46869   46857   46872       1   46866   46857   46869       1
   46866   46857   46872       1   46863   46881   46893       3   46860   46875
   46890       3   46854   46860   46878       3   46854   46863   46884       3
   46851   46857   46866       2   46851   46857   46869       2   46851   46857
   46872       2   47811   47760   47814       1   47808   47760   47811       1
   47808   47760   47814       1   47802   47757   47805       1   47799   47757
   47802       1   47799   47757   47805       1   47793   47754   47796       1
   47790   47754   47793       1   47790   47754   47796       1   47784   47751
   47787       1   47781   47751   47784       1   47781   47751   47787       1
   47775   47748   47778       1   47772   47748   47775       1   47772   47748
   47778       1   47766   47745   47769       1   47763   47745   47766       1
   47763   47745   47769       1   47742   47760   47808       2   47742   47760
   47811       2   47742   47760   47814       2   47739   47757   47799       2
   47739   47757   47802       2   47739   47757   47805       2   47736   47754
   47790       2   47736   47754   47793       2   47736   47754   47796       2
   47733   47751   47781       2   47733   47751   47784       2   47733   47751
   47787       2   47730   47748   47772       2   47730   47748   47775       2
   47730   47748   47778       2   47727   47745   47763       2   47727   47745
   47766       2   47727   47745   47769       2   47718   47661   47721       3
   47718   47667   47724       3   47709   47649   47712       3   47709   47655
   47715       3   47700   47637   47703       3   47700   47643   47706       3
   47694   47631   47697       3   47691   47625   47694       3   47682   47616
   47685       3   47682   47622   47688       3   47673   47601   47676       3
   47673   47607   47679       3   47667   47598   47670       3   47661   47595
   47664       3   47655   47592   47658       3   47649   47589   47652       3
   47643   47586   47646       3   47637   47583   47640       3   47631   47580
   47634       3   47625   47577   47628       3   47619   47574   47622       3
   47613   47571   47616       3   47607   47568   47610       3   47601   47565
   47604       3   47598   47667   47724       3   47595   47661   47721       3
   47592   47655   47715       3   47589   47649   47712       3   47586   47643
   47706       3   47583   47637   47703       3   47580   47631   47697       3
   47577   47625   47691       3   47574   47622   47688       3   47571   47616
   47685       3   47568   47607   47679       3   47565   47601   47676       3
   47559   47595   47664       3   47559   47598   47670       3   47556   47589
   47652       3   47556   47592   47658       3   47550   47583   47640       3
   47550   47586   47646       3   47547   47577   47628       3   47547   47580
   47634       3   47544   47571   47613       3   47544   47574   47619       3
   47541   47565   47604       3   47541   47568   47610       3   47535   47505
   47538       3   47526   47496   47529       3   47511   47475   47514       1
   47508   47475   47511       1   47508   47475   47514       1   47505   47535
   47562       3   47502   47535   47562       3   47499   47469   47502       3
   47496   47526   47553       3   47490   47463   47493       3   47490   47526
   47553       3   47484   47460   47487       3   47484   47478   47517       3
   47478   47457   47481       3   47472   47505   47538      11   47466   47496
   47529      11   47457   47478   47517       3   47454   47475   47508       2
   47454   47475   47511       2   47454   47475   47514       2   47451   47469
   47499       3   47448   47463   47493       3   47445   47460   47487       3
   47442   47457   47481      11   47433   47412   47436       3   47433   47418
   47439       3   47424   47406   47430      11   47418   47397   47421       3
   47412   47394   47415       3   47406   47391   47409       3   47400   47388
   47403       3   47397   47418   47439       3   47394   47412   47436       3
   47391   47406   47430       3   47385   47394   47415       3   47385   47397
   47421       3   47382   47388   47403       3   47382   47391   47409       3
   47370   47358   47373       3   47370   47364   47376       3   47364   47346
   47367       3   47358   47343   47361       3   47352   47340   47355       1
   47349   47340   47352       1   47349   47340   47355       1   47346   47364
   47376       3   47343   47358   47373       3   47337   47343   47361       3
   47337   47346   47367       3   47334   47340   47349       2   47334   47340
   47352       2   47334   47340   47355       2   48294   48243   48297       1
   48291   48243   48294       1   48291   48243   48297       1   48285   48240
   48288       1   48282   48240   48285       1   48282   48240   48288       1
   48276   48237   48279       1   48273   48237   48276       1   48273   48237
   48279       1   48267   48234   48270       1   48264   48234   48267       1
   48264   48234   48270       1   48258   48231   48261       1   48255   48231
   48258       1   48255   48231   48261       1   48249   48228   48252       1
   48246   48228   48249       1   48246   48228   48252       1   48225   48243
   48291       2   48225   48243   48294       2   48225   48243   48297       2
   48222   48240   48282       2   48222   48240   48285       2   48222   48240
   48288       2   48219   48237   48273       2   48219   48237   48276       2
   48219   48237   48279       2   48216   48234   48264       2   48216   48234
   48267       2   48216   48234   48270       2   48213   48231   48255       2
   48213   48231   48258       2   48213   48231   48261       2   48210   48228
   48246       2   48210   48228   48249       2   48210   48228   48252       2
   48201   48144   48204       3   48201   48150   48207       3   48192   48132
   48195       3   48192   48138   48198       3   48183   48120   48186       3
   48183   48126   48189       3   48177   48114   48180       3   48174   48108
   48177       3   48165   48099   48168       3   48165   48105   48171       3
   48156   48084   48159       3   48156   48090   48162       3   48150   48081
   48153       3   48144   48078   48147       3   48138   48075   48141       3
   48132   48072   48135       3   48126   48069   48129       3   48120   48066
   48123       3   48114   48063   48117       3   48108   48060   48111       3
   48102   48057   48105       3   48096   48054   48099       3   48090   48051
   48093       3   48084   48048   48087       3   48081   48150   48207       3
   48078   48144   48204       3   48075   48138   48198       3   48072   48132
   48195       3   48069   48126   48189       3   48066   48120   48186       3
   48063   48114   48180       3   48060   48108   48174       3   48057   48105
   48171       3   48054   48099   48168       3   48051   48090   48162       3
   48048   48084   48159       3   48042   48078   48147       3   48042   48081
   48153       3   48039   48072   48135       3   48039   48075   48141       3
   48033   48066   48123       3   48033   48069   48129       3   48030   48060
   48111       3   48030   48063   48117       3   48027   48054   48096       3
   48027   48057   48102       3   48024   48048   48087       3   48024   48051
   48093       3   48018   47988   48021       3   48009   47979   48012       3
   47994   47958   47997       1   47991   47958   47994       1   47991   47958
   47997       1   47988   48018   48045       3   47985   48018   48045       3
   47982   47952   47985       3   47979   48009   48036       3   47973   47946
   47976       3   47973   48009   48036       3   47967   47943   47970       3
   47967   47961   48000       3   47961   47940   47964       3   47955   47988
   48021      11   47949   47979   48012      11   47940   47961   48000       3
   47937   47958   47991       2   47937   47958   47994       2   47937   47958
   47997       2   47934   47952   47982       3   47931   47946   47976       3
   47928   47943   47970       3   47925   47940   47964      11   47916   47895
   47919       3   47916   47901   47922       3   47907   47889   47913      11
   47901   47880   47904       3   47895   47877   47898       3   47889   47874
   47892       3   47883   47871   47886       3   47880   47901   47922       3
   47877   47895   47919       3   47874   47889   47913       3   47868   47877
   47898       3   47868   47880   47904       3   47865   47871   47886       3
   47865   47874   47892       3   47853   47841   47856       3   47853   47847
   47859       3   47847   47829   47850       3   47841   47826   47844       3
   47835   47823   47838       1   47832   47823   47835       1   47832   47823
   47838       1   47829   47847   47859       3   47826   47841   47856       3
   47820   47826   47844       3   47820   47829   47850       3   47817   47823
   47832       2   47817   47823   47835       2   47817   47823   47838       2
   48777   48726   48780       1   48774   48726   48777       1   48774   48726
   48780       1   48768   48723   48771       1   48765   48723   48768       1
   48765   48723   48771       1   48759   48720   48762       1   48756   48720
   48759       1   48756   48720   48762       1   48750   48717   48753       1
   48747   48717   48750       1   48747   48717   48753       1   48741   48714
   48744       1   48738   48714   48741       1   48738   48714   48744       1
   48732   48711   48735       1   48729   48711   48732       1   48729   48711
   48735       1   48708   48726   48774       2   48708   48726   48777       2
   48708   48726   48780       2   48705   48723   48765       2   48705   48723
   48768       2   48705   48723   48771       2   48702   48720   48756       2
   48702   48720   48759       2   48702   48720   48762       2   48699   48717
   48747       2   48699   48717   48750       2   48699   48717   48753       2
   48696   48714   48738       2   48696   48714   48741       2   48696   48714
   48744       2   48693   48711   48729       2   48693   48711   48732       2
   48693   48711   48735       2   48684   48627   48687       3   48684   48633
   48690       3   48675   48615   48678       3   48675   48621   48681       3
   48666   48603   48669       3   48666   48609   48672       3   48660   48597
   48663       3   48657   48591   48660       3   48648   48582   48651       3
   48648   48588   48654       3   48639   48567   48642       3   48639   48573
   48645       3   48633   48564   48636       3   48627   48561   48630       3
   48621   48558   48624       3   48615   48555   48618       3   48609   48552
   48612       3   48603   48549   48606       3   48597   48546   48600       3
   48591   48543   48594       3   48585   48540   48588       3   48579   48537
   48582       3   48573   48534   48576       3   48567   48531   48570       3
   48564   48633   48690       3   48561   48627   48687       3   48558   48621
   48681       3   48555   48615   48678       3   48552   48609   48672       3
   48549   48603   48669       3   48546   48597   48663       3   48543   48591
   48657       3   48540   48588   48654       3   48537   48582   48651       3
   48534   48573   48645       3   48531   48567   48642       3   48525   48561
   48630       3   48525   48564   48636       3   48522   48555   48618       3
   48522   48558   48624       3   48516   48549   48606       3   48516   48552
   48612       3   48513   48543   48594       3   48513   48546   48600       3
   48510   48537   48579       3   48510   48540   48585       3   48507   48531
   48570       3   48507   48534   48576       3   48501   48471   48504       3
   48492   48462   48495       3   48477   48441   48480       1   48474   48441
   48477       1   48474   48441   48480       1   48471   48501   48528       3
   48468   48501   48528       3   48465   48435   48468       3   48462   48492
   48519       3   48456   48429   48459       3   48456   48492   48519       3
   48450   48426   48453       3   48450   48444   48483       3   48444   48423
   48447       3   48438   48471   48504      11   48432   48462   48495      11
   48423   48444   48483       3   48420   48441   48474       2   48420   48441
   48477       2   48420   48441   48480       2   48417   48435   48465       3
   48414   48429   48459       3   48411   48426   48453       3   48408   48423
   48447      11   48399   48378   48402       3   48399   48384   48405       3
   48390   48372   48396      11   48384   48363   48387       3   48378   48360
   48381       3   48372   48357   48375       3   48366   48354   48369       3
   48363   48384   48405       3   48360   48378   48402       3   48357   48372
   48396       3   48351   48360   48381       3   48351   48363   48387       3
   48348   48354   48369       3   48348   48357   48375       3   48336   48324
   48339       3   48336   48330   48342       3   48330   48312   48333       3
   48324   48309   48327       3   48318   48306   48321       1   48315   48306
   48318       1   48315   48306   48321       1   48312   48330   48342       3
   48309   48324   48339       3   48303   48309   48327       3   48303   48312
   48333       3   48300   48306   48315       2   48300   48306   48318       2
   48300   48306   48321       2   49260   49209   49263       1   49257   49209
   49260       1   49257   49209   49263       1   49251   49206   49254       1
   49248   49206   49251       1   49248   49206   49254       1   49242   49203
   49245       1   49239   49203   49242       1   49239   49203   49245       1
   49233   49200   49236       1   49230   49200   49233       1   49230   49200
   49236       1   49224   49197   49227       1   49221   49197   49224       1
   49221   49197   49227       1   49215   49194   49218       1   49212   49194
   49215       1   49212   49194   49218       1   49191   49209   49257       2
   49191   49209   49260       2   49191   49209   49263       2   49188   49206
   49248       2   49188   49206   49251       2   49188   49206   49254       2
   49185   49203   49239       2   49185   49203   49242       2   49185   49203
   49245       2   49182   49200   49230       2   49182   49200   49233       2
   49182   49200   49236       2   49179   49197   49221       2   49179   49197
   49224       2   49179   49197   49227       2   49176   49194   49212       2
   49176   49194   49215       2   49176   49194   49218       2   49167   49110
   49170       3   49167   49116   49173       3   49158   49098   49161       3
   49158   49104   49164       3   49149   49086   49152       3   49149   49092
   49155       3   49143   49080   49146       3   49140   49074   49143       3
   49131   49065   49134       3   49131   49071   49137       3   49122   49050
   49125       3   49122   49056   49128       3   49116   49047   49119       3
   49110   49044   49113       3   49104   49041   49107       3   49098   49038
   49101       3   49092   49035   49095       3   49086   49032   49089       3
   49080   49029   49083       3   49074   49026   49077       3   49068   49023
   49071       3   49062   49020   49065       3   49056   49017   49059       3
   49050   49014   49053       3   49047   49116   49173       3   49044   49110
   49170       3   49041   49104   49164       3   49038   49098   49161       3
   49035   49092   49155       3   49032   49086   49152       3   49029   49080
   49146       3   49026   49074   49140       3   49023   49071   49137       3
   49020   49065   49134       3   49017   49056   49128       3   49014   49050
   49125       3   49008   49044   49113       3   49008   49047   49119       3
   49005   49038   49101       3   49005   49041   49107       3   48999   49032
   49089       3   48999   49035   49095       3   48996   49026   49077       3
   48996   49029   49083       3   48993   49020   49062       3   48993   49023
   49068       3   48990   49014   49053       3   48990   49017   49059       3
   48984   48954   48987       3   48975   48945   48978       3   48960   48924
   48963       1   48957   48924   48960       1   48957   48924   48963       1
   48954   48984   49011       3   48951   48984   49011       3   48948   48918
   48951       3   48945   48975   49002       3   48939   48912   48942       3
   48939   48975   49002       3   48933   48909   48936       3   48933   48927
   48966       3   48927   48906   48930       3   48921   48954   48987      11
   48915   48945   48978      11   48906   48927   48966       3   48903   48924
   48957       2   48903   48924   48960       2   48903   48924   48963       2
   48900   48918   48948       3   48897   48912   48942       3   48894   48909
   48936       3   48891   48906   48930      11   48882   48861   48885       3
   48882   48867   48888       3   48873   48855   48879      11   48867   48846
   48870       3   48861   48843   48864       3   48855   48840   48858       3
   48849   48837   48852       3   48846   48867   48888       3   48843   48861
   48885       3   48840   48855   48879       3   48834   48843   48864       3
   48834   48846   48870       3   48831   48837   48852       3   48831   48840
   48858       3   48819   48807   48822       3   48819   48813   48825       3
   48813   48795   48816       3   48807   48792   48810       3   48801   48789
   48804       1   48798   48789   48801       1   48798   48789   48804       1
   48795   48813   48825       3   48792   48807   48822       3   48786   48792
   48810       3   48786   48795   48816       3   48783   48789   48798       2
   48783   48789   48801       2   48783   48789   48804       2   49743   49692
   49746       1   49740   49692   49743       1   49740   49692   49746       1
   49734   49689   49737       1   49731   49689   49734       1   49731   49689
   49737       1   49725   49686   49728       1   49722   49686   49725       1
   49722   49686   49728       1   49716   49683   49719       1   49713   49683
   49716       1   49713   49683   49719       1   49707   49680   49710       1
   49704   49680   49707       1   49704   49680   49710       1   49698   49677
   49701       1   49695   49677   49698       1   49695   49677   49701       1
   49674   49692   49740       2   49674   49692   49743       2   49674   49692
   49746       2   49671   49689   49731       2   49671   49689   49734       2
   49671   49689   49737       2   49668   49686   49722       2   49668   49686
   49725       2   49668   49686   49728       2   49665   49683   49713       2
   49665   49683   49716       2   49665   49683   49719       2   49662   49680
   49704       2   49662   49680   49707       2   49662   49680   49710       2
   49659   49677   49695       2   49659   49677   49698       2   49659   49677
   49701       2   49650   49593   49653       3   49650   49599   49656       3
   49641   49581   49644       3   49641   49587   49647       3   49632   49569
   49635       3   49632   49575   49638       3   49626   49563   49629       3
   49623   49557   49626       3   49614   49548   49617       3   49614   49554
   49620       3   49605   49533   49608       3   49605   49539   49611       3
   49599   49530   49602       3   49593   49527   49596       3   49587   49524
   49590       3   49581   49521   49584       3   49575   49518   49578       3
   49569   49515   49572       3   49563   49512   49566       3   49557   49509
   49560       3   49551   49506   49554       3   49545   49503   49548       3
   49539   49500   49542       3   49533   49497   49536       3   49530   49599
   49656       3   49527   49593   49653       3   49524   49587   49647       3
   49521   49581   49644       3   49518   49575   49638       3   49515   49569
   49635       3   49512   49563   49629       3   49509   49557   49623       3
   49506   49554   49620       3   49503   49548   49617       3   49500   49539
   49611       3   49497   49533   49608       3   49491   49527   49596       3
   49491   49530   49602       3   49488   49521   49584       3   49488   49524
   49590       3   49482   49515   49572       3   49482   49518   49578       3
   49479   49509   49560       3   49479   49512   49566       3   49476   49503
   49545       3   49476   49506   49551       3   49473   49497   49536       3
   49473   49500   49542       3   49467   49437   49470       3   49458   49428
   49461       3   49443   49407   49446       1   49440   49407   49443       1
   49440   49407   49446       1   49437   49467   49494       3   49434   49467
   49494       3   49431   49401   49434       3   49428   49458   49485       3
   49422   49395   49425       3   49422   49458   49485       3   49416   49392
   49419       3   49416   49410   49449       3   49410   49389   49413       3
   49404   49437   49470      11   49398   49428   49461      11   49389   49410
   49449       3   49386   49407   49440       2   49386   49407   49443       2
   49386   49407   49446       2   49383   49401   49431       3   49380   49395
   49425       3   49377   49392   49419       3   49374   49389   49413      11
   49365   49344   49368       3   49365   49350   49371       3   49356   49338
   49362      11   49350   49329   49353       3   49344   49326   49347       3
   49338   49323   49341       3   49332   49320   49335       3   49329   49350
   49371       3   49326   49344   49368       3   49323   49338   49362       3
   49317   49326   49347       3   49317   49329   49353       3   49314   49320
   49335       3   49314   49323   49341       3   49302   49290   49305       3
   49302   49296   49308       3   49296   49278   49299       3   49290   49275
   49293       3   49284   49272   49287       1   49281   49272   49284       1
   49281   49272   49287       1   49278   49296   49308       3   49275   49290
   49305       3   49269   49275   49293       3   49269   49278   49299       3
   49266   49272   49281       2   49266   49272   49284       2   49266   49272
   49287       2   50226   50175   50229       1   50223   50175   50226       1
   50223   50175   50229       1   50217   50172   50220       1   50214   50172
   50217       1   50214   50172   50220       1   50208   50169   50211       1
   50205   50169   50208       1   50205   50169   50211       1   50199   50166
   50202       1   50196   50166   50199       1   50196   50166   50202       1
   50190   50163   50193       1   50187   50163   50190       1   50187   50163
   50193       1   50181   50160   50184       1   50178   50160   50181       1
   50178   50160   50184       1   50157   50175   50223       2   50157   50175
   50226       2   50157   50175   50229       2   50154   50172   50214       2
   50154   50172   50217       2   50154   50172   50220       2   50151   50169
   50205       2   50151   50169   50208       2   50151   50169   50211       2
   50148   50166   50196       2   50148   50166   50199       2   50148   50166
   50202       2   50145   50163   50187       2   50145   50163   50190       2
   50145   50163   50193       2   50142   50160   50178       2   50142   50160
   50181       2   50142   50160   50184       2   50133   50076   50136       3
   50133   50082   50139       3   50124   50064   50127       3   50124   50070
   50130       3   50115   50052   50118       3   50115   50058   50121       3
   50109   50046   50112       3   50106   50040   50109       3   50097   50031
   50100       3   50097   50037   50103       3   50088   50016   50091       3
   50088   50022   50094       3   50082   50013   50085       3   50076   50010
   50079       3   50070   50007   50073       3   50064   50004   50067       3
   50058   50001   50061       3   50052   49998   50055       3   50046   49995
   50049       3   50040   49992   50043       3   50034   49989   50037       3
   50028   49986   50031       3   50022   49983   50025       3   50016   49980
   50019       3   50013   50082   50139       3   50010   50076   50136       3
   50007   50070   50130       3   50004   50064   50127       3   50001   50058
   50121       3   49998   50052   50118       3   49995   50046   50112       3
   49992   50040   50106       3   49989   50037   50103       3   49986   50031
   50100       3   49983   50022   50094       3   49980   50016   50091       3
   49974   50010   50079       3   49974   50013   50085       3   49971   50004
   50067       3   49971   50007   50073       3   49965   49998   50055       3
   49965   50001   50061       3   49962   49992   50043       3   49962   49995
   50049       3   49959   49986   50028       3   49959   49989   50034       3
   49956   49980   50019       3   49956   49983   50025       3   49950   49920
   49953       3   49941   49911   49944       3   49926   49890   49929       1
   49923   49890   49926       1   49923   49890   49929       1   49920   49950
   49977       3   49917   49950   49977       3   49914   49884   49917       3
   49911   49941   49968       3   49905   49878   49908       3   49905   49941
   49968       3   49899   49875   49902       3   49899   49893   49932       3
   49893   49872   49896       3   49887   49920   49953      11   49881   49911
   49944      11   49872   49893   49932       3   49869   49890   49923       2
   49869   49890   49926       2   49869   49890   49929       2   49866   49884
   49914       3   49863   49878   49908       3   49860   49875   49902       3
   49857   49872   49896      11   49848   49827   49851       3   49848   49833
   49854       3   49839   49821   49845      11   49833   49812   49836       3
   49827   49809   49830       3   49821   49806   49824       3   49815   49803
   49818       3   49812   49833   49854       3   49809   49827   49851       3
   49806   49821   49845       3   49800   49809   49830       3   49800   49812
   49836       3   49797   49803   49818       3   49797   49806   49824       3
   49785   49773   49788       3   49785   49779   49791       3   49779   49761
   49782       3   49773   49758   49776       3   49767   49755   49770       1
   49764   49755   49767       1   49764   49755   49770       1   49761   49779
   49791       3   49758   49773   49788       3   49752   49758   49776       3
   49752   49761   49782       3   49749   49755   49764       2   49749   49755
   49767       2   49749   49755   49770       2   50709   50658   50712       1
   50706   50658   50709       1   50706   50658   50712       1   50700   50655
   50703       1   50697   50655   50700       1   50697   50655   50703       1
   50691   50652   50694       1   50688   50652   50691       1   50688   50652
   50694       1   50682   50649   50685       1   50679   50649   50682       1
   50679   50649   50685       1   50673   50646   50676       1   50670   50646
   50673       1   50670   50646   50676       1   50664   50643   50667       1
   50661   50643   50664       1   50661   50643   50667       1   50640   50658
   50706       2   50640   50658   50709       2   50640   50658   50712       2
   50637   50655   50697       2   50637   50655   50700       2   50637   50655
   50703       2   50634   50652   50688       2   50634   50652   50691       2
   50634   50652   50694       2   50631   50649   50679       2   50631   50649
   50682       2   50631   50649   50685       2   50628   50646   50670       2
   50628   50646   50673       2   50628   50646   50676       2   50625   50643
   50661       2   50625   50643   50664       2   50625   50643   50667       2
   50616   50559   50619       3   50616   50565   50622       3   50607   50547
   50610       3   50607   50553   50613       3   50598   50535   50601       3
   50598   50541   50604       3   50592   50529   50595       3   50589   50523
   50592       3   50580   50514   50583       3   50580   50520   50586       3
   50571   50499   50574       3   50571   50505   50577       3   50565   50496
   50568       3   50559   50493   50562       3   50553   50490   50556       3
   50547   50487   50550       3   50541   50484   50544       3   50535   50481
   50538       3   50529   50478   50532       3   50523   50475   50526       3
   50517   50472   50520       3   50511   50469   50514       3   50505   50466
   50508       3   50499   50463   50502       3   50496   50565   50622       3
   50493   50559   50619       3   50490   50553   50613       3   50487   50547
   50610       3   50484   50541   50604       3   50481   50535   50601       3
   50478   50529   50595       3   50475   50523   50589       3   50472   50520
   50586       3   50469   50514   50583       3   50466   50505   50577       3
   50463   50499   50574       3   50457   50493   50562       3   50457   50496
   50568       3   50454   50487   50550       3   50454   50490   50556       3
   50448   50481   50538       3   50448   50484   50544       3   50445   50475
   50526       3   50445   50478   50532       3   50442   50469   50511       3
   50442   50472   50517       3   50439   50463   50502       3   50439   50466
   50508       3   50433   50403   50436       3   50424   50394   50427       3
   50409   50373   50412       1   50406   50373   50409       1   50406   50373
   50412       1   50403   50433   50460       3   50400   50433   50460       3
   50397   50367   50400       3   50394   50424   50451       3   50388   50361
   50391       3   50388   50424   50451       3   50382   50358   50385       3
   50382   50376   50415       3   50376   50355   50379       3   50370   50403
   50436      11   50364   50394   50427      11   50355   50376   50415       3
   50352   50373   50406       2   50352   50373   50409       2   50352   50373
   50412       2   50349   50367   50397       3   50346   50361   50391       3
   50343   50358   50385       3   50340   50355   50379      11   50331   50310
   50334       3   50331   50316   50337       3   50322   50304   50328      11
   50316   50295   50319       3   50310   50292   50313       3   50304   50289
   50307       3   50298   50286   50301       3   50295   50316   50337       3
   50292   50310   50334       3   50289   50304   50328       3   50283   50292
   50313       3   50283   50295   50319       3   50280   50286   50301       3
   50280   50289   50307       3   50268   50256   50271       3   50268   50262
   50274       3   50262   50244   50265       3   50256   50241   50259       3
   50250   50238   50253       1   50247   50238   50250       1   50247   50238
   50253       1   50244   50262   50274       3   50241   50256   50271       3
   50235   50241   50259       3   50235   50244   50265       3   50232   50238
   50247       2   50232   50238   50250       2   50232   50238   50253       2
   51192   51141   51195       1   51189   51141   51192       1   51189   51141
   51195       1   51183   51138   51186       1   51180   51138   51183       1
   51180   51138   51186       1   51174   51135   51177       1   51171   51135
   51174       1   51171   51135   51177       1   51165   51132   51168       1
   51162   51132   51165       1   51162   51132   51168       1   51156   51129
   51159       1   51153   51129   51156       1   51153   51129   51159       1
   51147   51126   51150       1   51144   51126   51147       1   51144   51126
   51150       1   51123   51141   51189       2   51123   51141   51192       2
   51123   51141   51195       2   51120   51138   51180       2   51120   51138
   51183       2   51120   51138   51186       2   51117   51135   51171       2
   51117   51135   51174       2   51117   51135   51177       2   51114   51132
   51162       2   51114   51132   51165       2   51114   51132   51168       2
   51111   51129   51153       2   51111   51129   51156       2   51111   51129
   51159       2   51108   51126   51144       2   51108   51126   51147       2
   51108   51126   51150       2   51099   51042   51102       3   51099   51048
   51105       3   51090   51030   51093       3   51090   51036   51096       3
   51081   51018   51084       3   51081   51024   51087       3   51075   51012
   51078       3   51072   51006   51075       3   51063   50997   51066       3
   51063   51003   51069       3   51054   50982   51057       3   51054   50988
   51060       3   51048   50979   51051       3   51042   50976   51045       3
   51036   50973   51039       3   51030   50970   51033       3   51024   50967
   51027       3   51018   50964   51021       3   51012   50961   51015       3
   51006   50958   51009       3   51000   50955   51003       3   50994   50952
   50997       3   50988   50949   50991       3   50982   50946   50985       3
   50979   51048   51105       3   50976   51042   51102       3   50973   51036
   51096       3   50970   51030   51093       3   50967   51024   51087       3
   50964   51018   51084       3   50961   51012   51078       3   50958   51006
   51072       3   50955   51003   51069       3   50952   50997   51066       3
   50949   50988   51060       3   50946   50982   51057       3   50940   50976
   51045       3   50940   50979   51051       3   50937   50970   51033       3
   50937   50973   51039       3   50931   50964   51021       3   50931   50967
   51027       3   50928   50958   51009       3   50928   50961   51015       3
   50925   50952   50994       3   50925   50955   51000       3   50922   50946
   50985       3   50922   50949   50991       3   50916   50886   50919       3
   50907   50877   50910       3   50892   50856   50895       1   50889   50856
   50892       1   50889   50856   50895       1   50886   50916   50943       3
   50883   50916   50943       3   50880   50850   50883       3   50877   50907
   50934       3   50871   50844   50874       3   50871   50907   50934       3
   50865   50841   50868       3   50865   50859   50898       3   50859   50838
   50862       3   50853   50886   50919      11   50847   50877   50910      11
   50838   50859   50898       3   50835   50856   50889       2   50835   50856
   50892       2   50835   50856   50895       2   50832   50850   50880       3
   50829   50844   50874       3   50826   50841   50868       3   50823   50838
   50862      11   50814   50793   50817       3   50814   50799   50820       3
   50805   50787   50811      11   50799   50778   50802       3   50793   50775
   50796       3   50787   50772   50790       3   50781   50769   50784       3
   50778   50799   50820       3   50775   50793   50817       3   50772   50787
   50811       3   50766   50775   50796       3   50766   50778   50802       3
   50763   50769   50784       3   50763   50772   50790       3   50751   50739
   50754       3   50751   50745   50757       3   50745   50727   50748       3
   50739   50724   50742       3   50733   50721   50736       1   50730   50721
   50733       1   50730   50721   50736       1   50727   50745   50757       3
   50724   50739   50754       3   50718   50724   50742       3   50718   50727
   50748       3   50715   50721   50730       2   50715   50721   50733       2
   50715   50721   50736       2   51675   51624   51678       1   51672   51624
   51675       1   51672   51624   51678       1   51666   51621   51669       1
   51663   51621   51666       1   51663   51621   51669       1   51657   51618
   51660       1   51654   51618   51657       1   51654   51618   51660       1
   51648   51615   51651       1   51645   51615   51648       1   51645   51615
   51651       1   51639   51612   51642       1   51636   51612   51639       1
   51636   51612   51642       1   51630   51609   51633       1   51627   51609
   51630       1   51627   51609   51633       1   51606   51624   51672       2
   51606   51624   51675       2   51606   51624   51678       2   51603   51621
   51663       2   51603   51621   51666       2   51603   51621   51669       2
   51600   51618   51654       2   51600   51618   51657       2   51600   51618
   51660       2   51597   51615   51645       2   51597   51615   51648       2
   51597   51615   51651       2   51594   51612   51636       2   51594   51612
   51639       2   51594   51612   51642       2   51591   51609   51627       2
   51591   51609   51630       2   51591   51609   51633       2   51582   51525
   51585       3   51582   51531   51588       3   51573   51513   51576       3
   51573   51519   51579       3   51564   51501   51567       3   51564   51507
   51570       3   51558   51495   51561       3   51555   51489   51558       3
   51546   51480   51549       3   51546   51486   51552       3   51537   51465
   51540       3   51537   51471   51543       3   51531   51462   51534       3
   51525   51459   51528       3   51519   51456   51522       3   51513   51453
   51516       3   51507   51450   51510       3   51501   51447   51504       3
   51495   51444   51498       3   51489   51441   51492       3   51483   51438
   51486       3   51477   51435   51480       3   51471   51432   51474       3
   51465   51429   51468       3   51462   51531   51588       3   51459   51525
   51585       3   51456   51519   51579       3   51453   51513   51576       3
   51450   51507   51570       3   51447   51501   51567       3   51444   51495
   51561       3   51441   51489   51555       3   51438   51486   51552       3
   51435   51480   51549       3   51432   51471   51543       3   51429   51465
   51540       3   51423   51459   51528       3   51423   51462   51534       3
   51420   51453   51516       3   51420   51456   51522       3   51414   51447
   51504       3   51414   51450   51510       3   51411   51441   51492       3
   51411   51444   51498       3   51408   51435   51477       3   51408   51438
   51483       3   51405   51429   51468       3   51405   51432   51474       3
   51399   51369   51402       3   51390   51360   51393       3   51375   51339
   51378       1   51372   51339   51375       1   51372   51339   51378       1
   51369   51399   51426       3   51366   51399   51426       3   51363   51333
   51366       3   51360   51390   51417       3   51354   51327   51357       3
   51354   51390   51417       3   51348   51324   51351       3   51348   51342
   51381       3   51342   51321   51345       3   51336   51369   51402      11
   51330   51360   51393      11   51321   51342   51381       3   51318   51339
   51372       2   51318   51339   51375       2   51318   51339   51378       2
   51315   51333   51363       3   51312   51327   51357       3   51309   51324
   51351       3   51306   51321   51345      11   51297   51276   51300       3
   51297   51282   51303       3   51288   51270   51294      11   51282   51261
   51285       3   51276   51258   51279       3   51270   51255   51273       3
   51264   51252   51267       3   51261   51282   51303       3   51258   51276
   51300       3   51255   51270   51294       3   51249   51258   51279       3
   51249   51261   51285       3   51246   51252   51267       3   51246   51255
   51273       3   51234   51222   51237       3   51234   51228   51240       3
   51228   51210   51231       3   51222   51207   51225       3   51216   51204
   51219       1   51213   51204   51216       1   51213   51204   51219       1
   51210   51228   51240       3   51207   51222   51237       3   51201   51207
   51225       3   51201   51210   51231       3   51198   51204   51213       2
   51198   51204   51216       2   51198   51204   51219       2   52158   52107
   52161       1   52155   52107   52158       1   52155   52107   52161       1
   52149   52104   52152       1   52146   52104   52149       1   52146   52104
   52152       1   52140   52101   52143       1   52137   52101   52140       1
   52137   52101   52143       1   52131   52098   52134       1   52128   52098
   52131       1   52128   52098   52134       1   52122   52095   52125       1
   52119   52095   52122       1   52119   52095   52125       1   52113   52092
   52116       1   52110   52092   52113       1   52110   52092   52116       1
   52089   52107   52155       2   52089   52107   52158       2   52089   52107
   52161       2   52086   52104   52146       2   52086   52104   52149       2
   52086   52104   52152       2   52083   52101   52137       2   52083   52101
   52140       2   52083   52101   52143       2   52080   52098   52128       2
   52080   52098   52131       2   52080   52098   52134       2   52077   52095
   52119       2   52077   52095   52122       2   52077   52095   52125       2
   52074   52092   52110       2   52074   52092   52113       2   52074   52092
   52116       2   52065   52008   52068       3   52065   52014   52071       3
   52056   51996   52059       3   52056   52002   52062       3   52047   51984
   52050       3   52047   51990   52053       3   52041   51978   52044       3
   52038   51972   52041       3   52029   51963   52032       3   52029   51969
   52035       3   52020   51948   52023       3   52020   51954   52026       3
   52014   51945   52017       3   52008   51942   52011       3   52002   51939
   52005       3   51996   51936   51999       3   51990   51933   51993       3
   51984   51930   51987       3   51978   51927   51981       3   51972   51924
   51975       3   51966   51921   51969       3   51960   51918   51963       3
   51954   51915   51957       3   51948   51912   51951       3   51945   52014
   52071       3   51942   52008   52068       3   51939   52002   52062       3
   51936   51996   52059       3   51933   51990   52053       3   51930   51984
   52050       3   51927   51978   52044       3   51924   51972   52038       3
   51921   51969   52035       3   51918   51963   52032       3   51915   51954
   52026       3   51912   51948   52023       3   51906   51942   52011       3
   51906   51945   52017       3   51903   51936   51999       3   51903   51939
   52005       3   51897   51930   51987       3   51897   51933   51993       3
   51894   51924   51975       3   51894   51927   51981       3   51891   51918
   51960       3   51891   51921   51966       3   51888   51912   51951       3
   51888   51915   51957       3   51882   51852   51885       3   51873   51843
   51876       3   51858   51822   51861       1   51855   51822   51858       1
   51855   51822   51861       1   51852   51882   51909       3   51849   51882
   51909       3   51846   51816   51849       3   51843   51873   51900       3
   51837   51810   51840       3   51837   51873   51900       3   51831   51807
   51834       3   51831   51825   51864       3   51825   51804   51828       3
   51819   51852   51885      11   51813   51843   51876      11   51804   51825
   51864       3   51801   51822   51855       2   51801   51822   51858       2
   51801   51822   51861       2   51798   51816   51846       3   51795   51810
   51840       3   51792   51807   51834       3   51789   51804   51828      11
   51780   51759   51783       3   51780   51765   51786       3   51771   51753
   51777      11   51765   51744   51768       3   51759   51741   51762       3
   51753   51738   51756       3   51747   51735   51750       3   51744   51765
   51786       3   51741   51759   51783       3   51738   51753   51777       3
   51732   51741   51762       3   51732   51744   51768       3   51729   51735
   51750       3   51729   51738   51756       3   51717   51705   51720       3
   51717   51711   51723       3   51711   51693   51714       3   51705   51690
   51708       3   51699   51687   51702       1   51696   51687   51699       1
   51696   51687   51702       1   51693   51711   51723       3   51690   51705
   51720       3   51684   51690   51708       3   51684   51693   51714       3
   51681   51687   51696       2   51681   51687   51699       2   51681   51687
   51702       2   52641   52590   52644       1   52638   52590   52641       1
   52638   52590   52644       1   52632   52587   52635       1   52629   52587
   52632       1   52629   52587   52635       1   52623   52584   52626       1
   52620   52584   52623       1   52620   52584   52626       1   52614   52581
   52617       1   52611   52581   52614       1   52611   52581   52617       1
   52605   52578   52608       1   52602   52578   52605       1   52602   52578
   52608       1   52596   52575   52599       1   52593   52575   52596       1
   52593   52575   52599       1   52572   52590   52638       2   52572   52590
   52641       2   52572   52590   52644       2   52569   52587   52629       2
   52569   52587   52632       2   52569   52587   52635       2   52566   52584
   52620       2   52566   52584   52623       2   52566   52584   52626       2
   52563   52581   52611       2   52563   52581   52614       2   52563   52581
   52617       2   52560   52578   52602       2   52560   52578   52605       2
   52560   52578   52608       2   52557   52575   52593       2   52557   52575
   52596       2   52557   52575   52599       2   52548   52491   52551       3
   52548   52497   52554       3   52539   52479   52542       3   52539   52485
   52545       3   52530   52467   52533       3   52530   52473   52536       3
   52524   52461   52527       3   52521   52455   52524       3   52512   52446
   52515       3   52512   52452   52518       3   52503   52431   52506       3
   52503   52437   52509       3   52497   52428   52500       3   52491   52425
   52494       3   52485   52422   52488       3   52479   52419   52482       3
   52473   52416   52476       3   52467   52413   52470       3   52461   52410
   52464       3   52455   52407   52458       3   52449   52404   52452       3
   52443   52401   52446       3   52437   52398   52440       3   52431   52395
   52434       3   52428   52497   52554       3   52425   52491   52551       3
   52422   52485   52545       3   52419   52479   52542       3   52416   52473
   52536       3   52413   52467   52533       3   52410   52461   52527       3
   52407   52455   52521       3   52404   52452   52518       3   52401   52446
   52515       3   52398   52437   52509       3   52395   52431   52506       3
   52389   52425   52494       3   52389   52428   52500       3   52386   52419
   52482       3   52386   52422   52488       3   52380   52413   52470       3
   52380   52416   52476       3   52377   52407   52458       3   52377   52410
   52464       3   52374   52401   52443       3   52374   52404   52449       3
   52371   52395   52434       3   52371   52398   52440       3   52365   52335
   52368       3   52356   52326   52359       3   52341   52305   52344       1
   52338   52305   52341       1   52338   52305   52344       1   52335   52365
   52392       3   52332   52365   52392       3   52329   52299   52332       3
   52326   52356   52383       3   52320   52293   52323       3   52320   52356
   52383       3   52314   52290   52317       3   52314   52308   52347       3
   52308   52287   52311       3   52302   52335   52368      11   52296   52326
   52359      11   52287   52308   52347       3   52284   52305   52338       2
   52284   52305   52341       2   52284   52305   52344       2   52281   52299
   52329       3   52278   52293   52323       3   52275   52290   52317       3
   52272   52287   52311      11   52263   52242   52266       3   52263   52248
   52269       3   52254   52236   52260      11   52248   52227   52251       3
   52242   52224   52245       3   52236   52221   52239       3   52230   52218
   52233       3   52227   52248   52269       3   52224   52242   52266       3
   52221   52236   52260       3   52215   52224   52245       3   52215   52227
   52251       3   52212   52218   52233       3   52212   52221   52239       3
   52200   52188   52203       3   52200   52194   52206       3   52194   52176
   52197       3   52188   52173   52191       3   52182   52170   52185       1
   52179   52170   52182       1   52179   52170   52185       1   52176   52194
   52206       3   52173   52188   52203       3   52167   52173   52191       3
   52167   52176   52197       3   52164   52170   52179       2   52164   52170
   52182       2   52164   52170   52185       2   53124   53073   53127       1
   53121   53073   53124       1   53121   53073   53127       1   53115   53070
   53118       1   53112   53070   53115       1   53112   53070   53118       1
   53106   53067   53109       1   53103   53067   53106       1   53103   53067
   53109       1   53097   53064   53100       1   53094   53064   53097       1
   53094   53064   53100       1   53088   53061   53091       1   53085   53061
   53088       1   53085   53061   53091       1   53079   53058   53082       1
   53076   53058   53079       1   53076   53058   53082       1   53055   53073
   53121       2   53055   53073   53124       2   53055   53073   53127       2
   53052   53070   53112       2   53052   53070   53115       2   53052   53070
   53118       2   53049   53067   53103       2   53049   53067   53106       2
   53049   53067   53109       2   53046   53064   53094       2   53046   53064
   53097       2   53046   53064   53100       2   53043   53061   53085       2
   53043   53061   53088       2   53043   53061   53091       2   53040   53058
   53076       2   53040   53058   53079       2   53040   53058   53082       2
   53031   52974   53034       3   53031   52980   53037       3   53022   52962
   53025       3   53022   52968   53028       3   53013   52950   53016       3
   53013   52956   53019       3   53007   52944   53010       3   53004   52938
   53007       3   52995   52929   52998       3   52995   52935   53001       3
   52986   52914   52989       3   52986   52920   52992       3   52980   52911
   52983       3   52974   52908   52977       3   52968   52905   52971       3
   52962   52902   52965       3   52956   52899   52959       3   52950   52896
   52953       3   52944   52893   52947       3   52938   52890   52941       3
   52932   52887   52935       3   52926   52884   52929       3   52920   52881
   52923       3   52914   52878   52917       3   52911   52980   53037       3
   52908   52974   53034       3   52905   52968   53028       3   52902   52962
   53025       3   52899   52956   53019       3   52896   52950   53016       3
   52893   52944   53010       3   52890   52938   53004       3   52887   52935
   53001       3   52884   52929   52998       3   52881   52920   52992       3
   52878   52914   52989       3   52872   52908   52977       3   52872   52911
   52983       3   52869   52902   52965       3   52869   52905   52971       3
   52863   52896   52953       3   52863   52899   52959       3   52860   52890
   52941       3   52860   52893   52947       3   52857   52884   52926       3
   52857   52887   52932       3   52854   52878   52917       3   52854   52881
   52923       3   52848   52818   52851       3   52839   52809   52842       3
   52824   52788   52827       1   52821   52788   52824       1   52821   52788
   52827       1   52818   52848   52875       3   52815   52848   52875       3
   52812   52782   52815       3   52809   52839   52866       3   52803   52776
   52806       3   52803   52839   52866       3   52797   52773   52800       3
   52797   52791   52830       3   52791   52770   52794       3   52785   52818
   52851      11   52779   52809   52842      11   52770   52791   52830       3
   52767   52788   52821       2   52767   52788   52824       2   52767   52788
   52827       2   52764   52782   52812       3   52761   52776   52806       3
   52758   52773   52800       3   52755   52770   52794      11   52746   52725
   52749       3   52746   52731   52752       3   52737   52719   52743      11
   52731   52710   52734       3   52725   52707   52728       3   52719   52704
   52722       3   52713   52701   52716       3   52710   52731   52752       3
   52707   52725   52749       3   52704   52719   52743       3   52698   52707
   52728       3   52698   52710   52734       3   52695   52701   52716       3
   52695   52704   52722       3   52683   52671   52686       3   52683   52677
   52689       3   52677   52659   52680       3   52671   52656   52674       3
   52665   52653   52668       1   52662   52653   52665       1   52662   52653
   52668       1   52659   52677   52689       3   52656   52671   52686       3
   52650   52656   52674       3   52650   52659   52680       3   52647   52653
   52662       2   52647   52653   52665       2   52647   52653   52668       2
   53607   53556   53610       1   53604   53556   53607       1   53604   53556
   53610       1   53598   53553   53601       1   53595   53553   53598       1
   53595   53553   53601       1   53589   53550   53592       1   53586   53550
   53589       1   53586   53550   53592       1   53580   53547   53583       1
   53577   53547   53580       1   53577   53547   53583       1   53571   53544
   53574       1   53568   53544   53571       1   53568   53544   53574       1
   53562   53541   53565       1   53559   53541   53562       1   53559   53541
   53565       1   53538   53556   53604       2   53538   53556   53607       2
   53538   53556   53610       2   53535   53553   53595       2   53535   53553
   53598       2   53535   53553   53601       2   53532   53550   53586       2
   53532   53550   53589       2   53532   53550   53592       2   53529   53547
   53577       2   53529   53547   53580       2   53529   53547   53583       2
   53526   53544   53568       2   53526   53544   53571       2   53526   53544
   53574       2   53523   53541   53559       2   53523   53541   53562       2
   53523   53541   53565       2   53514   53457   53517       3   53514   53463
   53520       3   53505   53445   53508       3   53505   53451   53511       3
   53496   53433   53499       3   53496   53439   53502       3   53490   53427
   53493       3   53487   53421   53490       3   53478   53412   53481       3
   53478   53418   53484       3   53469   53397   53472       3   53469   53403
   53475       3   53463   53394   53466       3   53457   53391   53460       3
   53451   53388   53454       3   53445   53385   53448       3   53439   53382
   53442       3   53433   53379   53436       3   53427   53376   53430       3
   53421   53373   53424       3   53415   53370   53418       3   53409   53367
   53412       3   53403   53364   53406       3   53397   53361   53400       3
   53394   53463   53520       3   53391   53457   53517       3   53388   53451
   53511       3   53385   53445   53508       3   53382   53439   53502       3
   53379   53433   53499       3   53376   53427   53493       3   53373   53421
   53487       3   53370   53418   53484       3   53367   53412   53481       3
   53364   53403   53475       3   53361   53397   53472       3   53355   53391
   53460       3   53355   53394   53466       3   53352   53385   53448       3
   53352   53388   53454       3   53346   53379   53436       3   53346   53382
   53442       3   53343   53373   53424       3   53343   53376   53430       3
   53340   53367   53409       3   53340   53370   53415       3   53337   53361
   53400       3   53337   53364   53406       3   53331   53301   53334       3
   53322   53292   53325       3   53307   53271   53310       1   53304   53271
   53307       1   53304   53271   53310       1   53301   53331   53358       3
   53298   53331   53358       3   53295   53265   53298       3   53292   53322
   53349       3   53286   53259   53289       3   53286   53322   53349       3
   53280   53256   53283       3   53280   53274   53313       3   53274   53253
   53277       3   53268   53301   53334      11   53262   53292   53325      11
   53253   53274   53313       3   53250   53271   53304       2   53250   53271
   53307       2   53250   53271   53310       2   53247   53265   53295       3
   53244   53259   53289       3   53241   53256   53283       3   53238   53253
   53277      11   53229   53208   53232       3   53229   53214   53235       3
   53220   53202   53226      11   53214   53193   53217       3   53208   53190
   53211       3   53202   53187   53205       3   53196   53184   53199       3
   53193   53214   53235       3   53190   53208   53232       3   53187   53202
   53226       3   53181   53190   53211       3   53181   53193   53217       3
   53178   53184   53199       3   53178   53187   53205       3   53166   53154
   53169       3   53166   53160   53172       3   53160   53142   53163       3
   53154   53139   53157       3   53148   53136   53151       1   53145   53136
   53148       1   53145   53136   53151       1   53142   53160   53172       3
   53139   53154   53169       3   53133   53139   53157       3   53133   53142
   53163       3   53130   53136   53145       2   53130   53136   53148       2
   53130   53136   53151       2   54090   54039   54093       1   54087   54039
   54090       1   54087   54039   54093       1   54081   54036   54084       1
   54078   54036   54081       1   54078   54036   54084       1   54072   54033
   54075       1   54069   54033   54072       1   54069   54033   54075       1
   54063   54030   54066       1   54060   54030   54063       1   54060   54030
   54066       1   54054   54027   54057       1   54051   54027   54054       1
   54051   54027   54057       1   54045   54024   54048       1   54042   54024
   54045       1   54042   54024   54048       1   54021   54039   54087       2
   54021   54039   54090       2   54021   54039   54093       2   54018   54036
   54078       2   54018   54036   54081       2   54018   54036   54084       2
   54015   54033   54069       2   54015   54033   54072       2   54015   54033
   54075       2   54012   54030   54060       2   54012   54030   54063       2
   54012   54030   54066       2   54009   54027   54051       2   54009   54027
   54054       2   54009   54027   54057       2   54006   54024   54042       2
   54006   54024   54045       2   54006   54024   54048       2   53997   53940
   54000       3   53997   53946   54003       3   53988   53928   53991       3
   53988   53934   53994       3   53979   53916   53982       3   53979   53922
   53985       3   53973   53910   53976       3   53970   53904   53973       3
   53961   53895   53964       3   53961   53901   53967       3   53952   53880
   53955       3   53952   53886   53958       3   53946   53877   53949       3
   53940   53874   53943       3   53934   53871   53937       3   53928   53868
   53931       3   53922   53865   53925       3   53916   53862   53919       3
   53910   53859   53913       3   53904   53856   53907       3   53898   53853
   53901       3   53892   53850   53895       3   53886   53847   53889       3
   53880   53844   53883       3   53877   53946   54003       3   53874   53940
   54000       3   53871   53934   53994       3   53868   53928   53991       3
   53865   53922   53985       3   53862   53916   53982       3   53859   53910
   53976       3   53856   53904   53970       3   53853   53901   53967       3
   53850   53895   53964       3   53847   53886   53958       3   53844   53880
   53955       3   53838   53874   53943       3   53838   53877   53949       3
   53835   53868   53931       3   53835   53871   53937       3   53829   53862
   53919       3   53829   53865   53925       3   53826   53856   53907       3
   53826   53859   53913       3   53823   53850   53892       3   53823   53853
   53898       3   53820   53844   53883       3   53820   53847   53889       3
   53814   53784   53817       3   53805   53775   53808       3   53790   53754
   53793       1   53787   53754   53790       1   53787   53754   53793       1
   53784   53814   53841       3   53781   53814   53841       3   53778   53748
   53781       3   53775   53805   53832       3   53769   53742   53772       3
   53769   53805   53832       3   53763   53739   53766       3   53763   53757
   53796       3   53757   53736   53760       3   53751   53784   53817      11
   53745   53775   53808      11   53736   53757   53796       3   53733   53754
   53787       2   53733   53754   53790       2   53733   53754   53793       2
   53730   53748   53778       3   53727   53742   53772       3   53724   53739
   53766       3   53721   53736   53760      11   53712   53691   53715       3
   53712   53697   53718       3   53703   53685   53709      11   53697   53676
   53700       3   53691   53673   53694       3   53685   53670   53688       3
   53679   53667   53682       3   53676   53697   53718       3   53673   53691
   53715       3   53670   53685   53709       3   53664   53673   53694       3
   53664   53676   53700       3   53661   53667   53682       3   53661   53670
   53688       3   53649   53637   53652       3   53649   53643   53655       3
   53643   53625   53646       3   53637   53622   53640       3   53631   53619
   53634       1   53628   53619   53631       1   53628   53619   53634       1
   53625   53643   53655       3   53622   53637   53652       3   53616   53622
   53640       3   53616   53625   53646       3   53613   53619   53628       2
   53613   53619   53631       2   53613   53619   53634       2   54573   54522
   54576       1   54570   54522   54573       1   54570   54522   54576       1
   54564   54519   54567       1   54561   54519   54564       1   54561   54519
   54567       1   54555   54516   54558       1   54552   54516   54555       1
   54552   54516   54558       1   54546   54513   54549       1   54543   54513
   54546       1   54543   54513   54549       1   54537   54510   54540       1
   54534   54510   54537       1   54534   54510   54540       1   54528   54507
   54531       1   54525   54507   54528       1   54525   54507   54531       1
   54504   54522   54570       2   54504   54522   54573       2   54504   54522
   54576       2   54501   54519   54561       2   54501   54519   54564       2
   54501   54519   54567       2   54498   54516   54552       2   54498   54516
   54555       2   54498   54516   54558       2   54495   54513   54543       2
   54495   54513   54546       2   54495   54513   54549       2   54492   54510
   54534       2   54492   54510   54537       2   54492   54510   54540       2
   54489   54507   54525       2   54489   54507   54528       2   54489   54507
   54531       2   54480   54423   54483       3   54480   54429   54486       3
   54471   54411   54474       3   54471   54417   54477       3   54462   54399
   54465       3   54462   54405   54468       3   54456   54393   54459       3
   54453   54387   54456       3   54444   54378   54447       3   54444   54384
   54450       3   54435   54363   54438       3   54435   54369   54441       3
   54429   54360   54432       3   54423   54357   54426       3   54417   54354
   54420       3   54411   54351   54414       3   54405   54348   54408       3
   54399   54345   54402       3   54393   54342   54396       3   54387   54339
   54390       3   54381   54336   54384       3   54375   54333   54378       3
   54369   54330   54372       3   54363   54327   54366       3   54360   54429
   54486       3   54357   54423   54483       3   54354   54417   54477       3
   54351   54411   54474       3   54348   54405   54468       3   54345   54399
   54465       3   54342   54393   54459       3   54339   54387   54453       3
   54336   54384   54450       3   54333   54378   54447       3   54330   54369
   54441       3   54327   54363   54438       3   54321   54357   54426       3
   54321   54360   54432       3   54318   54351   54414       3   54318   54354
   54420       3   54312   54345   54402       3   54312   54348   54408       3
   54309   54339   54390       3   54309   54342   54396       3   54306   54333
   54375       3   54306   54336   54381       3   54303   54327   54366       3
   54303   54330   54372       3   54297   54267   54300       3   54288   54258
   54291       3   54273   54237   54276       1   54270   54237   54273       1
   54270   54237   54276       1   54267   54297   54324       3   54264   54297
   54324       3   54261   54231   54264       3   54258   54288   54315       3
   54252   54225   54255       3   54252   54288   54315       3   54246   54222
   54249       3   54246   54240   54279       3   54240   54219   54243       3
   54234   54267   54300      11   54228   54258   54291      11   54219   54240
   54279       3   54216   54237   54270       2   54216   54237   54273       2
   54216   54237   54276       2   54213   54231   54261       3   54210   54225
   54255       3   54207   54222   54249       3   54204   54219   54243      11
   54195   54174   54198       3   54195   54180   54201       3   54186   54168
   54192      11   54180   54159   54183       3   54174   54156   54177       3
   54168   54153   54171       3   54162   54150   54165       3   54159   54180
   54201       3   54156   54174   54198       3   54153   54168   54192       3
   54147   54156   54177       3   54147   54159   54183       3   54144   54150
   54165       3   54144   54153   54171       3   54132   54120   54135       3
   54132   54126   54138       3   54126   54108   54129       3   54120   54105
   54123       3   54114   54102   54117       1   54111   54102   54114       1
   54111   54102   54117       1   54108   54126   54138       3   54105   54120
   54135       3   54099   54105   54123       3   54099   54108   54129       3
   54096   54102   54111       2   54096   54102   54114       2   54096   54102
   54117       2   55056   55005   55059       1   55053   55005   55056       1
   55053   55005   55059       1   55047   55002   55050       1   55044   55002
   55047       1   55044   55002   55050       1   55038   54999   55041       1
   55035   54999   55038       1   55035   54999   55041       1   55029   54996
   55032       1   55026   54996   55029       1   55026   54996   55032       1
   55020   54993   55023       1   55017   54993   55020       1   55017   54993
   55023       1   55011   54990   55014       1   55008   54990   55011       1
   55008   54990   55014       1   54987   55005   55053       2   54987   55005
   55056       2   54987   55005   55059       2   54984   55002   55044       2
   54984   55002   55047       2   54984   55002   55050       2   54981   54999
   55035       2   54981   54999   55038       2   54981   54999   55041       2
   54978   54996   55026       2   54978   54996   55029       2   54978   54996
   55032       2   54975   54993   55017       2   54975   54993   55020       2
   54975   54993   55023       2   54972   54990   55008       2   54972   54990
   55011       2   54972   54990   55014       2   54963   54906   54966       3
   54963   54912   54969       3   54954   54894   54957       3   54954   54900
   54960       3   54945   54882   54948       3   54945   54888   54951       3
   54939   54876   54942       3   54936   54870   54939       3   54927   54861
   54930       3   54927   54867   54933       3   54918   54846   54921       3
   54918   54852   54924       3   54912   54843   54915       3   54906   54840
   54909       3   54900   54837   54903       3   54894   54834   54897       3
   54888   54831   54891       3   54882   54828   54885       3   54876   54825
   54879       3   54870   54822   54873       3   54864   54819   54867       3
   54858   54816   54861       3   54852   54813   54855       3   54846   54810
   54849       3   54843   54912   54969       3   54840   54906   54966       3
   54837   54900   54960       3   54834   54894   54957       3   54831   54888
   54951       3   54828   54882   54948       3   54825   54876   54942       3
   54822   54870   54936       3   54819   54867   54933       3   54816   54861
   54930       3   54813   54852   54924       3   54810   54846   54921       3
   54804   54840   54909       3   54804   54843   54915       3   54801   54834
   54897       3   54801   54837   54903       3   54795   54828   54885       3
   54795   54831   54891       3   54792   54822   54873       3   54792   54825
   54879       3   54789   54816   54858       3   54789   54819   54864       3
   54786   54810   54849       3   54786   54813   54855       3   54780   54750
   54783       3   54771   54741   54774       3   54756   54720   54759       1
   54753   54720   54756       1   54753   54720   54759       1   54750   54780
   54807       3   54747   54780   54807       3   54744   54714   54747       3
   54741   54771   54798       3   54735   54708   54738       3   54735   54771
   54798       3   54729   54705   54732       3   54729   54723   54762       3
   54723   54702   54726       3   54717   54750   54783      11   54711   54741
   54774      11   54702   54723   54762       3   54699   54720   54753       2
   54699   54720   54756       2   54699   54720   54759       2   54696   54714
   54744       3   54693   54708   54738       3   54690   54705   54732       3
   54687   54702   54726      11   54678   54657   54681       3   54678   54663
   54684       3   54669   54651   54675      11   54663   54642   54666       3
   54657   54639   54660       3   54651   54636   54654       3   54645   54633
   54648       3   54642   54663   54684       3   54639   54657   54681       3
   54636   54651   54675       3   54630   54639   54660       3   54630   54642
   54666       3   54627   54633   54648       3   54627   54636   54654       3
   54615   54603   54618       3   54615   54609   54621       3   54609   54591
   54612       3   54603   54588   54606       3   54597   54585   54600       1
   54594   54585   54597       1   54594   54585   54600       1   54591   54609
   54621       3   54588   54603   54618       3   54582   54588   54606       3
   54582   54591   54612       3   54579   54585   54594       2   54579   54585
   54597       2   54579   54585   54600       2   55539   55488   55542       1
   55536   55488   55539       1   55536   55488   55542       1   55530   55485
   55533       1   55527   55485   55530       1   55527   55485   55533       1
   55521   55482   55524       1   55518   55482   55521       1   55518   55482
   55524       1   55512   55479   55515       1   55509   55479   55512       1
   55509   55479   55515       1   55503   55476   55506       1   55500   55476
   55503       1   55500   55476   55506       1   55494   55473   55497       1
   55491   55473   55494       1   55491   55473   55497       1   55470   55488
   55536       2   55470   55488   55539       2   55470   55488   55542       2
   55467   55485   55527       2   55467   55485   55530       2   55467   55485
   55533       2   55464   55482   55518       2   55464   55482   55521       2
   55464   55482   55524       2   55461   55479   55509       2   55461   55479
   55512       2   55461   55479   55515       2   55458   55476   55500       2
   55458   55476   55503       2   55458   55476   55506       2   55455   55473
   55491       2   55455   55473   55494       2   55455   55473   55497       2
   55446   55389   55449       3   55446   55395   55452       3   55437   55377
   55440       3   55437   55383   55443       3   55428   55365   55431       3
   55428   55371   55434       3   55422   55359   55425       3   55419   55353
   55422       3   55410   55344   55413       3   55410   55350   55416       3
   55401   55329   55404       3   55401   55335   55407       3   55395   55326
   55398       3   55389   55323   55392       3   55383   55320   55386       3
   55377   55317   55380       3   55371   55314   55374       3   55365   55311
   55368       3   55359   55308   55362       3   55353   55305   55356       3
   55347   55302   55350       3   55341   55299   55344       3   55335   55296
   55338       3   55329   55293   55332       3   55326   55395   55452       3
   55323   55389   55449       3   55320   55383   55443       3   55317   55377
   55440       3   55314   55371   55434       3   55311   55365   55431       3
   55308   55359   55425       3   55305   55353   55419       3   55302   55350
   55416       3   55299   55344   55413       3   55296   55335   55407       3
   55293   55329   55404       3   55287   55323   55392       3   55287   55326
   55398       3   55284   55317   55380       3   55284   55320   55386       3
   55278   55311   55368       3   55278   55314   55374       3   55275   55305
   55356       3   55275   55308   55362       3   55272   55299   55341       3
   55272   55302   55347       3   55269   55293   55332       3   55269   55296
   55338       3   55263   55233   55266       3   55254   55224   55257       3
   55239   55203   55242       1   55236   55203   55239       1   55236   55203
   55242       1   55233   55263   55290       3   55230   55263   55290       3
   55227   55197   55230       3   55224   55254   55281       3   55218   55191
   55221       3   55218   55254   55281       3   55212   55188   55215       3
   55212   55206   55245       3   55206   55185   55209       3   55200   55233
   55266      11   55194   55224   55257      11   55185   55206   55245       3
   55182   55203   55236       2   55182   55203   55239       2   55182   55203
   55242       2   55179   55197   55227       3   55176   55191   55221       3
   55173   55188   55215       3   55170   55185   55209      11   55161   55140
   55164       3   55161   55146   55167       3   55152   55134   55158      11
   55146   55125   55149       3   55140   55122   55143       3   55134   55119
   55137       3   55128   55116   55131       3   55125   55146   55167       3
   55122   55140   55164       3   55119   55134   55158       3   55113   55122
   55143       3   55113   55125   55149       3   55110   55116   55131       3
   55110   55119   55137       3   55098   55086   55101       3   55098   55092
   55104       3   55092   55074   55095       3   55086   55071   55089       3
   55080   55068   55083       1   55077   55068   55080       1   55077   55068
   55083       1   55074   55092   55104       3   55071   55086   55101       3
   55065   55071   55089       3   55065   55074   55095       3   55062   55068
   55077       2   55062   55068   55080       2   55062   55068   55083       2
   56022   55971   56025       1   56019   55971   56022       1   56019   55971
   56025       1   56013   55968   56016       1   56010   55968   56013       1
   56010   55968   56016       1   56004   55965   56007       1   56001   55965
   56004       1   56001   55965   56007       1   55995   55962   55998       1
   55992   55962   55995       1   55992   55962   55998       1   55986   55959
   55989       1   55983   55959   55986       1   55983   55959   55989       1
   55977   55956   55980       1   55974   55956   55977       1   55974   55956
   55980       1   55953   55971   56019       2   55953   55971   56022       2
   55953   55971   56025       2   55950   55968   56010       2   55950   55968
   56013       2   55950   55968   56016       2   55947   55965   56001       2
   55947   55965   56004       2   55947   55965   56007       2   55944   55962
   55992       2   55944   55962   55995       2   55944   55962   55998       2
   55941   55959   55983       2   55941   55959   55986       2   55941   55959
   55989       2   55938   55956   55974       2   55938   55956   55977       2
   55938   55956   55980       2   55929   55872   55932       3   55929   55878
   55935       3   55920   55860   55923       3   55920   55866   55926       3
   55911   55848   55914       3   55911   55854   55917       3   55905   55842
   55908       3   55902   55836   55905       3   55893   55827   55896       3
   55893   55833   55899       3   55884   55812   55887       3   55884   55818
   55890       3   55878   55809   55881       3   55872   55806   55875       3
   55866   55803   55869       3   55860   55800   55863       3   55854   55797
   55857       3   55848   55794   55851       3   55842   55791   55845       3
   55836   55788   55839       3   55830   55785   55833       3   55824   55782
   55827       3   55818   55779   55821       3   55812   55776   55815       3
   55809   55878   55935       3   55806   55872   55932       3   55803   55866
   55926       3   55800   55860   55923       3   55797   55854   55917       3
   55794   55848   55914       3   55791   55842   55908       3   55788   55836
   55902       3   55785   55833   55899       3   55782   55827   55896       3
   55779   55818   55890       3   55776   55812   55887       3   55770   55806
   55875       3   55770   55809   55881       3   55767   55800   55863       3
   55767   55803   55869       3   55761   55794   55851       3   55761   55797
   55857       3   55758   55788   55839       3   55758   55791   55845       3
   55755   55782   55824       3   55755   55785   55830       3   55752   55776
   55815       3   55752   55779   55821       3   55746   55716   55749       3
   55737   55707   55740       3   55722   55686   55725       1   55719   55686
   55722       1   55719   55686   55725       1   55716   55746   55773       3
   55713   55746   55773       3   55710   55680   55713       3   55707   55737
   55764       3   55701   55674   55704       3   55701   55737   55764       3
   55695   55671   55698       3   55695   55689   55728       3   55689   55668
   55692       3   55683   55716   55749      11   55677   55707   55740      11
   55668   55689   55728       3   55665   55686   55719       2   55665   55686
   55722       2   55665   55686   55725       2   55662   55680   55710       3
   55659   55674   55704       3   55656   55671   55698       3   55653   55668
   55692      11   55644   55623   55647       3   55644   55629   55650       3
   55635   55617   55641      11   55629   55608   55632       3   55623   55605
   55626       3   55617   55602   55620       3   55611   55599   55614       3
   55608   55629   55650       3   55605   55623   55647       3   55602   55617
   55641       3   55596   55605   55626       3   55596   55608   55632       3
   55593   55599   55614       3   55593   55602   55620       3   55581   55569
   55584       3   55581   55575   55587       3   55575   55557   55578       3
   55569   55554   55572       3   55563   55551   55566       1   55560   55551
   55563       1   55560   55551   55566       1   55557   55575   55587       3
   55554   55569   55584       3   55548   55554   55572       3   55548   55557
   55578       3   55545   55551   55560       2   55545   55551   55563       2
   55545   55551   55566       2   56505   56454   56508       1   56502   56454
   56505       1   56502   56454   56508       1   56496   56451   56499       1
   56493   56451   56496       1   56493   56451   56499       1   56487   56448
   56490       1   56484   56448   56487       1   56484   56448   56490       1
   56478   56445   56481       1   56475   56445   56478       1   56475   56445
   56481       1   56469   56442   56472       1   56466   56442   56469       1
   56466   56442   56472       1   56460   56439   56463       1   56457   56439
   56460       1   56457   56439   56463       1   56436   56454   56502       2
   56436   56454   56505       2   56436   56454   56508       2   56433   56451
   56493       2   56433   56451   56496       2   56433   56451   56499       2
   56430   56448   56484       2   56430   56448   56487       2   56430   56448
   56490       2   56427   56445   56475       2   56427   56445   56478       2
   56427   56445   56481       2   56424   56442   56466       2   56424   56442
   56469       2   56424   56442   56472       2   56421   56439   56457       2
   56421   56439   56460       2   56421   56439   56463       2   56412   56355
   56415       3   56412   56361   56418       3   56403   56343   56406       3
   56403   56349   56409       3   56394   56331   56397       3   56394   56337
   56400       3   56388   56325   56391       3   56385   56319   56388       3
   56376   56310   56379       3   56376   56316   56382       3   56367   56295
   56370       3   56367   56301   56373       3   56361   56292   56364       3
   56355   56289   56358       3   56349   56286   56352       3   56343   56283
   56346       3   56337   56280   56340       3   56331   56277   56334       3
   56325   56274   56328       3   56319   56271   56322       3   56313   56268
   56316       3   56307   56265   56310       3   56301   56262   56304       3
   56295   56259   56298       3   56292   56361   56418       3   56289   56355
   56415       3   56286   56349   56409       3   56283   56343   56406       3
   56280   56337   56400       3   56277   56331   56397       3   56274   56325
   56391       3   56271   56319   56385       3   56268   56316   56382       3
   56265   56310   56379       3   56262   56301   56373       3   56259   56295
   56370       3   56253   56289   56358       3   56253   56292   56364       3
   56250   56283   56346       3   56250   56286   56352       3   56244   56277
   56334       3   56244   56280   56340       3   56241   56271   56322       3
   56241   56274   56328       3   56238   56265   56307       3   56238   56268
   56313       3   56235   56259   56298       3   56235   56262   56304       3
   56229   56199   56232       3   56220   56190   56223       3   56205   56169
   56208       1   56202   56169   56205       1   56202   56169   56208       1
   56199   56229   56256       3   56196   56229   56256       3   56193   56163
   56196       3   56190   56220   56247       3   56184   56157   56187       3
   56184   56220   56247       3   56178   56154   56181       3   56178   56172
   56211       3   56172   56151   56175       3   56166   56199   56232      11
   56160   56190   56223      11   56151   56172   56211       3   56148   56169
   56202       2   56148   56169   56205       2   56148   56169   56208       2
   56145   56163   56193       3   56142   56157   56187       3   56139   56154
   56181       3   56136   56151   56175      11   56127   56106   56130       3
   56127   56112   56133       3   56118   56100   56124      11   56112   56091
   56115       3   56106   56088   56109       3   56100   56085   56103       3
   56094   56082   56097       3   56091   56112   56133       3   56088   56106
   56130       3   56085   56100   56124       3   56079   56088   56109       3
   56079   56091   56115       3   56076   56082   56097       3   56076   56085
   56103       3   56064   56052   56067       3   56064   56058   56070       3
   56058   56040   56061       3   56052   56037   56055       3   56046   56034
   56049       1   56043   56034   56046       1   56043   56034   56049       1
   56040   56058   56070       3   56037   56052   56067       3   56031   56037
   56055       3   56031   56040   56061       3   56028   56034   56043       2
   56028   56034   56046       2   56028   56034   56049       2   56988   56937
   56991       1   56985   56937   56988       1   56985   56937   56991       1
   56979   56934   56982       1   56976   56934   56979       1   56976   56934
   56982       1   56970   56931   56973       1   56967   56931   56970       1
   56967   56931   56973       1   56961   56928   56964       1   56958   56928
   56961       1   56958   56928   56964       1   56952   56925   56955       1
   56949   56925   56952       1   56949   56925   56955       1   56943   56922
   56946       1   56940   56922   56943       1   56940   56922   56946       1
   56919   56937   56985       2   56919   56937   56988       2   56919   56937
   56991       2   56916   56934   56976       2   56916   56934   56979       2
   56916   56934   56982       2   56913   56931   56967       2   56913   56931
   56970       2   56913   56931   56973       2   56910   56928   56958       2
   56910   56928   56961       2   56910   56928   56964       2   56907   56925
   56949       2   56907   56925   56952       2   56907   56925   56955       2
   56904   56922   56940       2   56904   56922   56943       2   56904   56922
   56946       2   56895   56838   56898       3   56895   56844   56901       3
   56886   56826   56889       3   56886   56832   56892       3   56877   56814
   56880       3   56877   56820   56883       3   56871   56808   56874       3
   56868   56802   56871       3   56859   56793   56862       3   56859   56799
   56865       3   56850   56778   56853       3   56850   56784   56856       3
   56844   56775   56847       3   56838   56772   56841       3   56832   56769
   56835       3   56826   56766   56829       3   56820   56763   56823       3
   56814   56760   56817       3   56808   56757   56811       3   56802   56754
   56805       3   56796   56751   56799       3   56790   56748   56793       3
   56784   56745   56787       3   56778   56742   56781       3   56775   56844
   56901       3   56772   56838   56898       3   56769   56832   56892       3
   56766   56826   56889       3   56763   56820   56883       3   56760   56814
   56880       3   56757   56808   56874       3   56754   56802   56868       3
   56751   56799   56865       3   56748   56793   56862       3   56745   56784
   56856       3   56742   56778   56853       3   56736   56772   56841       3
   56736   56775   56847       3   56733   56766   56829       3   56733   56769
   56835       3   56727   56760   56817       3   56727   56763   56823       3
   56724   56754   56805       3   56724   56757   56811       3   56721   56748
   56790       3   56721   56751   56796       3   56718   56742   56781       3
   56718   56745   56787       3   56712   56682   56715       3   56703   56673
   56706       3   56688   56652   56691       1   56685   56652   56688       1
   56685   56652   56691       1   56682   56712   56739       3   56679   56712
   56739       3   56676   56646   56679       3   56673   56703   56730       3
   56667   56640   56670       3   56667   56703   56730       3   56661   56637
   56664       3   56661   56655   56694       3   56655   56634   56658       3
   56649   56682   56715      11   56643   56673   56706      11   56634   56655
   56694       3   56631   56652   56685       2   56631   56652   56688       2
   56631   56652   56691       2   56628   56646   56676       3   56625   56640
   56670       3   56622   56637   56664       3   56619   56634   56658      11
   56610   56589   56613       3   56610   56595   56616       3   56601   56583
   56607      11   56595   56574   56598       3   56589   56571   56592       3
   56583   56568   56586       3   56577   56565   56580       3   56574   56595
   56616       3   56571   56589   56613       3   56568   56583   56607       3
   56562   56571   56592       3   56562   56574   56598       3   56559   56565
   56580       3   56559   56568   56586       3   56547   56535   56550       3
   56547   56541   56553       3   56541   56523   56544       3   56535   56520
   56538       3   56529   56517   56532       1   56526   56517   56529       1
   56526   56517   56532       1   56523   56541   56553       3   56520   56535
   56550       3   56514   56520   56538       3   56514   56523   56544       3
   56511   56517   56526       2   56511   56517   56529       2   56511   56517
   56532       2   57471   57420   57474       1   57468   57420   57471       1
   57468   57420   57474       1   57462   57417   57465       1   57459   57417
   57462       1   57459   57417   57465       1   57453   57414   57456       1
   57450   57414   57453       1   57450   57414   57456       1   57444   57411
   57447       1   57441   57411   57444       1   57441   57411   57447       1
   57435   57408   57438       1   57432   57408   57435       1   57432   57408
   57438       1   57426   57405   57429       1   57423   57405   57426       1
   57423   57405   57429       1   57402   57420   57468       2   57402   57420
   57471       2   57402   57420   57474       2   57399   57417   57459       2
   57399   57417   57462       2   57399   57417   57465       2   57396   57414
   57450       2   57396   57414   57453       2   57396   57414   57456       2
   57393   57411   57441       2   57393   57411   57444       2   57393   57411
   57447       2   57390   57408   57432       2   57390   57408   57435       2
   57390   57408   57438       2   57387   57405   57423       2   57387   57405
   57426       2   57387   57405   57429       2   57378   57321   57381       3
   57378   57327   57384       3   57369   57309   57372       3   57369   57315
   57375       3   57360   57297   57363       3   57360   57303   57366       3
   57354   57291   57357       3   57351   57285   57354       3   57342   57276
   57345       3   57342   57282   57348       3   57333   57261   57336       3
   57333   57267   57339       3   57327   57258   57330       3   57321   57255
   57324       3   57315   57252   57318       3   57309   57249   57312       3
   57303   57246   57306       3   57297   57243   57300       3   57291   57240
   57294       3   57285   57237   57288       3   57279   57234   57282       3
   57273   57231   57276       3   57267   57228   57270       3   57261   57225
   57264       3   57258   57327   57384       3   57255   57321   57381       3
   57252   57315   57375       3   57249   57309   57372       3   57246   57303
   57366       3   57243   57297   57363       3   57240   57291   57357       3
   57237   57285   57351       3   57234   57282   57348       3   57231   57276
   57345       3   57228   57267   57339       3   57225   57261   57336       3
   57219   57255   57324       3   57219   57258   57330       3   57216   57249
   57312       3   57216   57252   57318       3   57210   57243   57300       3
   57210   57246   57306       3   57207   57237   57288       3   57207   57240
   57294       3   57204   57231   57273       3   57204   57234   57279       3
   57201   57225   57264       3   57201   57228   57270       3   57195   57165
   57198       3   57186   57156   57189       3   57171   57135   57174       1
   57168   57135   57171       1   57168   57135   57174       1   57165   57195
   57222       3   57162   57195   57222       3   57159   57129   57162       3
   57156   57186   57213       3   57150   57123   57153       3   57150   57186
   57213       3   57144   57120   57147       3   57144   57138   57177       3
   57138   57117   57141       3   57132   57165   57198      11   57126   57156
   57189      11   57117   57138   57177       3   57114   57135   57168       2
   57114   57135   57171       2   57114   57135   57174       2   57111   57129
   57159       3   57108   57123   57153       3   57105   57120   57147       3
   57102   57117   57141      11   57093   57072   57096       3   57093   57078
   57099       3   57084   57066   57090      11   57078   57057   57081       3
   57072   57054   57075       3   57066   57051   57069       3   57060   57048
   57063       3   57057   57078   57099       3   57054   57072   57096       3
   57051   57066   57090       3   57045   57054   57075       3   57045   57057
   57081       3   57042   57048   57063       3   57042   57051   57069       3
   57030   57018   57033       3   57030   57024   57036       3   57024   57006
   57027       3   57018   57003   57021       3   57012   57000   57015       1
   57009   57000   57012       1   57009   57000   57015       1   57006   57024
   57036       3   57003   57018   57033       3   56997   57003   57021       3
   56997   57006   57027       3   56994   57000   57009       2   56994   57000
   57012       2   56994   57000   57015       2   57954   57903   57957       1
   57951   57903   57954       1   57951   57903   57957       1   57945   57900
   57948       1   57942   57900   57945       1   57942   57900   57948       1
   57936   57897   57939       1   57933   57897   57936       1   57933   57897
   57939       1   57927   57894   57930       1   57924   57894   57927       1
   57924   57894   57930       1   57918   57891   57921       1   57915   57891
   57918       1   57915   57891   57921       1   57909   57888   57912       1
   57906   57888   57909       1   57906   57888   57912       1   57885   57903
   57951       2   57885   57903   57954       2   57885   57903   57957       2
   57882   57900   57942       2   57882   57900   57945       2   57882   57900
   57948       2   57879   57897   57933       2   57879   57897   57936       2
   57879   57897   57939       2   57876   57894   57924       2   57876   57894
   57927       2   57876   57894   57930       2   57873   57891   57915       2
   57873   57891   57918       2   57873   57891   57921       2   57870   57888
   57906       2   57870   57888   57909       2   57870   57888   57912       2
   57861   57804   57864       3   57861   57810   57867       3   57852   57792
   57855       3   57852   57798   57858       3   57843   57780   57846       3
   57843   57786   57849       3   57837   57774   57840       3   57834   57768
   57837       3   57825   57759   57828       3   57825   57765   57831       3
   57816   57744   57819       3   57816   57750   57822       3   57810   57741
   57813       3   57804   57738   57807       3   57798   57735   57801       3
   57792   57732   57795       3   57786   57729   57789       3   57780   57726
   57783       3   57774   57723   57777       3   57768   57720   57771       3
   57762   57717   57765       3   57756   57714   57759       3   57750   57711
   57753       3   57744   57708   57747       3   57741   57810   57867       3
   57738   57804   57864       3   57735   57798   57858       3   57732   57792
   57855       3   57729   57786   57849       3   57726   57780   57846       3
   57723   57774   57840       3   57720   57768   57834       3   57717   57765
   57831       3   57714   57759   57828       3   57711   57750   57822       3
   57708   57744   57819       3   57702   57738   57807       3   57702   57741
   57813       3   57699   57732   57795       3   57699   57735   57801       3
   57693   57726   57783       3   57693   57729   57789       3   57690   57720
   57771       3   57690   57723   57777       3   57687   57714   57756       3
   57687   57717   57762       3   57684   57708   57747       3   57684   57711
   57753       3   57678   57648   57681       3   57669   57639   57672       3
   57654   57618   57657       1   57651   57618   57654       1   57651   57618
   57657       1   57648   57678   57705       3   57645   57678   57705       3
   57642   57612   57645       3   57639   57669   57696       3   57633   57606
   57636       3   57633   57669   57696       3   57627   57603   57630       3
   57627   57621   57660       3   57621   57600   57624       3   57615   57648
   57681      11   57609   57639   57672      11   57600   57621   57660       3
   57597   57618   57651       2   57597   57618   57654       2   57597   57618
   57657       2   57594   57612   57642       3   57591   57606   57636       3
   57588   57603   57630       3   57585   57600   57624      11   57576   57555
   57579       3   57576   57561   57582       3   57567   57549   57573      11
   57561   57540   57564       3   57555   57537   57558       3   57549   57534
   57552       3   57543   57531   57546       3   57540   57561   57582       3
   57537   57555   57579       3   57534   57549   57573       3   57528   57537
   57558       3   57528   57540   57564       3   57525   57531   57546       3
   57525   57534   57552       3   57513   57501   57516       3   57513   57507
   57519       3   57507   57489   57510       3   57501   57486   57504       3
   57495   57483   57498       1   57492   57483   57495       1   57492   57483
   57498       1   57489   57507   57519       3   57486   57501   57516       3
   57480   57486   57504       3   57480   57489   57510       3   57477   57483
   57492       2   57477   57483   57495       2   57477   57483   57498       2
   58437   58386   58440       1   58434   58386   58437       1   58434   58386
   58440       1   58428   58383   58431       1   58425   58383   58428       1
   58425   58383   58431       1   58419   58380   58422       1   58416   58380
   58419       1   58416   58380   58422       1   58410   58377   58413       1
   58407   58377   58410       1   58407   58377   58413       1   58401   58374
   58404       1   58398   58374   58401       1   58398   58374   58404       1
   58392   58371   58395       1   58389   58371   58392       1   58389   58371
   58395       1   58368   58386   58434       2   58368   58386   58437       2
   58368   58386   58440       2   58365   58383   58425       2   58365   58383
   58428       2   58365   58383   58431       2   58362   58380   58416       2
   58362   58380   58419       2   58362   58380   58422       2   58359   58377
   58407       2   58359   58377   58410       2   58359   58377   58413       2
   58356   58374   58398       2   58356   58374   58401       2   58356   58374
   58404       2   58353   58371   58389       2   58353   58371   58392       2
   58353   58371   58395       2   58344   58287   58347       3   58344   58293
   58350       3   58335   58275   58338       3   58335   58281   58341       3
   58326   58263   58329       3   58326   58269   58332       3   58320   58257
   58323       3   58317   58251   58320       3   58308   58242   58311       3
   58308   58248   58314       3   58299   58227   58302       3   58299   58233
   58305       3   58293   58224   58296       3   58287   58221   58290       3
   58281   58218   58284       3   58275   58215   58278       3   58269   58212
   58272       3   58263   58209   58266       3   58257   58206   58260       3
   58251   58203   58254       3   58245   58200   58248       3   58239   58197
   58242       3   58233   58194   58236       3   58227   58191   58230       3
   58224   58293   58350       3   58221   58287   58347       3   58218   58281
   58341       3   58215   58275   58338       3   58212   58269   58332       3
   58209   58263   58329       3   58206   58257   58323       3   58203   58251
   58317       3   58200   58248   58314       3   58197   58242   58311       3
   58194   58233   58305       3   58191   58227   58302       3   58185   58221
   58290       3   58185   58224   58296       3   58182   58215   58278       3
   58182   58218   58284       3   58176   58209   58266       3   58176   58212
   58272       3   58173   58203   58254       3   58173   58206   58260       3
   58170   58197   58239       3   58170   58200   58245       3   58167   58191
   58230       3   58167   58194   58236       3   58161   58131   58164       3
   58152   58122   58155       3   58137   58101   58140       1   58134   58101
   58137       1   58134   58101   58140       1   58131   58161   58188       3
   58128   58161   58188       3   58125   58095   58128       3   58122   58152
   58179       3   58116   58089   58119       3   58116   58152   58179       3
   58110   58086   58113       3   58110   58104   58143       3   58104   58083
   58107       3   58098   58131   58164      11   58092   58122   58155      11
   58083   58104   58143       3   58080   58101   58134       2   58080   58101
   58137       2   58080   58101   58140       2   58077   58095   58125       3
   58074   58089   58119       3   58071   58086   58113       3   58068   58083
   58107      11   58059   58038   58062       3   58059   58044   58065       3
   58050   58032   58056      11   58044   58023   58047       3   58038   58020
   58041       3   58032   58017   58035       3   58026   58014   58029       3
   58023   58044   58065       3   58020   58038   58062       3   58017   58032
   58056       3   58011   58020   58041       3   58011   58023   58047       3
   58008   58014   58029       3   58008   58017   58035       3   57996   57984
   57999       3   57996   57990   58002       3   57990   57972   57993       3
   57984   57969   57987       3   57978   57966   57981       1   57975   57966
   57978       1   57975   57966   57981       1   57972   57990   58002       3
   57969   57984   57999       3   57963   57969   57987       3   57963   57972
   57993       3   57960   57966   57975       2   57960   57966   57978       2
   57960   57966   57981       2   58920   58869   58923       1   58917   58869
   58920       1   58917   58869   58923       1   58911   58866   58914       1
   58908   58866   58911       1   58908   58866   58914       1   58902   58863
   58905       1   58899   58863   58902       1   58899   58863   58905       1
   58893   58860   58896       1   58890   58860   58893       1   58890   58860
   58896       1   58884   58857   58887       1   58881   58857   58884       1
   58881   58857   58887       1   58875   58854   58878       1   58872   58854
   58875       1   58872   58854   58878       1   58851   58869   58917       2
   58851   58869   58920       2   58851   58869   58923       2   58848   58866
   58908       2   58848   58866   58911       2   58848   58866   58914       2
   58845   58863   58899       2   58845   58863   58902       2   58845   58863
   58905       2   58842   58860   58890       2   58842   58860   58893       2
   58842   58860   58896       2   58839   58857   58881       2   58839   58857
   58884       2   58839   58857   58887       2   58836   58854   58872       2
   58836   58854   58875       2   58836   58854   58878       2   58827   58770
   58830       3   58827   58776   58833       3   58818   58758   58821       3
   58818   58764   58824       3   58809   58746   58812       3   58809   58752
   58815       3   58803   58740   58806       3   58800   58734   58803       3
   58791   58725   58794       3   58791   58731   58797       3   58782   58710
   58785       3   58782   58716   58788       3   58776   58707   58779       3
   58770   58704   58773       3   58764   58701   58767       3   58758   58698
   58761       3   58752   58695   58755       3   58746   58692   58749       3
   58740   58689   58743       3   58734   58686   58737       3   58728   58683
   58731       3   58722   58680   58725       3   58716   58677   58719       3
   58710   58674   58713       3   58707   58776   58833       3   58704   58770
   58830       3   58701   58764   58824       3   58698   58758   58821       3
   58695   58752   58815       3   58692   58746   58812       3   58689   58740
   58806       3   58686   58734   58800       3   58683   58731   58797       3
   58680   58725   58794       3   58677   58716   58788       3   58674   58710
   58785       3   58668   58704   58773       3   58668   58707   58779       3
   58665   58698   58761       3   58665   58701   58767       3   58659   58692
   58749       3   58659   58695   58755       3   58656   58686   58737       3
   58656   58689   58743       3   58653   58680   58722       3   58653   58683
   58728       3   58650   58674   58713       3   58650   58677   58719       3
   58644   58614   58647       3   58635   58605   58638       3   58620   58584
   58623       1   58617   58584   58620       1   58617   58584   58623       1
   58614   58644   58671       3   58611   58644   58671       3   58608   58578
   58611       3   58605   58635   58662       3   58599   58572   58602       3
   58599   58635   58662       3   58593   58569   58596       3   58593   58587
   58626       3   58587   58566   58590       3   58581   58614   58647      11
   58575   58605   58638      11   58566   58587   58626       3   58563   58584
   58617       2   58563   58584   58620       2   58563   58584   58623       2
   58560   58578   58608       3   58557   58572   58602       3   58554   58569
   58596       3   58551   58566   58590      11   58542   58521   58545       3
   58542   58527   58548       3   58533   58515   58539      11   58527   58506
   58530       3   58521   58503   58524       3   58515   58500   58518       3
   58509   58497   58512       3   58506   58527   58548       3   58503   58521
   58545       3   58500   58515   58539       3   58494   58503   58524       3
   58494   58506   58530       3   58491   58497   58512       3   58491   58500
   58518       3   58479   58467   58482       3   58479   58473   58485       3
   58473   58455   58476       3   58467   58452   58470       3   58461   58449
   58464       1   58458   58449   58461       1   58458   58449   58464       1
   58455   58473   58485       3   58452   58467   58482       3   58446   58452
   58470       3   58446   58455   58476       3   58443   58449   58458       2
   58443   58449   58461       2   58443   58449   58464       2   59403   59352
   59406       1   59400   59352   59403       1   59400   59352   59406       1
   59394   59349   59397       1   59391   59349   59394       1   59391   59349
   59397       1   59385   59346   59388       1   59382   59346   59385       1
   59382   59346   59388       1   59376   59343   59379       1   59373   59343
   59376       1   59373   59343   59379       1   59367   59340   59370       1
   59364   59340   59367       1   59364   59340   59370       1   59358   59337
   59361       1   59355   59337   59358       1   59355   59337   59361       1
   59334   59352   59400       2   59334   59352   59403       2   59334   59352
   59406       2   59331   59349   59391       2   59331   59349   59394       2
   59331   59349   59397       2   59328   59346   59382       2   59328   59346
   59385       2   59328   59346   59388       2   59325   59343   59373       2
   59325   59343   59376       2   59325   59343   59379       2   59322   59340
   59364       2   59322   59340   59367       2   59322   59340   59370       2
   59319   59337   59355       2   59319   59337   59358       2   59319   59337
   59361       2   59310   59253   59313       3   59310   59259   59316       3
   59301   59241   59304       3   59301   59247   59307       3   59292   59229
   59295       3   59292   59235   59298       3   59286   59223   59289       3
   59283   59217   59286       3   59274   59208   59277       3   59274   59214
   59280       3   59265   59193   59268       3   59265   59199   59271       3
   59259   59190   59262       3   59253   59187   59256       3   59247   59184
   59250       3   59241   59181   59244       3   59235   59178   59238       3
   59229   59175   59232       3   59223   59172   59226       3   59217   59169
   59220       3   59211   59166   59214       3   59205   59163   59208       3
   59199   59160   59202       3   59193   59157   59196       3   59190   59259
   59316       3   59187   59253   59313       3   59184   59247   59307       3
   59181   59241   59304       3   59178   59235   59298       3   59175   59229
   59295       3   59172   59223   59289       3   59169   59217   59283       3
   59166   59214   59280       3   59163   59208   59277       3   59160   59199
   59271       3   59157   59193   59268       3   59151   59187   59256       3
   59151   59190   59262       3   59148   59181   59244       3   59148   59184
   59250       3   59142   59175   59232       3   59142   59178   59238       3
   59139   59169   59220       3   59139   59172   59226       3   59136   59163
   59205       3   59136   59166   59211       3   59133   59157   59196       3
   59133   59160   59202       3   59127   59097   59130       3   59118   59088
   59121       3   59103   59067   59106       1   59100   59067   59103       1
   59100   59067   59106       1   59097   59127   59154       3   59094   59127
   59154       3   59091   59061   59094       3   59088   59118   59145       3
   59082   59055   59085       3   59082   59118   59145       3   59076   59052
   59079       3   59076   59070   59109       3   59070   59049   59073       3
   59064   59097   59130      11   59058   59088   59121      11   59049   59070
   59109       3   59046   59067   59100       2   59046   59067   59103       2
   59046   59067   59106       2   59043   59061   59091       3   59040   59055
   59085       3   59037   59052   59079       3   59034   59049   59073      11
   59025   59004   59028       3   59025   59010   59031       3   59016   58998
   59022      11   59010   58989   59013       3   59004   58986   59007       3
   58998   58983   59001       3   58992   58980   58995       3   58989   59010
   59031       3   58986   59004   59028       3   58983   58998   59022       3
   58977   58986   59007       3   58977   58989   59013       3   58974   58980
   58995       3   58974   58983   59001       3   58962   58950   58965       3
   58962   58956   58968       3   58956   58938   58959       3   58950   58935
   58953       3   58944   58932   58947       1   58941   58932   58944       1
   58941   58932   58947       1   58938   58956   58968       3   58935   58950
   58965       3   58929   58935   58953       3   58929   58938   58959       3
   58926   58932   58941       2   58926   58932   58944       2   58926   58932
   58947       2   59886   59835   59889       1   59883   59835   59886       1
   59883   59835   59889       1   59877   59832   59880       1   59874   59832
   59877       1   59874   59832   59880       1   59868   59829   59871       1
   59865   59829   59868       1   59865   59829   59871       1   59859   59826
   59862       1   59856   59826   59859       1   59856   59826   59862       1
   59850   59823   59853       1   59847   59823   59850       1   59847   59823
   59853       1   59841   59820   59844       1   59838   59820   59841       1
   59838   59820   59844       1   59817   59835   59883       2   59817   59835
   59886       2   59817   59835   59889       2   59814   59832   59874       2
   59814   59832   59877       2   59814   59832   59880       2   59811   59829
   59865       2   59811   59829   59868       2   59811   59829   59871       2
   59808   59826   59856       2   59808   59826   59859       2   59808   59826
   59862       2   59805   59823   59847       2   59805   59823   59850       2
   59805   59823   59853       2   59802   59820   59838       2   59802   59820
   59841       2   59802   59820   59844       2   59793   59736   59796       3
   59793   59742   59799       3   59784   59724   59787       3   59784   59730
   59790       3   59775   59712   59778       3   59775   59718   59781       3
   59769   59706   59772       3   59766   59700   59769       3   59757   59691
   59760       3   59757   59697   59763       3   59748   59676   59751       3
   59748   59682   59754       3   59742   59673   59745       3   59736   59670
   59739       3   59730   59667   59733       3   59724   59664   59727       3
   59718   59661   59721       3   59712   59658   59715       3   59706   59655
   59709       3   59700   59652   59703       3   59694   59649   59697       3
   59688   59646   59691       3   59682   59643   59685       3   59676   59640
   59679       3   59673   59742   59799       3   59670   59736   59796       3
   59667   59730   59790       3   59664   59724   59787       3   59661   59718
   59781       3   59658   59712   59778       3   59655   59706   59772       3
   59652   59700   59766       3   59649   59697   59763       3   59646   59691
   59760       3   59643   59682   59754       3   59640   59676   59751       3
   59634   59670   59739       3   59634   59673   59745       3   59631   59664
   59727       3   59631   59667   59733       3   59625   59658   59715       3
   59625   59661   59721       3   59622   59652   59703       3   59622   59655
   59709       3   59619   59646   59688       3   59619   59649   59694       3
   59616   59640   59679       3   59616   59643   59685       3   59610   59580
   59613       3   59601   59571   59604       3   59586   59550   59589       1
   59583   59550   59586       1   59583   59550   59589       1   59580   59610
   59637       3   59577   59610   59637       3   59574   59544   59577       3
   59571   59601   59628       3   59565   59538   59568       3   59565   59601
   59628       3   59559   59535   59562       3   59559   59553   59592       3
   59553   59532   59556       3   59547   59580   59613      11   59541   59571
   59604      11   59532   59553   59592       3   59529   59550   59583       2
   59529   59550   59586       2   59529   59550   59589       2   59526   59544
   59574       3   59523   59538   59568       3   59520   59535   59562       3
   59517   59532   59556      11   59508   59487   59511       3   59508   59493
   59514       3   59499   59481   59505      11   59493   59472   59496       3
   59487   59469   59490       3   59481   59466   59484       3   59475   59463
   59478       3   59472   59493   59514       3   59469   59487   59511       3
   59466   59481   59505       3   59460   59469   59490       3   59460   59472
   59496       3   59457   59463   59478       3   59457   59466   59484       3
   59445   59433   59448       3   59445   59439   59451       3   59439   59421
   59442       3   59433   59418   59436       3   59427   59415   59430       1
   59424   59415   59427       1   59424   59415   59430       1   59421   59439
   59451       3   59418   59433   59448       3   59412   59418   59436       3
   59412   59421   59442       3   59409   59415   59424       2   59409   59415
   59427       2   59409   59415   59430       2   60369   60318   60372       1
   60366   60318   60369       1   60366   60318   60372       1   60360   60315
   60363       1   60357   60315   60360       1   60357   60315   60363       1
   60351   60312   60354       1   60348   60312   60351       1   60348   60312
   60354       1   60342   60309   60345       1   60339   60309   60342       1
   60339   60309   60345       1   60333   60306   60336       1   60330   60306
   60333       1   60330   60306   60336       1   60324   60303   60327       1
   60321   60303   60324       1   60321   60303   60327       1   60300   60318
   60366       2   60300   60318   60369       2   60300   60318   60372       2
   60297   60315   60357       2   60297   60315   60360       2   60297   60315
   60363       2   60294   60312   60348       2   60294   60312   60351       2
   60294   60312   60354       2   60291   60309   60339       2   60291   60309
   60342       2   60291   60309   60345       2   60288   60306   60330       2
   60288   60306   60333       2   60288   60306   60336       2   60285   60303
   60321       2   60285   60303   60324       2   60285   60303   60327       2
   60276   60219   60279       3   60276   60225   60282       3   60267   60207
   60270       3   60267   60213   60273       3   60258   60195   60261       3
   60258   60201   60264       3   60252   60189   60255       3   60249   60183
   60252       3   60240   60174   60243       3   60240   60180   60246       3
   60231   60159   60234       3   60231   60165   60237       3   60225   60156
   60228       3   60219   60153   60222       3   60213   60150   60216       3
   60207   60147   60210       3   60201   60144   60204       3   60195   60141
   60198       3   60189   60138   60192       3   60183   60135   60186       3
   60177   60132   60180       3   60171   60129   60174       3   60165   60126
   60168       3   60159   60123   60162       3   60156   60225   60282       3
   60153   60219   60279       3   60150   60213   60273       3   60147   60207
   60270       3   60144   60201   60264       3   60141   60195   60261       3
   60138   60189   60255       3   60135   60183   60249       3   60132   60180
   60246       3   60129   60174   60243       3   60126   60165   60237       3
   60123   60159   60234       3   60117   60153   60222       3   60117   60156
   60228       3   60114   60147   60210       3   60114   60150   60216       3
   60108   60141   60198       3   60108   60144   60204       3   60105   60135
   60186       3   60105   60138   60192       3   60102   60129   60171       3
   60102   60132   60177       3   60099   60123   60162       3   60099   60126
   60168       3   60093   60063   60096       3   60084   60054   60087       3
   60069   60033   60072       1   60066   60033   60069       1   60066   60033
   60072       1   60063   60093   60120       3   60060   60093   60120       3
   60057   60027   60060       3   60054   60084   60111       3   60048   60021
   60051       3   60048   60084   60111       3   60042   60018   60045       3
   60042   60036   60075       3   60036   60015   60039       3   60030   60063
   60096      11   60024   60054   60087      11   60015   60036   60075       3
   60012   60033   60066       2   60012   60033   60069       2   60012   60033
   60072       2   60009   60027   60057       3   60006   60021   60051       3
   60003   60018   60045       3   60000   60015   60039      11   59991   59970
   59994       3   59991   59976   59997       3   59982   59964   59988      11
   59976   59955   59979       3   59970   59952   59973       3   59964   59949
   59967       3   59958   59946   59961       3   59955   59976   59997       3
   59952   59970   59994       3   59949   59964   59988       3   59943   59952
   59973       3   59943   59955   59979       3   59940   59946   59961       3
   59940   59949   59967       3   59928   59916   59931       3   59928   59922
   59934       3   59922   59904   59925       3   59916   59901   59919       3
   59910   59898   59913       1   59907   59898   59910       1   59907   59898
   59913       1   59904   59922   59934       3   59901   59916   59931       3
   59895   59901   59919       3   59895   59904   59925       3   59892   59898
   59907       2   59892   59898   59910       2   59892   59898   59913       2
   60852   60801   60855       1   60849   60801   60852       1   60849   60801
   60855       1   60843   60798   60846       1   60840   60798   60843       1
   60840   60798   60846       1   60834   60795   60837       1   60831   60795
   60834       1   60831   60795   60837       1   60825   60792   60828       1
   60822   60792   60825       1   60822   60792   60828       1   60816   60789
   60819       1   60813   60789   60816       1   60813   60789   60819       1
   60807   60786   60810       1   60804   60786   60807       1   60804   60786
   60810       1   60783   60801   60849       2   60783   60801   60852       2
   60783   60801   60855       2   60780   60798   60840       2   60780   60798
   60843       2   60780   60798   60846       2   60777   60795   60831       2
   60777   60795   60834       2   60777   60795   60837       2   60774   60792
   60822       2   60774   60792   60825       2   60774   60792   60828       2
   60771   60789   60813       2   60771   60789   60816       2   60771   60789
   60819       2   60768   60786   60804       2   60768   60786   60807       2
   60768   60786   60810       2   60759   60702   60762       3   60759   60708
   60765       3   60750   60690   60753       3   60750   60696   60756       3
   60741   60678   60744       3   60741   60684   60747       3   60735   60672
   60738       3   60732   60666   60735       3   60723   60657   60726       3
   60723   60663   60729       3   60714   60642   60717       3   60714   60648
   60720       3   60708   60639   60711       3   60702   60636   60705       3
   60696   60633   60699       3   60690   60630   60693       3   60684   60627
   60687       3   60678   60624   60681       3   60672   60621   60675       3
   60666   60618   60669       3   60660   60615   60663       3   60654   60612
   60657       3   60648   60609   60651       3   60642   60606   60645       3
   60639   60708   60765       3   60636   60702   60762       3   60633   60696
   60756       3   60630   60690   60753       3   60627   60684   60747       3
   60624   60678   60744       3   60621   60672   60738       3   60618   60666
   60732       3   60615   60663   60729       3   60612   60657   60726       3
   60609   60648   60720       3   60606   60642   60717       3   60600   60636
   60705       3   60600   60639   60711       3   60597   60630   60693       3
   60597   60633   60699       3   60591   60624   60681       3   60591   60627
   60687       3   60588   60618   60669       3   60588   60621   60675       3
   60585   60612   60654       3   60585   60615   60660       3   60582   60606
   60645       3   60582   60609   60651       3   60576   60546   60579       3
   60567   60537   60570       3   60552   60516   60555       1   60549   60516
   60552       1   60549   60516   60555       1   60546   60576   60603       3
   60543   60576   60603       3   60540   60510   60543       3   60537   60567
   60594       3   60531   60504   60534       3   60531   60567   60594       3
   60525   60501   60528       3   60525   60519   60558       3   60519   60498
   60522       3   60513   60546   60579      11   60507   60537   60570      11
   60498   60519   60558       3   60495   60516   60549       2   60495   60516
   60552       2   60495   60516   60555       2   60492   60510   60540       3
   60489   60504   60534       3   60486   60501   60528       3   60483   60498
   60522      11   60474   60453   60477       3   60474   60459   60480       3
   60465   60447   60471      11   60459   60438   60462       3   60453   60435
   60456       3   60447   60432   60450       3   60441   60429   60444       3
   60438   60459   60480       3   60435   60453   60477       3   60432   60447
   60471       3   60426   60435   60456       3   60426   60438   60462       3
   60423   60429   60444       3   60423   60432   60450       3   60411   60399
   60414       3   60411   60405   60417       3   60405   60387   60408       3
   60399   60384   60402       3   60393   60381   60396       1   60390   60381
   60393       1   60390   60381   60396       1   60387   60405   60417       3
   60384   60399   60414       3   60378   60384   60402       3   60378   60387
   60408       3   60375   60381   60390       2   60375   60381   60393       2
   60375   60381   60396       2   61335   61284   61338       1   61332   61284
   61335       1   61332   61284   61338       1   61326   61281   61329       1
   61323   61281   61326       1   61323   61281   61329       1   61317   61278
   61320       1   61314   61278   61317       1   61314   61278   61320       1
   61308   61275   61311       1   61305   61275   61308       1   61305   61275
   61311       1   61299   61272   61302       1   61296   61272   61299       1
   61296   61272   61302       1   61290   61269   61293       1   61287   61269
   61290       1   61287   61269   61293       1   61266   61284   61332       2
   61266   61284   61335       2   61266   61284   61338       2   61263   61281
   61323       2   61263   61281   61326       2   61263   61281   61329       2
   61260   61278   61314       2   61260   61278   61317       2   61260   61278
   61320       2   61257   61275   61305       2   61257   61275   61308       2
   61257   61275   61311       2   61254   61272   61296       2   61254   61272
   61299       2   61254   61272   61302       2   61251   61269   61287       2
   61251   61269   61290       2   61251   61269   61293       2   61242   61185
   61245       3   61242   61191   61248       3   61233   61173   61236       3
   61233   61179   61239       3   61224   61161   61227       3   61224   61167
   61230       3   61218   61155   61221       3   61215   61149   61218       3
   61206   61140   61209       3   61206   61146   61212       3   61197   61125
   61200       3   61197   61131   61203       3   61191   61122   61194       3
   61185   61119   61188       3   61179   61116   61182       3   61173   61113
   61176       3   61167   61110   61170       3   61161   61107   61164       3
   61155   61104   61158       3   61149   61101   61152       3   61143   61098
   61146       3   61137   61095   61140       3   61131   61092   61134       3
   61125   61089   61128       3   61122   61191   61248       3   61119   61185
   61245       3   61116   61179   61239       3   61113   61173   61236       3
   61110   61167   61230       3   61107   61161   61227       3   61104   61155
   61221       3   61101   61149   61215       3   61098   61146   61212       3
   61095   61140   61209       3   61092   61131   61203       3   61089   61125
   61200       3   61083   61119   61188       3   61083   61122   61194       3
   61080   61113   61176       3   61080   61116   61182       3   61074   61107
   61164       3   61074   61110   61170       3   61071   61101   61152       3
   61071   61104   61158       3   61068   61095   61137       3   61068   61098
   61143       3   61065   61089   61128       3   61065   61092   61134       3
   61059   61029   61062       3   61050   61020   61053       3   61035   60999
   61038       1   61032   60999   61035       1   61032   60999   61038       1
   61029   61059   61086       3   61026   61059   61086       3   61023   60993
   61026       3   61020   61050   61077       3   61014   60987   61017       3
   61014   61050   61077       3   61008   60984   61011       3   61008   61002
   61041       3   61002   60981   61005       3   60996   61029   61062      11
   60990   61020   61053      11   60981   61002   61041       3   60978   60999
   61032       2   60978   60999   61035       2   60978   60999   61038       2
   60975   60993   61023       3   60972   60987   61017       3   60969   60984
   61011       3   60966   60981   61005      11   60957   60936   60960       3
   60957   60942   60963       3   60948   60930   60954      11   60942   60921
   60945       3   60936   60918   60939       3   60930   60915   60933       3
   60924   60912   60927       3   60921   60942   60963       3   60918   60936
   60960       3   60915   60930   60954       3   60909   60918   60939       3
   60909   60921   60945       3   60906   60912   60927       3   60906   60915
   60933       3   60894   60882   60897       3   60894   60888   60900       3
   60888   60870   60891       3   60882   60867   60885       3   60876   60864
   60879       1   60873   60864   60876       1   60873   60864   60879       1
   60870   60888   60900       3   60867   60882   60897       3   60861   60867
   60885       3   60861   60870   60891       3   60858   60864   60873       2
   60858   60864   60876       2   60858   60864   60879       2   61818   61767
   61821       1   61815   61767   61818       1   61815   61767   61821       1
   61809   61764   61812       1   61806   61764   61809       1   61806   61764
   61812       1   61800   61761   61803       1   61797   61761   61800       1
   61797   61761   61803       1   61791   61758   61794       1   61788   61758
   61791       1   61788   61758   61794       1   61782   61755   61785       1
   61779   61755   61782       1   61779   61755   61785       1   61773   61752
   61776       1   61770   61752   61773       1   61770   61752   61776       1
   61749   61767   61815       2   61749   61767   61818       2   61749   61767
   61821       2   61746   61764   61806       2   61746   61764   61809       2
   61746   61764   61812       2   61743   61761   61797       2   61743   61761
   61800       2   61743   61761   61803       2   61740   61758   61788       2
   61740   61758   61791       2   61740   61758   61794       2   61737   61755
   61779       2   61737   61755   61782       2   61737   61755   61785       2
   61734   61752   61770       2   61734   61752   61773       2   61734   61752
   61776       2   61725   61668   61728       3   61725   61674   61731       3
   61716   61656   61719       3   61716   61662   61722       3   61707   61644
   61710       3   61707   61650   61713       3   61701   61638   61704       3
   61698   61632   61701       3   61689   61623   61692       3   61689   61629
   61695       3   61680   61608   61683       3   61680   61614   61686       3
   61674   61605   61677       3   61668   61602   61671       3   61662   61599
   61665       3   61656   61596   61659       3   61650   61593   61653       3
   61644   61590   61647       3   61638   61587   61641       3   61632   61584
   61635       3   61626   61581   61629       3   61620   61578   61623       3
   61614   61575   61617       3   61608   61572   61611       3   61605   61674
   61731       3   61602   61668   61728       3   61599   61662   61722       3
   61596   61656   61719       3   61593   61650   61713       3   61590   61644
   61710       3   61587   61638   61704       3   61584   61632   61698       3
   61581   61629   61695       3   61578   61623   61692       3   61575   61614
   61686       3   61572   61608   61683       3   61566   61602   61671       3
   61566   61605   61677       3   61563   61596   61659       3   61563   61599
   61665       3   61557   61590   61647       3   61557   61593   61653       3
   61554   61584   61635       3   61554   61587   61641       3   61551   61578
   61620       3   61551   61581   61626       3   61548   61572   61611       3
   61548   61575   61617       3   61542   61512   61545       3   61533   61503
   61536       3   61518   61482   61521       1   61515   61482   61518       1
   61515   61482   61521       1   61512   61542   61569       3   61509   61542
   61569       3   61506   61476   61509       3   61503   61533   61560       3
   61497   61470   61500       3   61497   61533   61560       3   61491   61467
   61494       3   61491   61485   61524       3   61485   61464   61488       3
   61479   61512   61545      11   61473   61503   61536      11   61464   61485
   61524       3   61461   61482   61515       2   61461   61482   61518       2
   61461   61482   61521       2   61458   61476   61506       3   61455   61470
   61500       3   61452   61467   61494       3   61449   61464   61488      11
   61440   61419   61443       3   61440   61425   61446       3   61431   61413
   61437      11   61425   61404   61428       3   61419   61401   61422       3
   61413   61398   61416       3   61407   61395   61410       3   61404   61425
   61446       3   61401   61419   61443       3   61398   61413   61437       3
   61392   61401   61422       3   61392   61404   61428       3   61389   61395
   61410       3   61389   61398   61416       3   61377   61365   61380       3
   61377   61371   61383       3   61371   61353   61374       3   61365   61350
   61368       3   61359   61347   61362       1   61356   61347   61359       1
   61356   61347   61362       1   61353   61371   61383       3   61350   61365
   61380       3   61344   61350   61368       3   61344   61353   61374       3
   61341   61347   61356       2   61341   61347   61359       2   61341   61347
   61362       2   62301   62250   62304       1   62298   62250   62301       1
   62298   62250   62304       1   62292   62247   62295       1   62289   62247
   62292       1   62289   62247   62295       1   62283   62244   62286       1
   62280   62244   62283       1   62280   62244   62286       1   62274   62241
   62277       1   62271   62241   62274       1   62271   62241   62277       1
   62265   62238   62268       1   62262   62238   62265       1   62262   62238
   62268       1   62256   62235   62259       1   62253   62235   62256       1
   62253   62235   62259       1   62232   62250   62298       2   62232   62250
   62301       2   62232   62250   62304       2   62229   62247   62289       2
   62229   62247   62292       2   62229   62247   62295       2   62226   62244
   62280       2   62226   62244   62283       2   62226   62244   62286       2
   62223   62241   62271       2   62223   62241   62274       2   62223   62241
   62277       2   62220   62238   62262       2   62220   62238   62265       2
   62220   62238   62268       2   62217   62235   62253       2   62217   62235
   62256       2   62217   62235   62259       2   62208   62151   62211       3
   62208   62157   62214       3   62199   62139   62202       3   62199   62145
   62205       3   62190   62127   62193       3   62190   62133   62196       3
   62184   62121   62187       3   62181   62115   62184       3   62172   62106
   62175       3   62172   62112   62178       3   62163   62091   62166       3
   62163   62097   62169       3   62157   62088   62160       3   62151   62085
   62154       3   62145   62082   62148       3   62139   62079   62142       3
   62133   62076   62136       3   62127   62073   62130       3   62121   62070
   62124       3   62115   62067   62118       3   62109   62064   62112       3
   62103   62061   62106       3   62097   62058   62100       3   62091   62055
   62094       3   62088   62157   62214       3   62085   62151   62211       3
   62082   62145   62205       3   62079   62139   62202       3   62076   62133
   62196       3   62073   62127   62193       3   62070   62121   62187       3
   62067   62115   62181       3   62064   62112   62178       3   62061   62106
   62175       3   62058   62097   62169       3   62055   62091   62166       3
   62049   62085   62154       3   62049   62088   62160       3   62046   62079
   62142       3   62046   62082   62148       3   62040   62073   62130       3
   62040   62076   62136       3   62037   62067   62118       3   62037   62070
   62124       3   62034   62061   62103       3   62034   62064   62109       3
   62031   62055   62094       3   62031   62058   62100       3   62025   61995
   62028       3   62016   61986   62019       3   62001   61965   62004       1
   61998   61965   62001       1   61998   61965   62004       1   61995   62025
   62052       3   61992   62025   62052       3   61989   61959   61992       3
   61986   62016   62043       3   61980   61953   61983       3   61980   62016
   62043       3   61974   61950   61977       3   61974   61968   62007       3
   61968   61947   61971       3   61962   61995   62028      11   61956   61986
   62019      11   61947   61968   62007       3   61944   61965   61998       2
   61944   61965   62001       2   61944   61965   62004       2   61941   61959
   61989       3   61938   61953   61983       3   61935   61950   61977       3
   61932   61947   61971      11   61923   61902   61926       3   61923   61908
   61929       3   61914   61896   61920      11   61908   61887   61911       3
   61902   61884   61905       3   61896   61881   61899       3   61890   61878
   61893       3   61887   61908   61929       3   61884   61902   61926       3
   61881   61896   61920       3   61875   61884   61905       3   61875   61887
   61911       3   61872   61878   61893       3   61872   61881   61899       3
   61860   61848   61863       3   61860   61854   61866       3   61854   61836
   61857       3   61848   61833   61851       3   61842   61830   61845       1
   61839   61830   61842       1   61839   61830   61845       1   61836   61854
   61866       3   61833   61848   61863       3   61827   61833   61851       3
   61827   61836   61857       3   61824   61830   61839       2   61824   61830
   61842       2   61824   61830   61845       2   62784   62733   62787       1
   62781   62733   62784       1   62781   62733   62787       1   62775   62730
   62778       1   62772   62730   62775       1   62772   62730   62778       1
   62766   62727   62769       1   62763   62727   62766       1   62763   62727
   62769       1   62757   62724   62760       1   62754   62724   62757       1
   62754   62724   62760       1   62748   62721   62751       1   62745   62721
   62748       1   62745   62721   62751       1   62739   62718   62742       1
   62736   62718   62739       1   62736   62718   62742       1   62715   62733
   62781       2   62715   62733   62784       2   62715   62733   62787       2
   62712   62730   62772       2   62712   62730   62775       2   62712   62730
   62778       2   62709   62727   62763       2   62709   62727   62766       2
   62709   62727   62769       2   62706   62724   62754       2   62706   62724
   62757       2   62706   62724   62760       2   62703   62721   62745       2
   62703   62721   62748       2   62703   62721   62751       2   62700   62718
   62736       2   62700   62718   62739       2   62700   62718   62742       2
   62691   62634   62694       3   62691   62640   62697       3   62682   62622
   62685       3   62682   62628   62688       3   62673   62610   62676       3
   62673   62616   62679       3   62667   62604   62670       3   62664   62598
   62667       3   62655   62589   62658       3   62655   62595   62661       3
   62646   62574   62649       3   62646   62580   62652       3   62640   62571
   62643       3   62634   62568   62637       3   62628   62565   62631       3
   62622   62562   62625       3   62616   62559   62619       3   62610   62556
   62613       3   62604   62553   62607       3   62598   62550   62601       3
   62592   62547   62595       3   62586   62544   62589       3   62580   62541
   62583       3   62574   62538   62577       3   62571   62640   62697       3
   62568   62634   62694       3   62565   62628   62688       3   62562   62622
   62685       3   62559   62616   62679       3   62556   62610   62676       3
   62553   62604   62670       3   62550   62598   62664       3   62547   62595
   62661       3   62544   62589   62658       3   62541   62580   62652       3
   62538   62574   62649       3   62532   62568   62637       3   62532   62571
   62643       3   62529   62562   62625       3   62529   62565   62631       3
   62523   62556   62613       3   62523   62559   62619       3   62520   62550
   62601       3   62520   62553   62607       3   62517   62544   62586       3
   62517   62547   62592       3   62514   62538   62577       3   62514   62541
   62583       3   62508   62478   62511       3   62499   62469   62502       3
   62484   62448   62487       1   62481   62448   62484       1   62481   62448
   62487       1   62478   62508   62535       3   62475   62508   62535       3
   62472   62442   62475       3   62469   62499   62526       3   62463   62436
   62466       3   62463   62499   62526       3   62457   62433   62460       3
   62457   62451   62490       3   62451   62430   62454       3   62445   62478
   62511      11   62439   62469   62502      11   62430   62451   62490       3
   62427   62448   62481       2   62427   62448   62484       2   62427   62448
   62487       2   62424   62442   62472       3   62421   62436   62466       3
   62418   62433   62460       3   62415   62430   62454      11   62406   62385
   62409       3   62406   62391   62412       3   62397   62379   62403      11
   62391   62370   62394       3   62385   62367   62388       3   62379   62364
   62382       3   62373   62361   62376       3   62370   62391   62412       3
   62367   62385   62409       3   62364   62379   62403       3   62358   62367
   62388       3   62358   62370   62394       3   62355   62361   62376       3
   62355   62364   62382       3   62343   62331   62346       3   62343   62337
   62349       3   62337   62319   62340       3   62331   62316   62334       3
   62325   62313   62328       1   62322   62313   62325       1   62322   62313
   62328       1   62319   62337   62349       3   62316   62331   62346       3
   62310   62316   62334       3   62310   62319   62340       3   62307   62313
   62322       2   62307   62313   62325       2   62307   62313   62328       2
   63267   63216   63270       1   63264   63216   63267       1   63264   63216
   63270       1   63258   63213   63261       1   63255   63213   63258       1
   63255   63213   63261       1   63249   63210   63252       1   63246   63210
   63249       1   63246   63210   63252       1   63240   63207   63243       1
   63237   63207   63240       1   63237   63207   63243       1   63231   63204
   63234       1   63228   63204   63231       1   63228   63204   63234       1
   63222   63201   63225       1   63219   63201   63222       1   63219   63201
   63225       1   63198   63216   63264       2   63198   63216   63267       2
   63198   63216   63270       2   63195   63213   63255       2   63195   63213
   63258       2   63195   63213   63261       2   63192   63210   63246       2
   63192   63210   63249       2   63192   63210   63252       2   63189   63207
   63237       2   63189   63207   63240       2   63189   63207   63243       2
   63186   63204   63228       2   63186   63204   63231       2   63186   63204
   63234       2   63183   63201   63219       2   63183   63201   63222       2
   63183   63201   63225       2   63174   63117   63177       3   63174   63123
   63180       3   63165   63105   63168       3   63165   63111   63171       3
   63156   63093   63159       3   63156   63099   63162       3   63150   63087
   63153       3   63147   63081   63150       3   63138   63072   63141       3
   63138   63078   63144       3   63129   63057   63132       3   63129   63063
   63135       3   63123   63054   63126       3   63117   63051   63120       3
   63111   63048   63114       3   63105   63045   63108       3   63099   63042
   63102       3   63093   63039   63096       3   63087   63036   63090       3
   63081   63033   63084       3   63075   63030   63078       3   63069   63027
   63072       3   63063   63024   63066       3   63057   63021   63060       3
   63054   63123   63180       3   63051   63117   63177       3   63048   63111
   63171       3   63045   63105   63168       3   63042   63099   63162       3
   63039   63093   63159       3   63036   63087   63153       3   63033   63081
   63147       3   63030   63078   63144       3   63027   63072   63141       3
   63024   63063   63135       3   63021   63057   63132       3   63015   63051
   63120       3   63015   63054   63126       3   63012   63045   63108       3
   63012   63048   63114       3   63006   63039   63096       3   63006   63042
   63102       3   63003   63033   63084       3   63003   63036   63090       3
   63000   63027   63069       3   63000   63030   63075       3   62997   63021
   63060       3   62997   63024   63066       3   62991   62961   62994       3
   62982   62952   62985       3   62967   62931   62970       1   62964   62931
   62967       1   62964   62931   62970       1   62961   62991   63018       3
   62958   62991   63018       3   62955   62925   62958       3   62952   62982
   63009       3   62946   62919   62949       3   62946   62982   63009       3
   62940   62916   62943       3   62940   62934   62973       3   62934   62913
   62937       3   62928   62961   62994      11   62922   62952   62985      11
   62913   62934   62973       3   62910   62931   62964       2   62910   62931
   62967       2   62910   62931   62970       2   62907   62925   62955       3
   62904   62919   62949       3   62901   62916   62943       3   62898   62913
   62937      11   62889   62868   62892       3   62889   62874   62895       3
   62880   62862   62886      11   62874   62853   62877       3   62868   62850
   62871       3   62862   62847   62865       3   62856   62844   62859       3
   62853   62874   62895       3   62850   62868   62892       3   62847   62862
   62886       3   62841   62850   62871       3   62841   62853   62877       3
   62838   62844   62859       3   62838   62847   62865       3   62826   62814
   62829       3   62826   62820   62832       3   62820   62802   62823       3
   62814   62799   62817       3   62808   62796   62811       1   62805   62796
   62808       1   62805   62796   62811       1   62802   62820   62832       3
   62799   62814   62829       3   62793   62799   62817       3   62793   62802
   62823       3   62790   62796   62805       2   62790   62796   62808       2
   62790   62796   62811       2   63750   63699   63753       1   63747   63699
   63750       1   63747   63699   63753       1   63741   63696   63744       1
   63738   63696   63741       1   63738   63696   63744       1   63732   63693
   63735       1   63729   63693   63732       1   63729   63693   63735       1
   63723   63690   63726       1   63720   63690   63723       1   63720   63690
   63726       1   63714   63687   63717       1   63711   63687   63714       1
   63711   63687   63717       1   63705   63684   63708       1   63702   63684
   63705       1   63702   63684   63708       1   63681   63699   63747       2
   63681   63699   63750       2   63681   63699   63753       2   63678   63696
   63738       2   63678   63696   63741       2   63678   63696   63744       2
   63675   63693   63729       2   63675   63693   63732       2   63675   63693
   63735       2   63672   63690   63720       2   63672   63690   63723       2
   63672   63690   63726       2   63669   63687   63711       2   63669   63687
   63714       2   63669   63687   63717       2   63666   63684   63702       2
   63666   63684   63705       2   63666   63684   63708       2   63657   63600
   63660       3   63657   63606   63663       3   63648   63588   63651       3
   63648   63594   63654       3   63639   63576   63642       3   63639   63582
   63645       3   63633   63570   63636       3   63630   63564   63633       3
   63621   63555   63624       3   63621   63561   63627       3   63612   63540
   63615       3   63612   63546   63618       3   63606   63537   63609       3
   63600   63534   63603       3   63594   63531   63597       3   63588   63528
   63591       3   63582   63525   63585       3   63576   63522   63579       3
   63570   63519   63573       3   63564   63516   63567       3   63558   63513
   63561       3   63552   63510   63555       3   63546   63507   63549       3
   63540   63504   63543       3   63537   63606   63663       3   63534   63600
   63660       3   63531   63594   63654       3   63528   63588   63651       3
   63525   63582   63645       3   63522   63576   63642       3   63519   63570
   63636       3   63516   63564   63630       3   63513   63561   63627       3
   63510   63555   63624       3   63507   63546   63618       3   63504   63540
   63615       3   63498   63534   63603       3   63498   63537   63609       3
   63495   63528   63591       3   63495   63531   63597       3   63489   63522
   63579       3   63489   63525   63585       3   63486   63516   63567       3
   63486   63519   63573       3   63483   63510   63552       3   63483   63513
   63558       3   63480   63504   63543       3   63480   63507   63549       3
   63474   63444   63477       3   63465   63435   63468       3   63450   63414
   63453       1   63447   63414   63450       1   63447   63414   63453       1
   63444   63474   63501       3   63441   63474   63501       3   63438   63408
   63441       3   63435   63465   63492       3   63429   63402   63432       3
   63429   63465   63492       3   63423   63399   63426       3   63423   63417
   63456       3   63417   63396   63420       3   63411   63444   63477      11
   63405   63435   63468      11   63396   63417   63456       3   63393   63414
   63447       2   63393   63414   63450       2   63393   63414   63453       2
   63390   63408   63438       3   63387   63402   63432       3   63384   63399
   63426       3   63381   63396   63420      11   63372   63351   63375       3
   63372   63357   63378       3   63363   63345   63369      11   63357   63336
   63360       3   63351   63333   63354       3   63345   63330   63348       3
   63339   63327   63342       3   63336   63357   63378       3   63333   63351
   63375       3   63330   63345   63369       3   63324   63333   63354       3
   63324   63336   63360       3   63321   63327   63342       3   63321   63330
   63348       3   63309   63297   63312       3   63309   63303   63315       3
   63303   63285   63306       3   63297   63282   63300       3   63291   63279
   63294       1   63288   63279   63291       1   63288   63279   63294       1
   63285   63303   63315       3   63282   63297   63312       3   63276   63282
   63300       3   63276   63285   63306       3   63273   63279   63288       2
   63273   63279   63291       2   63273   63279   63294       2   64233   64182
   64236       1   64230   64182   64233       1   64230   64182   64236       1
   64224   64179   64227       1   64221   64179   64224       1   64221   64179
   64227       1   64215   64176   64218       1   64212   64176   64215       1
   64212   64176   64218       1   64206   64173   64209       1   64203   64173
   64206       1   64203   64173   64209       1   64197   64170   64200       1
   64194   64170   64197       1   64194   64170   64200       1   64188   64167
   64191       1   64185   64167   64188       1   64185   64167   64191       1
   64164   64182   64230       2   64164   64182   64233       2   64164   64182
   64236       2   64161   64179   64221       2   64161   64179   64224       2
   64161   64179   64227       2   64158   64176   64212       2   64158   64176
   64215       2   64158   64176   64218       2   64155   64173   64203       2
   64155   64173   64206       2   64155   64173   64209       2   64152   64170
   64194       2   64152   64170   64197       2   64152   64170   64200       2
   64149   64167   64185       2   64149   64167   64188       2   64149   64167
   64191       2   64140   64083   64143       3   64140   64089   64146       3
   64131   64071   64134       3   64131   64077   64137       3   64122   64059
   64125       3   64122   64065   64128       3   64116   64053   64119       3
   64113   64047   64116       3   64104   64038   64107       3   64104   64044
   64110       3   64095   64023   64098       3   64095   64029   64101       3
   64089   64020   64092       3   64083   64017   64086       3   64077   64014
   64080       3   64071   64011   64074       3   64065   64008   64068       3
   64059   64005   64062       3   64053   64002   64056       3   64047   63999
   64050       3   64041   63996   64044       3   64035   63993   64038       3
   64029   63990   64032       3   64023   63987   64026       3   64020   64089
   64146       3   64017   64083   64143       3   64014   64077   64137       3
   64011   64071   64134       3   64008   64065   64128       3   64005   64059
   64125       3   64002   64053   64119       3   63999   64047   64113       3
   63996   64044   64110       3   63993   64038   64107       3   63990   64029
   64101       3   63987   64023   64098       3   63981   64017   64086       3
   63981   64020   64092       3   63978   64011   64074       3   63978   64014
   64080       3   63972   64005   64062       3   63972   64008   64068       3
   63969   63999   64050       3   63969   64002   64056       3   63966   63993
   64035       3   63966   63996   64041       3   63963   63987   64026       3
   63963   63990   64032       3   63957   63927   63960       3   63948   63918
   63951       3   63933   63897   63936       1   63930   63897   63933       1
   63930   63897   63936       1   63927   63957   63984       3   63924   63957
   63984       3   63921   63891   63924       3   63918   63948   63975       3
   63912   63885   63915       3   63912   63948   63975       3   63906   63882
   63909       3   63906   63900   63939       3   63900   63879   63903       3
   63894   63927   63960      11   63888   63918   63951      11   63879   63900
   63939       3   63876   63897   63930       2   63876   63897   63933       2
   63876   63897   63936       2   63873   63891   63921       3   63870   63885
   63915       3   63867   63882   63909       3   63864   63879   63903      11
   63855   63834   63858       3   63855   63840   63861       3   63846   63828
   63852      11   63840   63819   63843       3   63834   63816   63837       3
   63828   63813   63831       3   63822   63810   63825       3   63819   63840
   63861       3   63816   63834   63858       3   63813   63828   63852       3
   63807   63816   63837       3   63807   63819   63843       3   63804   63810
   63825       3   63804   63813   63831       3   63792   63780   63795       3
   63792   63786   63798       3   63786   63768   63789       3   63780   63765
   63783       3   63774   63762   63777       1   63771   63762   63774       1
   63771   63762   63777       1   63768   63786   63798       3   63765   63780
   63795       3   63759   63765   63783       3   63759   63768   63789       3
   63756   63762   63771       2   63756   63762   63774       2   63756   63762
   63777       2   64716   64665   64719       1   64713   64665   64716       1
   64713   64665   64719       1   64707   64662   64710       1   64704   64662
   64707       1   64704   64662   64710       1   64698   64659   64701       1
   64695   64659   64698       1   64695   64659   64701       1   64689   64656
   64692       1   64686   64656   64689       1   64686   64656   64692       1
   64680   64653   64683       1   64677   64653   64680       1   64677   64653
   64683       1   64671   64650   64674       1   64668   64650   64671       1
   64668   64650   64674       1   64647   64665   64713       2   64647   64665
   64716       2   64647   64665   64719       2   64644   64662   64704       2
   64644   64662   64707       2   64644   64662   64710       2   64641   64659
   64695       2   64641   64659   64698       2   64641   64659   64701       2
   64638   64656   64686       2   64638   64656   64689       2   64638   64656
   64692       2   64635   64653   64677       2   64635   64653   64680       2
   64635   64653   64683       2   64632   64650   64668       2   64632   64650
   64671       2   64632   64650   64674       2   64623   64566   64626       3
   64623   64572   64629       3   64614   64554   64617       3   64614   64560
   64620       3   64605   64542   64608       3   64605   64548   64611       3
   64599   64536   64602       3   64596   64530   64599       3   64587   64521
   64590       3   64587   64527   64593       3   64578   64506   64581       3
   64578   64512   64584       3   64572   64503   64575       3   64566   64500
   64569       3   64560   64497   64563       3   64554   64494   64557       3
   64548   64491   64551       3   64542   64488   64545       3   64536   64485
   64539       3   64530   64482   64533       3   64524   64479   64527       3
   64518   64476   64521       3   64512   64473   64515       3   64506   64470
   64509       3   64503   64572   64629       3   64500   64566   64626       3
   64497   64560   64620       3   64494   64554   64617       3   64491   64548
   64611       3   64488   64542   64608       3   64485   64536   64602       3
   64482   64530   64596       3   64479   64527   64593       3   64476   64521
   64590       3   64473   64512   64584       3   64470   64506   64581       3
   64464   64500   64569       3   64464   64503   64575       3   64461   64494
   64557       3   64461   64497   64563       3   64455   64488   64545       3
   64455   64491   64551       3   64452   64482   64533       3   64452   64485
   64539       3   64449   64476   64518       3   64449   64479   64524       3
   64446   64470   64509       3   64446   64473   64515       3   64440   64410
   64443       3   64431   64401   64434       3   64416   64380   64419       1
   64413   64380   64416       1   64413   64380   64419       1   64410   64440
   64467       3   64407   64440   64467       3   64404   64374   64407       3
   64401   64431   64458       3   64395   64368   64398       3   64395   64431
   64458       3   64389   64365   64392       3   64389   64383   64422       3
   64383   64362   64386       3   64377   64410   64443      11   64371   64401
   64434      11   64362   64383   64422       3   64359   64380   64413       2
   64359   64380   64416       2   64359   64380   64419       2   64356   64374
   64404       3   64353   64368   64398       3   64350   64365   64392       3
   64347   64362   64386      11   64338   64317   64341       3   64338   64323
   64344       3   64329   64311   64335      11   64323   64302   64326       3
   64317   64299   64320       3   64311   64296   64314       3   64305   64293
   64308       3   64302   64323   64344       3   64299   64317   64341       3
   64296   64311   64335       3   64290   64299   64320       3   64290   64302
   64326       3   64287   64293   64308       3   64287   64296   64314       3
   64275   64263   64278       3   64275   64269   64281       3   64269   64251
   64272       3   64263   64248   64266       3   64257   64245   64260       1
   64254   64245   64257       1   64254   64245   64260       1   64251   64269
   64281       3   64248   64263   64278       3   64242   64248   64266       3
   64242   64251   64272       3   64239   64245   64254       2   64239   64245
   64257       2   64239   64245   64260       2   65199   65148   65202       1
   65196   65148   65199       1   65196   65148   65202       1   65190   65145
   65193       1   65187   65145   65190       1   65187   65145   65193       1
   65181   65142   65184       1   65178   65142   65181       1   65178   65142
   65184       1   65172   65139   65175       1   65169   65139   65172       1
   65169   65139   65175       1   65163   65136   65166       1   65160   65136
   65163       1   65160   65136   65166       1   65154   65133   65157       1
   65151   65133   65154       1   65151   65133   65157       1   65130   65148
   65196       2   65130   65148   65199       2   65130   65148   65202       2
   65127   65145   65187       2   65127   65145   65190       2   65127   65145
   65193       2   65124   65142   65178       2   65124   65142   65181       2
   65124   65142   65184       2   65121   65139   65169       2   65121   65139
   65172       2   65121   65139   65175       2   65118   65136   65160       2
   65118   65136   65163       2   65118   65136   65166       2   65115   65133
   65151       2   65115   65133   65154       2   65115   65133   65157       2
   65106   65049   65109       3   65106   65055   65112       3   65097   65037
   65100       3   65097   65043   65103       3   65088   65025   65091       3
   65088   65031   65094       3   65082   65019   65085       3   65079   65013
   65082       3   65070   65004   65073       3   65070   65010   65076       3
   65061   64989   65064       3   65061   64995   65067       3   65055   64986
   65058       3   65049   64983   65052       3   65043   64980   65046       3
   65037   64977   65040       3   65031   64974   65034       3   65025   64971
   65028       3   65019   64968   65022       3   65013   64965   65016       3
   65007   64962   65010       3   65001   64959   65004       3   64995   64956
   64998       3   64989   64953   64992       3   64986   65055   65112       3
   64983   65049   65109       3   64980   65043   65103       3   64977   65037
   65100       3   64974   65031   65094       3   64971   65025   65091       3
   64968   65019   65085       3   64965   65013   65079       3   64962   65010
   65076       3   64959   65004   65073       3   64956   64995   65067       3
   64953   64989   65064       3   64947   64983   65052       3   64947   64986
   65058       3   64944   64977   65040       3   64944   64980   65046       3
   64938   64971   65028       3   64938   64974   65034       3   64935   64965
   65016       3   64935   64968   65022       3   64932   64959   65001       3
   64932   64962   65007       3   64929   64953   64992       3   64929   64956
   64998       3   64923   64893   64926       3   64914   64884   64917       3
   64899   64863   64902       1   64896   64863   64899       1   64896   64863
   64902       1   64893   64923   64950       3   64890   64923   64950       3
   64887   64857   64890       3   64884   64914   64941       3   64878   64851
   64881       3   64878   64914   64941       3   64872   64848   64875       3
   64872   64866   64905       3   64866   64845   64869       3   64860   64893
   64926      11   64854   64884   64917      11   64845   64866   64905       3
   64842   64863   64896       2   64842   64863   64899       2   64842   64863
   64902       2   64839   64857   64887       3   64836   64851   64881       3
   64833   64848   64875       3   64830   64845   64869      11   64821   64800
   64824       3   64821   64806   64827       3   64812   64794   64818      11
   64806   64785   64809       3   64800   64782   64803       3   64794   64779
   64797       3   64788   64776   64791       3   64785   64806   64827       3
   64782   64800   64824       3   64779   64794   64818       3   64773   64782
   64803       3   64773   64785   64809       3   64770   64776   64791       3
   64770   64779   64797       3   64758   64746   64761       3   64758   64752
   64764       3   64752   64734   64755       3   64746   64731   64749       3
   64740   64728   64743       1   64737   64728   64740       1   64737   64728
   64743       1   64734   64752   64764       3   64731   64746   64761       3
   64725   64731   64749       3   64725   64734   64755       3   64722   64728
   64737       2   64722   64728   64740       2   64722   64728   64743       2
   65682   65631   65685       1   65679   65631   65682       1   65679   65631
   65685       1   65673   65628   65676       1   65670   65628   65673       1
   65670   65628   65676       1   65664   65625   65667       1   65661   65625
   65664       1   65661   65625   65667       1   65655   65622   65658       1
   65652   65622   65655       1   65652   65622   65658       1   65646   65619
   65649       1   65643   65619   65646       1   65643   65619   65649       1
   65637   65616   65640       1   65634   65616   65637       1   65634   65616
   65640       1   65613   65631   65679       2   65613   65631   65682       2
   65613   65631   65685       2   65610   65628   65670       2   65610   65628
   65673       2   65610   65628   65676       2   65607   65625   65661       2
   65607   65625   65664       2   65607   65625   65667       2   65604   65622
   65652       2   65604   65622   65655       2   65604   65622   65658       2
   65601   65619   65643       2   65601   65619   65646       2   65601   65619
   65649       2   65598   65616   65634       2   65598   65616   65637       2
   65598   65616   65640       2   65589   65532   65592       3   65589   65538
   65595       3   65580   65520   65583       3   65580   65526   65586       3
   65571   65508   65574       3   65571   65514   65577       3   65565   65502
   65568       3   65562   65496   65565       3   65553   65487   65556       3
   65553   65493   65559       3   65544   65472   65547       3   65544   65478
   65550       3   65538   65469   65541       3   65532   65466   65535       3
   65526   65463   65529       3   65520   65460   65523       3   65514   65457
   65517       3   65508   65454   65511       3   65502   65451   65505       3
   65496   65448   65499       3   65490   65445   65493       3   65484   65442
   65487       3   65478   65439   65481       3   65472   65436   65475       3
   65469   65538   65595       3   65466   65532   65592       3   65463   65526
   65586       3   65460   65520   65583       3   65457   65514   65577       3
   65454   65508   65574       3   65451   65502   65568       3   65448   65496
   65562       3   65445   65493   65559       3   65442   65487   65556       3
   65439   65478   65550       3   65436   65472   65547       3   65430   65466
   65535       3   65430   65469   65541       3   65427   65460   65523       3
   65427   65463   65529       3   65421   65454   65511       3   65421   65457
   65517       3   65418   65448   65499       3   65418   65451   65505       3
   65415   65442   65484       3   65415   65445   65490       3   65412   65436
   65475       3   65412   65439   65481       3   65406   65376   65409       3
   65397   65367   65400       3   65382   65346   65385       1   65379   65346
   65382       1   65379   65346   65385       1   65376   65406   65433       3
   65373   65406   65433       3   65370   65340   65373       3   65367   65397
   65424       3   65361   65334   65364       3   65361   65397   65424       3
   65355   65331   65358       3   65355   65349   65388       3   65349   65328
   65352       3   65343   65376   65409      11   65337   65367   65400      11
   65328   65349   65388       3   65325   65346   65379       2   65325   65346
   65382       2   65325   65346   65385       2   65322   65340   65370       3
   65319   65334   65364       3   65316   65331   65358       3   65313   65328
   65352      11   65304   65283   65307       3   65304   65289   65310       3
   65295   65277   65301      11   65289   65268   65292       3   65283   65265
   65286       3   65277   65262   65280       3   65271   65259   65274       3
   65268   65289   65310       3   65265   65283   65307       3   65262   65277
   65301       3   65256   65265   65286       3   65256   65268   65292       3
   65253   65259   65274       3   65253   65262   65280       3   65241   65229
   65244       3   65241   65235   65247       3   65235   65217   65238       3
   65229   65214   65232       3   65223   65211   65226       1   65220   65211
   65223       1   65220   65211   65226       1   65217   65235   65247       3
   65214   65229   65244       3   65208   65214   65232       3   65208   65217
   65238       3   65205   65211   65220       2   65205   65211   65223       2
   65205   65211   65226       2   66165   66114   66168       1   66162   66114
   66165       1   66162   66114   66168       1   66156   66111   66159       1
   66153   66111   66156       1   66153   66111   66159       1   66147   66108
   66150       1   66144   66108   66147       1   66144   66108   66150       1
   66138   66105   66141       1   66135   66105   66138       1   66135   66105
   66141       1   66129   66102   66132       1   66126   66102   66129       1
   66126   66102   66132       1   66120   66099   66123       1   66117   66099
   66120       1   66117   66099   66123       1   66096   66114   66162       2
   66096   66114   66165       2   66096   66114   66168       2   66093   66111
   66153       2   66093   66111   66156       2   66093   66111   66159       2
   66090   66108   66144       2   66090   66108   66147       2   66090   66108
   66150       2   66087   66105   66135       2   66087   66105   66138       2
   66087   66105   66141       2   66084   66102   66126       2   66084   66102
   66129       2   66084   66102   66132       2   66081   66099   66117       2
   66081   66099   66120       2   66081   66099   66123       2   66072   66015
   66075       3   66072   66021   66078       3   66063   66003   66066       3
   66063   66009   66069       3   66054   65991   66057       3   66054   65997
   66060       3   66048   65985   66051       3   66045   65979   66048       3
   66036   65970   66039       3   66036   65976   66042       3   66027   65955
   66030       3   66027   65961   66033       3   66021   65952   66024       3
   66015   65949   66018       3   66009   65946   66012       3   66003   65943
   66006       3   65997   65940   66000       3   65991   65937   65994       3
   65985   65934   65988       3   65979   65931   65982       3   65973   65928
   65976       3   65967   65925   65970       3   65961   65922   65964       3
   65955   65919   65958       3   65952   66021   66078       3   65949   66015
   66075       3   65946   66009   66069       3   65943   66003   66066       3
   65940   65997   66060       3   65937   65991   66057       3   65934   65985
   66051       3   65931   65979   66045       3   65928   65976   66042       3
   65925   65970   66039       3   65922   65961   66033       3   65919   65955
   66030       3   65913   65949   66018       3   65913   65952   66024       3
   65910   65943   66006       3   65910   65946   66012       3   65904   65937
   65994       3   65904   65940   66000       3   65901   65931   65982       3
   65901   65934   65988       3   65898   65925   65967       3   65898   65928
   65973       3   65895   65919   65958       3   65895   65922   65964       3
   65889   65859   65892       3   65880   65850   65883       3   65865   65829
   65868       1   65862   65829   65865       1   65862   65829   65868       1
   65859   65889   65916       3   65856   65889   65916       3   65853   65823
   65856       3   65850   65880   65907       3   65844   65817   65847       3
   65844   65880   65907       3   65838   65814   65841       3   65838   65832
   65871       3   65832   65811   65835       3   65826   65859   65892      11
   65820   65850   65883      11   65811   65832   65871       3   65808   65829
   65862       2   65808   65829   65865       2   65808   65829   65868       2
   65805   65823   65853       3   65802   65817   65847       3   65799   65814
   65841       3   65796   65811   65835      11   65787   65766   65790       3
   65787   65772   65793       3   65778   65760   65784      11   65772   65751
   65775       3   65766   65748   65769       3   65760   65745   65763       3
   65754   65742   65757       3   65751   65772   65793       3   65748   65766
   65790       3   65745   65760   65784       3   65739   65748   65769       3
   65739   65751   65775       3   65736   65742   65757       3   65736   65745
   65763       3   65724   65712   65727       3   65724   65718   65730       3
   65718   65700   65721       3   65712   65697   65715       3   65706   65694
   65709       1   65703   65694   65706       1   65703   65694   65709       1
   65700   65718   65730       3   65697   65712   65727       3   65691   65697
   65715       3   65691   65700   65721       3   65688   65694   65703       2
   65688   65694   65706       2   65688   65694   65709       2   66648   66597
   66651       1   66645   66597   66648       1   66645   66597   66651       1
   66639   66594   66642       1   66636   66594   66639       1   66636   66594
   66642       1   66630   66591   66633       1   66627   66591   66630       1
   66627   66591   66633       1   66621   66588   66624       1   66618   66588
   66621       1   66618   66588   66624       1   66612   66585   66615       1
   66609   66585   66612       1   66609   66585   66615       1   66603   66582
   66606       1   66600   66582   66603       1   66600   66582   66606       1
   66579   66597   66645       2   66579   66597   66648       2   66579   66597
   66651       2   66576   66594   66636       2   66576   66594   66639       2
   66576   66594   66642       2   66573   66591   66627       2   66573   66591
   66630       2   66573   66591   66633       2   66570   66588   66618       2
   66570   66588   66621       2   66570   66588   66624       2   66567   66585
   66609       2   66567   66585   66612       2   66567   66585   66615       2
   66564   66582   66600       2   66564   66582   66603       2   66564   66582
   66606       2   66555   66498   66558       3   66555   66504   66561       3
   66546   66486   66549       3   66546   66492   66552       3   66537   66474
   66540       3   66537   66480   66543       3   66531   66468   66534       3
   66528   66462   66531       3   66519   66453   66522       3   66519   66459
   66525       3   66510   66438   66513       3   66510   66444   66516       3
   66504   66435   66507       3   66498   66432   66501       3   66492   66429
   66495       3   66486   66426   66489       3   66480   66423   66483       3
   66474   66420   66477       3   66468   66417   66471       3   66462   66414
   66465       3   66456   66411   66459       3   66450   66408   66453       3
   66444   66405   66447       3   66438   66402   66441       3   66435   66504
   66561       3   66432   66498   66558       3   66429   66492   66552       3
   66426   66486   66549       3   66423   66480   66543       3   66420   66474
   66540       3   66417   66468   66534       3   66414   66462   66528       3
   66411   66459   66525       3   66408   66453   66522       3   66405   66444
   66516       3   66402   66438   66513       3   66396   66432   66501       3
   66396   66435   66507       3   66393   66426   66489       3   66393   66429
   66495       3   66387   66420   66477       3   66387   66423   66483       3
   66384   66414   66465       3   66384   66417   66471       3   66381   66408
   66450       3   66381   66411   66456       3   66378   66402   66441       3
   66378   66405   66447       3   66372   66342   66375       3   66363   66333
   66366       3   66348   66312   66351       1   66345   66312   66348       1
   66345   66312   66351       1   66342   66372   66399       3   66339   66372
   66399       3   66336   66306   66339       3   66333   66363   66390       3
   66327   66300   66330       3   66327   66363   66390       3   66321   66297
   66324       3   66321   66315   66354       3   66315   66294   66318       3
   66309   66342   66375      11   66303   66333   66366      11   66294   66315
   66354       3   66291   66312   66345       2   66291   66312   66348       2
   66291   66312   66351       2   66288   66306   66336       3   66285   66300
   66330       3   66282   66297   66324       3   66279   66294   66318      11
   66270   66249   66273       3   66270   66255   66276       3   66261   66243
   66267      11   66255   66234   66258       3   66249   66231   66252       3
   66243   66228   66246       3   66237   66225   66240       3   66234   66255
   66276       3   66231   66249   66273       3   66228   66243   66267       3
   66222   66231   66252       3   66222   66234   66258       3   66219   66225
   66240       3   66219   66228   66246       3   66207   66195   66210       3
   66207   66201   66213       3   66201   66183   66204       3   66195   66180
   66198       3   66189   66177   66192       1   66186   66177   66189       1
   66186   66177   66192       1   66183   66201   66213       3   66180   66195
   66210       3   66174   66180   66198       3   66174   66183   66204       3
   66171   66177   66186       2   66171   66177   66189       2   66171   66177
   66192       2   67131   67080   67134       1   67128   67080   67131       1
   67128   67080   67134       1   67122   67077   67125       1   67119   67077
   67122       1   67119   67077   67125       1   67113   67074   67116       1
   67110   67074   67113       1   67110   67074   67116       1   67104   67071
   67107       1   67101   67071   67104       1   67101   67071   67107       1
   67095   67068   67098       1   67092   67068   67095       1   67092   67068
   67098       1   67086   67065   67089       1   67083   67065   67086       1
   67083   67065   67089       1   67062   67080   67128       2   67062   67080
   67131       2   67062   67080   67134       2   67059   67077   67119       2
   67059   67077   67122       2   67059   67077   67125       2   67056   67074
   67110       2   67056   67074   67113       2   67056   67074   67116       2
   67053   67071   67101       2   67053   67071   67104       2   67053   67071
   67107       2   67050   67068   67092       2   67050   67068   67095       2
   67050   67068   67098       2   67047   67065   67083       2   67047   67065
   67086       2   67047   67065   67089       2   67038   66981   67041       3
   67038   66987   67044       3   67029   66969   67032       3   67029   66975
   67035       3   67020   66957   67023       3   67020   66963   67026       3
   67014   66951   67017       3   67011   66945   67014       3   67002   66936
   67005       3   67002   66942   67008       3   66993   66921   66996       3
   66993   66927   66999       3   66987   66918   66990       3   66981   66915
   66984       3   66975   66912   66978       3   66969   66909   66972       3
   66963   66906   66966       3   66957   66903   66960       3   66951   66900
   66954       3   66945   66897   66948       3   66939   66894   66942       3
   66933   66891   66936       3   66927   66888   66930       3   66921   66885
   66924       3   66918   66987   67044       3   66915   66981   67041       3
   66912   66975   67035       3   66909   66969   67032       3   66906   66963
   67026       3   66903   66957   67023       3   66900   66951   67017       3
   66897   66945   67011       3   66894   66942   67008       3   66891   66936
   67005       3   66888   66927   66999       3   66885   66921   66996       3
   66879   66915   66984       3   66879   66918   66990       3   66876   66909
   66972       3   66876   66912   66978       3   66870   66903   66960       3
   66870   66906   66966       3   66867   66897   66948       3   66867   66900
   66954       3   66864   66891   66933       3   66864   66894   66939       3
   66861   66885   66924       3   66861   66888   66930       3   66855   66825
   66858       3   66846   66816   66849       3   66831   66795   66834       1
   66828   66795   66831       1   66828   66795   66834       1   66825   66855
   66882       3   66822   66855   66882       3   66819   66789   66822       3
   66816   66846   66873       3   66810   66783   66813       3   66810   66846
   66873       3   66804   66780   66807       3   66804   66798   66837       3
   66798   66777   66801       3   66792   66825   66858      11   66786   66816
   66849      11   66777   66798   66837       3   66774   66795   66828       2
   66774   66795   66831       2   66774   66795   66834       2   66771   66789
   66819       3   66768   66783   66813       3   66765   66780   66807       3
   66762   66777   66801      11   66753   66732   66756       3   66753   66738
   66759       3   66744   66726   66750      11   66738   66717   66741       3
   66732   66714   66735       3   66726   66711   66729       3   66720   66708
   66723       3   66717   66738   66759       3   66714   66732   66756       3
   66711   66726   66750       3   66705   66714   66735       3   66705   66717
   66741       3   66702   66708   66723       3   66702   66711   66729       3
   66690   66678   66693       3   66690   66684   66696       3   66684   66666
   66687       3   66678   66663   66681       3   66672   66660   66675       1
   66669   66660   66672       1   66669   66660   66675       1   66666   66684
   66696       3   66663   66678   66693       3   66657   66663   66681       3
   66657   66666   66687       3   66654   66660   66669       2   66654   66660
   66672       2   66654   66660   66675       2   67614   67563   67617       1
   67611   67563   67614       1   67611   67563   67617       1   67605   67560
   67608       1   67602   67560   67605       1   67602   67560   67608       1
   67596   67557   67599       1   67593   67557   67596       1   67593   67557
   67599       1   67587   67554   67590       1   67584   67554   67587       1
   67584   67554   67590       1   67578   67551   67581       1   67575   67551
   67578       1   67575   67551   67581       1   67569   67548   67572       1
   67566   67548   67569       1   67566   67548   67572       1   67545   67563
   67611       2   67545   67563   67614       2   67545   67563   67617       2
   67542   67560   67602       2   67542   67560   67605       2   67542   67560
   67608       2   67539   67557   67593       2   67539   67557   67596       2
   67539   67557   67599       2   67536   67554   67584       2   67536   67554
   67587       2   67536   67554   67590       2   67533   67551   67575       2
   67533   67551   67578       2   67533   67551   67581       2   67530   67548
   67566       2   67530   67548   67569       2   67530   67548   67572       2
   67521   67464   67524       3   67521   67470   67527       3   67512   67452
   67515       3   67512   67458   67518       3   67503   67440   67506       3
   67503   67446   67509       3   67497   67434   67500       3   67494   67428
   67497       3   67485   67419   67488       3   67485   67425   67491       3
   67476   67404   67479       3   67476   67410   67482       3   67470   67401
   67473       3   67464   67398   67467       3   67458   67395   67461       3
   67452   67392   67455       3   67446   67389   67449       3   67440   67386
   67443       3   67434   67383   67437       3   67428   67380   67431       3
   67422   67377   67425       3   67416   67374   67419       3   67410   67371
   67413       3   67404   67368   67407       3   67401   67470   67527       3
   67398   67464   67524       3   67395   67458   67518       3   67392   67452
   67515       3   67389   67446   67509       3   67386   67440   67506       3
   67383   67434   67500       3   67380   67428   67494       3   67377   67425
   67491       3   67374   67419   67488       3   67371   67410   67482       3
   67368   67404   67479       3   67362   67398   67467       3   67362   67401
   67473       3   67359   67392   67455       3   67359   67395   67461       3
   67353   67386   67443       3   67353   67389   67449       3   67350   67380
   67431       3   67350   67383   67437       3   67347   67374   67416       3
   67347   67377   67422       3   67344   67368   67407       3   67344   67371
   67413       3   67338   67308   67341       3   67329   67299   67332       3
   67314   67278   67317       1   67311   67278   67314       1   67311   67278
   67317       1   67308   67338   67365       3   67305   67338   67365       3
   67302   67272   67305       3   67299   67329   67356       3   67293   67266
   67296       3   67293   67329   67356       3   67287   67263   67290       3
   67287   67281   67320       3   67281   67260   67284       3   67275   67308
   67341      11   67269   67299   67332      11   67260   67281   67320       3
   67257   67278   67311       2   67257   67278   67314       2   67257   67278
   67317       2   67254   67272   67302       3   67251   67266   67296       3
   67248   67263   67290       3   67245   67260   67284      11   67236   67215
   67239       3   67236   67221   67242       3   67227   67209   67233      11
   67221   67200   67224       3   67215   67197   67218       3   67209   67194
   67212       3   67203   67191   67206       3   67200   67221   67242       3
   67197   67215   67239       3   67194   67209   67233       3   67188   67197
   67218       3   67188   67200   67224       3   67185   67191   67206       3
   67185   67194   67212       3   67173   67161   67176       3   67173   67167
   67179       3   67167   67149   67170       3   67161   67146   67164       3
   67155   67143   67158       1   67152   67143   67155       1   67152   67143
   67158       1   67149   67167   67179       3   67146   67161   67176       3
   67140   67146   67164       3   67140   67149   67170       3   67137   67143
   67152       2   67137   67143   67155       2   67137   67143   67158       2
   68097   68046   68100       1   68094   68046   68097       1   68094   68046
   68100       1   68088   68043   68091       1   68085   68043   68088       1
   68085   68043   68091       1   68079   68040   68082       1   68076   68040
   68079       1   68076   68040   68082       1   68070   68037   68073       1
   68067   68037   68070       1   68067   68037   68073       1   68061   68034
   68064       1   68058   68034   68061       1   68058   68034   68064       1
   68052   68031   68055       1   68049   68031   68052       1   68049   68031
   68055       1   68028   68046   68094       2   68028   68046   68097       2
   68028   68046   68100       2   68025   68043   68085       2   68025   68043
   68088       2   68025   68043   68091       2   68022   68040   68076       2
   68022   68040   68079       2   68022   68040   68082       2   68019   68037
   68067       2   68019   68037   68070       2   68019   68037   68073       2
   68016   68034   68058       2   68016   68034   68061       2   68016   68034
   68064       2   68013   68031   68049       2   68013   68031   68052       2
   68013   68031   68055       2   68004   67947   68007       3   68004   67953
   68010       3   67995   67935   67998       3   67995   67941   68001       3
   67986   67923   67989       3   67986   67929   67992       3   67980   67917
   67983       3   67977   67911   67980       3   67968   67902   67971       3
   67968   67908   67974       3   67959   67887   67962       3   67959   67893
   67965       3   67953   67884   67956       3   67947   67881   67950       3
   67941   67878   67944       3   67935   67875   67938       3   67929   67872
   67932       3   67923   67869   67926       3   67917   67866   67920       3
   67911   67863   67914       3   67905   67860   67908       3   67899   67857
   67902       3   67893   67854   67896       3   67887   67851   67890       3
   67884   67953   68010       3   67881   67947   68007       3   67878   67941
   68001       3   67875   67935   67998       3   67872   67929   67992       3
   67869   67923   67989       3   67866   67917   67983       3   67863   67911
   67977       3   67860   67908   67974       3   67857   67902   67971       3
   67854   67893   67965       3   67851   67887   67962       3   67845   67881
   67950       3   67845   67884   67956       3   67842   67875   67938       3
   67842   67878   67944       3   67836   67869   67926       3   67836   67872
   67932       3   67833   67863   67914       3   67833   67866   67920       3
   67830   67857   67899       3   67830   67860   67905       3   67827   67851
   67890       3   67827   67854   67896       3   67821   67791   67824       3
   67812   67782   67815       3   67797   67761   67800       1   67794   67761
   67797       1   67794   67761   67800       1   67791   67821   67848       3
   67788   67821   67848       3   67785   67755   67788       3   67782   67812
   67839       3   67776   67749   67779       3   67776   67812   67839       3
   67770   67746   67773       3   67770   67764   67803       3   67764   67743
   67767       3   67758   67791   67824      11   67752   67782   67815      11
   67743   67764   67803       3   67740   67761   67794       2   67740   67761
   67797       2   67740   67761   67800       2   67737   67755   67785       3
   67734   67749   67779       3   67731   67746   67773       3   67728   67743
   67767      11   67719   67698   67722       3   67719   67704   67725       3
   67710   67692   67716      11   67704   67683   67707       3   67698   67680
   67701       3   67692   67677   67695       3   67686   67674   67689       3
   67683   67704   67725       3   67680   67698   67722       3   67677   67692
   67716       3   67671   67680   67701       3   67671   67683   67707       3
   67668   67674   67689       3   67668   67677   67695       3   67656   67644
   67659       3   67656   67650   67662       3   67650   67632   67653       3
   67644   67629   67647       3   67638   67626   67641       1   67635   67626
   67638       1   67635   67626   67641       1   67632   67650   67662       3
   67629   67644   67659       3   67623   67629   67647       3   67623   67632
   67653       3   67620   67626   67635       2   67620   67626   67638       2
   67620   67626   67641       2   68580   68529   68583       1   68577   68529
   68580       1   68577   68529   68583       1   68571   68526   68574       1
   68568   68526   68571       1   68568   68526   68574       1   68562   68523
   68565       1   68559   68523   68562       1   68559   68523   68565       1
   68553   68520   68556       1   68550   68520   68553       1   68550   68520
   68556       1   68544   68517   68547       1   68541   68517   68544       1
   68541   68517   68547       1   68535   68514   68538       1   68532   68514
   68535       1   68532   68514   68538       1   68511   68529   68577       2
   68511   68529   68580       2   68511   68529   68583       2   68508   68526
   68568       2   68508   68526   68571       2   68508   68526   68574       2
   68505   68523   68559       2   68505   68523   68562       2   68505   68523
   68565       2   68502   68520   68550       2   68502   68520   68553       2
   68502   68520   68556       2   68499   68517   68541       2   68499   68517
   68544       2   68499   68517   68547       2   68496   68514   68532       2
   68496   68514   68535       2   68496   68514   68538       2   68487   68430
   68490       3   68487   68436   68493       3   68478   68418   68481       3
   68478   68424   68484       3   68469   68406   68472       3   68469   68412
   68475       3   68463   68400   68466       3   68460   68394   68463       3
   68451   68385   68454       3   68451   68391   68457       3   68442   68370
   68445       3   68442   68376   68448       3   68436   68367   68439       3
   68430   68364   68433       3   68424   68361   68427       3   68418   68358
   68421       3   68412   68355   68415       3   68406   68352   68409       3
   68400   68349   68403       3   68394   68346   68397       3   68388   68343
   68391       3   68382   68340   68385       3   68376   68337   68379       3
   68370   68334   68373       3   68367   68436   68493       3   68364   68430
   68490       3   68361   68424   68484       3   68358   68418   68481       3
   68355   68412   68475       3   68352   68406   68472       3   68349   68400
   68466       3   68346   68394   68460       3   68343   68391   68457       3
   68340   68385   68454       3   68337   68376   68448       3   68334   68370
   68445       3   68328   68364   68433       3   68328   68367   68439       3
   68325   68358   68421       3   68325   68361   68427       3   68319   68352
   68409       3   68319   68355   68415       3   68316   68346   68397       3
   68316   68349   68403       3   68313   68340   68382       3   68313   68343
   68388       3   68310   68334   68373       3   68310   68337   68379       3
   68304   68274   68307       3   68295   68265   68298       3   68280   68244
   68283       1   68277   68244   68280       1   68277   68244   68283       1
   68274   68304   68331       3   68271   68304   68331       3   68268   68238
   68271       3   68265   68295   68322       3   68259   68232   68262       3
   68259   68295   68322       3   68253   68229   68256       3   68253   68247
   68286       3   68247   68226   68250       3   68241   68274   68307      11
   68235   68265   68298      11   68226   68247   68286       3   68223   68244
   68277       2   68223   68244   68280       2   68223   68244   68283       2
   68220   68238   68268       3   68217   68232   68262       3   68214   68229
   68256       3   68211   68226   68250      11   68202   68181   68205       3
   68202   68187   68208       3   68193   68175   68199      11   68187   68166
   68190       3   68181   68163   68184       3   68175   68160   68178       3
   68169   68157   68172       3   68166   68187   68208       3   68163   68181
   68205       3   68160   68175   68199       3   68154   68163   68184       3
   68154   68166   68190       3   68151   68157   68172       3   68151   68160
   68178       3   68139   68127   68142       3   68139   68133   68145       3
   68133   68115   68136       3   68127   68112   68130       3   68121   68109
   68124       1   68118   68109   68121       1   68118   68109   68124       1
   68115   68133   68145       3   68112   68127   68142       3   68106   68112
   68130       3   68106   68115   68136       3   68103   68109   68118       2
   68103   68109   68121       2   68103   68109   68124       2   69063   69012
   69066       1   69060   69012   69063       1   69060   69012   69066       1
   69054   69009   69057       1   69051   69009   69054       1   69051   69009
   69057       1   69045   69006   69048       1   69042   69006   69045       1
   69042   69006   69048       1   69036   69003   69039       1   69033   69003
   69036       1   69033   69003   69039       1   69027   69000   69030       1
   69024   69000   69027       1   69024   69000   69030       1   69018   68997
   69021       1   69015   68997   69018       1   69015   68997   69021       1
   68994   69012   69060       2   68994   69012   69063       2   68994   69012
   69066       2   68991   69009   69051       2   68991   69009   69054       2
   68991   69009   69057       2   68988   69006   69042       2   68988   69006
   69045       2   68988   69006   69048       2   68985   69003   69033       2
   68985   69003   69036       2   68985   69003   69039       2   68982   69000
   69024       2   68982   69000   69027       2   68982   69000   69030       2
   68979   68997   69015       2   68979   68997   69018       2   68979   68997
   69021       2   68970   68913   68973       3   68970   68919   68976       3
   68961   68901   68964       3   68961   68907   68967       3   68952   68889
   68955       3   68952   68895   68958       3   68946   68883   68949       3
   68943   68877   68946       3   68934   68868   68937       3   68934   68874
   68940       3   68925   68853   68928       3   68925   68859   68931       3
   68919   68850   68922       3   68913   68847   68916       3   68907   68844
   68910       3   68901   68841   68904       3   68895   68838   68898       3
   68889   68835   68892       3   68883   68832   68886       3   68877   68829
   68880       3   68871   68826   68874       3   68865   68823   68868       3
   68859   68820   68862       3   68853   68817   68856       3   68850   68919
   68976       3   68847   68913   68973       3   68844   68907   68967       3
   68841   68901   68964       3   68838   68895   68958       3   68835   68889
   68955       3   68832   68883   68949       3   68829   68877   68943       3
   68826   68874   68940       3   68823   68868   68937       3   68820   68859
   68931       3   68817   68853   68928       3   68811   68847   68916       3
   68811   68850   68922       3   68808   68841   68904       3   68808   68844
   68910       3   68802   68835   68892       3   68802   68838   68898       3
   68799   68829   68880       3   68799   68832   68886       3   68796   68823
   68865       3   68796   68826   68871       3   68793   68817   68856       3
   68793   68820   68862       3   68787   68757   68790       3   68778   68748
   68781       3   68763   68727   68766       1   68760   68727   68763       1
   68760   68727   68766       1   68757   68787   68814       3   68754   68787
   68814       3   68751   68721   68754       3   68748   68778   68805       3
   68742   68715   68745       3   68742   68778   68805       3   68736   68712
   68739       3   68736   68730   68769       3   68730   68709   68733       3
   68724   68757   68790      11   68718   68748   68781      11   68709   68730
   68769       3   68706   68727   68760       2   68706   68727   68763       2
   68706   68727   68766       2   68703   68721   68751       3   68700   68715
   68745       3   68697   68712   68739       3   68694   68709   68733      11
   68685   68664   68688       3   68685   68670   68691       3   68676   68658
   68682      11   68670   68649   68673       3   68664   68646   68667       3
   68658   68643   68661       3   68652   68640   68655       3   68649   68670
   68691       3   68646   68664   68688       3   68643   68658   68682       3
   68637   68646   68667       3   68637   68649   68673       3   68634   68640
   68655       3   68634   68643   68661       3   68622   68610   68625       3
   68622   68616   68628       3   68616   68598   68619       3   68610   68595
   68613       3   68604   68592   68607       1   68601   68592   68604       1
   68601   68592   68607       1   68598   68616   68628       3   68595   68610
   68625       3   68589   68595   68613       3   68589   68598   68619       3
   68586   68592   68601       2   68586   68592   68604       2   68586   68592
   68607       2   69546   69495   69549       1   69543   69495   69546       1
   69543   69495   69549       1   69537   69492   69540       1   69534   69492
   69537       1   69534   69492   69540       1   69528   69489   69531       1
   69525   69489   69528       1   69525   69489   69531       1   69519   69486
   69522       1   69516   69486   69519       1   69516   69486   69522       1
   69510   69483   69513       1   69507   69483   69510       1   69507   69483
   69513       1   69501   69480   69504       1   69498   69480   69501       1
   69498   69480   69504       1   69477   69495   69543       2   69477   69495
   69546       2   69477   69495   69549       2   69474   69492   69534       2
   69474   69492   69537       2   69474   69492   69540       2   69471   69489
   69525       2   69471   69489   69528       2   69471   69489   69531       2
   69468   69486   69516       2   69468   69486   69519       2   69468   69486
   69522       2   69465   69483   69507       2   69465   69483   69510       2
   69465   69483   69513       2   69462   69480   69498       2   69462   69480
   69501       2   69462   69480   69504       2   69453   69396   69456       3
   69453   69402   69459       3   69444   69384   69447       3   69444   69390
   69450       3   69435   69372   69438       3   69435   69378   69441       3
   69429   69366   69432       3   69426   69360   69429       3   69417   69351
   69420       3   69417   69357   69423       3   69408   69336   69411       3
   69408   69342   69414       3   69402   69333   69405       3   69396   69330
   69399       3   69390   69327   69393       3   69384   69324   69387       3
   69378   69321   69381       3   69372   69318   69375       3   69366   69315
   69369       3   69360   69312   69363       3   69354   69309   69357       3
   69348   69306   69351       3   69342   69303   69345       3   69336   69300
   69339       3   69333   69402   69459       3   69330   69396   69456       3
   69327   69390   69450       3   69324   69384   69447       3   69321   69378
   69441       3   69318   69372   69438       3   69315   69366   69432       3
   69312   69360   69426       3   69309   69357   69423       3   69306   69351
   69420       3   69303   69342   69414       3   69300   69336   69411       3
   69294   69330   69399       3   69294   69333   69405       3   69291   69324
   69387       3   69291   69327   69393       3   69285   69318   69375       3
   69285   69321   69381       3   69282   69312   69363       3   69282   69315
   69369       3   69279   69306   69348       3   69279   69309   69354       3
   69276   69300   69339       3   69276   69303   69345       3   69270   69240
   69273       3   69261   69231   69264       3   69246   69210   69249       1
   69243   69210   69246       1   69243   69210   69249       1   69240   69270
   69297       3   69237   69270   69297       3   69234   69204   69237       3
   69231   69261   69288       3   69225   69198   69228       3   69225   69261
   69288       3   69219   69195   69222       3   69219   69213   69252       3
   69213   69192   69216       3   69207   69240   69273      11   69201   69231
   69264      11   69192   69213   69252       3   69189   69210   69243       2
   69189   69210   69246       2   69189   69210   69249       2   69186   69204
   69234       3   69183   69198   69228       3   69180   69195   69222       3
   69177   69192   69216      11   69168   69147   69171       3   69168   69153
   69174       3   69159   69141   69165      11   69153   69132   69156       3
   69147   69129   69150       3   69141   69126   69144       3   69135   69123
   69138       3   69132   69153   69174       3   69129   69147   69171       3
   69126   69141   69165       3   69120   69129   69150       3   69120   69132
   69156       3   69117   69123   69138       3   69117   69126   69144       3
   69105   69093   69108       3   69105   69099   69111       3   69099   69081
   69102       3   69093   69078   69096       3   69087   69075   69090       1
   69084   69075   69087       1   69084   69075   69090       1   69081   69099
   69111       3   69078   69093   69108       3   69072   69078   69096       3
   69072   69081   69102       3   69069   69075   69084       2   69069   69075
   69087       2   69069   69075   69090       2   70029   69978   70032       1
   70026   69978   70029       1   70026   69978   70032       1   70020   69975
   70023       1   70017   69975   70020       1   70017   69975   70023       1
   70011   69972   70014       1   70008   69972   70011       1   70008   69972
   70014       1   70002   69969   70005       1   69999   69969   70002       1
   69999   69969   70005       1   69993   69966   69996       1   69990   69966
   69993       1   69990   69966   69996       1   69984   69963   69987       1
   69981   69963   69984       1   69981   69963   69987       1   69960   69978
   70026       2   69960   69978   70029       2   69960   69978   70032       2
   69957   69975   70017       2   69957   69975   70020       2   69957   69975
   70023       2   69954   69972   70008       2   69954   69972   70011       2
   69954   69972   70014       2   69951   69969   69999       2   69951   69969
   70002       2   69951   69969   70005       2   69948   69966   69990       2
   69948   69966   69993       2   69948   69966   69996       2   69945   69963
   69981       2   69945   69963   69984       2   69945   69963   69987       2
   69936   69879   69939       3   69936   69885   69942       3   69927   69867
   69930       3   69927   69873   69933       3   69918   69855   69921       3
   69918   69861   69924       3   69912   69849   69915       3   69909   69843
   69912       3   69900   69834   69903       3   69900   69840   69906       3
   69891   69819   69894       3   69891   69825   69897       3   69885   69816
   69888       3   69879   69813   69882       3   69873   69810   69876       3
   69867   69807   69870       3   69861   69804   69864       3   69855   69801
   69858       3   69849   69798   69852       3   69843   69795   69846       3
   69837   69792   69840       3   69831   69789   69834       3   69825   69786
   69828       3   69819   69783   69822       3   69816   69885   69942       3
   69813   69879   69939       3   69810   69873   69933       3   69807   69867
   69930       3   69804   69861   69924       3   69801   69855   69921       3
   69798   69849   69915       3   69795   69843   69909       3   69792   69840
   69906       3   69789   69834   69903       3   69786   69825   69897       3
   69783   69819   69894       3   69777   69813   69882       3   69777   69816
   69888       3   69774   69807   69870       3   69774   69810   69876       3
   69768   69801   69858       3   69768   69804   69864       3   69765   69795
   69846       3   69765   69798   69852       3   69762   69789   69831       3
   69762   69792   69837       3   69759   69783   69822       3   69759   69786
   69828       3   69753   69723   69756       3   69744   69714   69747       3
   69729   69693   69732       1   69726   69693   69729       1   69726   69693
   69732       1   69723   69753   69780       3   69720   69753   69780       3
   69717   69687   69720       3   69714   69744   69771       3   69708   69681
   69711       3   69708   69744   69771       3   69702   69678   69705       3
   69702   69696   69735       3   69696   69675   69699       3   69690   69723
   69756      11   69684   69714   69747      11   69675   69696   69735       3
   69672   69693   69726       2   69672   69693   69729       2   69672   69693
   69732       2   69669   69687   69717       3   69666   69681   69711       3
   69663   69678   69705       3   69660   69675   69699      11   69651   69630
   69654       3   69651   69636   69657       3   69642   69624   69648      11
   69636   69615   69639       3   69630   69612   69633       3   69624   69609
   69627       3   69618   69606   69621       3   69615   69636   69657       3
   69612   69630   69654       3   69609   69624   69648       3   69603   69612
   69633       3   69603   69615   69639       3   69600   69606   69621       3
   69600   69609   69627       3   69588   69576   69591       3   69588   69582
   69594       3   69582   69564   69585       3   69576   69561   69579       3
   69570   69558   69573       1   69567   69558   69570       1   69567   69558
   69573       1   69564   69582   69594       3   69561   69576   69591       3
   69555   69561   69579       3   69555   69564   69585       3   69552   69558
   69567       2   69552   69558   69570       2   69552   69558   69573       2
   70512   70461   70515       1   70509   70461   70512       1   70509   70461
   70515       1   70503   70458   70506       1   70500   70458   70503       1
   70500   70458   70506       1   70494   70455   70497       1   70491   70455
   70494       1   70491   70455   70497       1   70485   70452   70488       1
   70482   70452   70485       1   70482   70452   70488       1   70476   70449
   70479       1   70473   70449   70476       1   70473   70449   70479       1
   70467   70446   70470       1   70464   70446   70467       1   70464   70446
   70470       1   70443   70461   70509       2   70443   70461   70512       2
   70443   70461   70515       2   70440   70458   70500       2   70440   70458
   70503       2   70440   70458   70506       2   70437   70455   70491       2
   70437   70455   70494       2   70437   70455   70497       2   70434   70452
   70482       2   70434   70452   70485       2   70434   70452   70488       2
   70431   70449   70473       2   70431   70449   70476       2   70431   70449
   70479       2   70428   70446   70464       2   70428   70446   70467       2
   70428   70446   70470       2   70419   70362   70422       3   70419   70368
   70425       3   70410   70350   70413       3   70410   70356   70416       3
   70401   70338   70404       3   70401   70344   70407       3   70395   70332
   70398       3   70392   70326   70395       3   70383   70317   70386       3
   70383   70323   70389       3   70374   70302   70377       3   70374   70308
   70380       3   70368   70299   70371       3   70362   70296   70365       3
   70356   70293   70359       3   70350   70290   70353       3   70344   70287
   70347       3   70338   70284   70341       3   70332   70281   70335       3
   70326   70278   70329       3   70320   70275   70323       3   70314   70272
   70317       3   70308   70269   70311       3   70302   70266   70305       3
   70299   70368   70425       3   70296   70362   70422       3   70293   70356
   70416       3   70290   70350   70413       3   70287   70344   70407       3
   70284   70338   70404       3   70281   70332   70398       3   70278   70326
   70392       3   70275   70323   70389       3   70272   70317   70386       3
   70269   70308   70380       3   70266   70302   70377       3   70260   70296
   70365       3   70260   70299   70371       3   70257   70290   70353       3
   70257   70293   70359       3   70251   70284   70341       3   70251   70287
   70347       3   70248   70278   70329       3   70248   70281   70335       3
   70245   70272   70314       3   70245   70275   70320       3   70242   70266
   70305       3   70242   70269   70311       3   70236   70206   70239       3
   70227   70197   70230       3   70212   70176   70215       1   70209   70176
   70212       1   70209   70176   70215       1   70206   70236   70263       3
   70203   70236   70263       3   70200   70170   70203       3   70197   70227
   70254       3   70191   70164   70194       3   70191   70227   70254       3
   70185   70161   70188       3   70185   70179   70218       3   70179   70158
   70182       3   70173   70206   70239      11   70167   70197   70230      11
   70158   70179   70218       3   70155   70176   70209       2   70155   70176
   70212       2   70155   70176   70215       2   70152   70170   70200       3
   70149   70164   70194       3   70146   70161   70188       3   70143   70158
   70182      11   70134   70113   70137       3   70134   70119   70140       3
   70125   70107   70131      11   70119   70098   70122       3   70113   70095
   70116       3   70107   70092   70110       3   70101   70089   70104       3
   70098   70119   70140       3   70095   70113   70137       3   70092   70107
   70131       3   70086   70095   70116       3   70086   70098   70122       3
   70083   70089   70104       3   70083   70092   70110       3   70071   70059
   70074       3   70071   70065   70077       3   70065   70047   70068       3
   70059   70044   70062       3   70053   70041   70056       1   70050   70041
   70053       1   70050   70041   70056       1   70047   70065   70077       3
   70044   70059   70074       3   70038   70044   70062       3   70038   70047
   70068       3   70035   70041   70050       2   70035   70041   70053       2
   70035   70041   70056       2   70995   70944   70998       1   70992   70944
   70995       1   70992   70944   70998       1   70986   70941   70989       1
   70983   70941   70986       1   70983   70941   70989       1   70977   70938
   70980       1   70974   70938   70977       1   70974   70938   70980       1
   70968   70935   70971       1   70965   70935   70968       1   70965   70935
   70971       1   70959   70932   70962       1   70956   70932   70959       1
   70956   70932   70962       1   70950   70929   70953       1   70947   70929
   70950       1   70947   70929   70953       1   70926   70944   70992       2
   70926   70944   70995       2   70926   70944   70998       2   70923   70941
   70983       2   70923   70941   70986       2   70923   70941   70989       2
   70920   70938   70974       2   70920   70938   70977       2   70920   70938
   70980       2   70917   70935   70965       2   70917   70935   70968       2
   70917   70935   70971       2   70914   70932   70956       2   70914   70932
   70959       2   70914   70932   70962       2   70911   70929   70947       2
   70911   70929   70950       2   70911   70929   70953       2   70902   70845
   70905       3   70902   70851   70908       3   70893   70833   70896       3
   70893   70839   70899       3   70884   70821   70887       3   70884   70827
   70890       3   70878   70815   70881       3   70875   70809   70878       3
   70866   70800   70869       3   70866   70806   70872       3   70857   70785
   70860       3   70857   70791   70863       3   70851   70782   70854       3
   70845   70779   70848       3   70839   70776   70842       3   70833   70773
   70836       3   70827   70770   70830       3   70821   70767   70824       3
   70815   70764   70818       3   70809   70761   70812       3   70803   70758
   70806       3   70797   70755   70800       3   70791   70752   70794       3
   70785   70749   70788       3   70782   70851   70908       3   70779   70845
   70905       3   70776   70839   70899       3   70773   70833   70896       3
   70770   70827   70890       3   70767   70821   70887       3   70764   70815
   70881       3   70761   70809   70875       3   70758   70806   70872       3
   70755   70800   70869       3   70752   70791   70863       3   70749   70785
   70860       3   70743   70779   70848       3   70743   70782   70854       3
   70740   70773   70836       3   70740   70776   70842       3   70734   70767
   70824       3   70734   70770   70830       3   70731   70761   70812       3
   70731   70764   70818       3   70728   70755   70797       3   70728   70758
   70803       3   70725   70749   70788       3   70725   70752   70794       3
   70719   70689   70722       3   70710   70680   70713       3   70695   70659
   70698       1   70692   70659   70695       1   70692   70659   70698       1
   70689   70719   70746       3   70686   70719   70746       3   70683   70653
   70686       3   70680   70710   70737       3   70674   70647   70677       3
   70674   70710   70737       3   70668   70644   70671       3   70668   70662
   70701       3   70662   70641   70665       3   70656   70689   70722      11
   70650   70680   70713      11   70641   70662   70701       3   70638   70659
   70692       2   70638   70659   70695       2   70638   70659   70698       2
   70635   70653   70683       3   70632   70647   70677       3   70629   70644
   70671       3   70626   70641   70665      11   70617   70596   70620       3
   70617   70602   70623       3   70608   70590   70614      11   70602   70581
   70605       3   70596   70578   70599       3   70590   70575   70593       3
   70584   70572   70587       3   70581   70602   70623       3   70578   70596
   70620       3   70575   70590   70614       3   70569   70578   70599       3
   70569   70581   70605       3   70566   70572   70587       3   70566   70575
   70593       3   70554   70542   70557       3   70554   70548   70560       3
   70548   70530   70551       3   70542   70527   70545       3   70536   70524
   70539       1   70533   70524   70536       1   70533   70524   70539       1
   70530   70548   70560       3   70527   70542   70557       3   70521   70527
   70545       3   70521   70530   70551       3   70518   70524   70533       2
   70518   70524   70536       2   70518   70524   70539       2   71478   71427
   71481       1   71475   71427   71478       1   71475   71427   71481       1
   71469   71424   71472       1   71466   71424   71469       1   71466   71424
   71472       1   71460   71421   71463       1   71457   71421   71460       1
   71457   71421   71463       1   71451   71418   71454       1   71448   71418
   71451       1   71448   71418   71454       1   71442   71415   71445       1
   71439   71415   71442       1   71439   71415   71445       1   71433   71412
   71436       1   71430   71412   71433       1   71430   71412   71436       1
   71409   71427   71475       2   71409   71427   71478       2   71409   71427
   71481       2   71406   71424   71466       2   71406   71424   71469       2
   71406   71424   71472       2   71403   71421   71457       2   71403   71421
   71460       2   71403   71421   71463       2   71400   71418   71448       2
   71400   71418   71451       2   71400   71418   71454       2   71397   71415
   71439       2   71397   71415   71442       2   71397   71415   71445       2
   71394   71412   71430       2   71394   71412   71433       2   71394   71412
   71436       2   71385   71328   71388       3   71385   71334   71391       3
   71376   71316   71379       3   71376   71322   71382       3   71367   71304
   71370       3   71367   71310   71373       3   71361   71298   71364       3
   71358   71292   71361       3   71349   71283   71352       3   71349   71289
   71355       3   71340   71268   71343       3   71340   71274   71346       3
   71334   71265   71337       3   71328   71262   71331       3   71322   71259
   71325       3   71316   71256   71319       3   71310   71253   71313       3
   71304   71250   71307       3   71298   71247   71301       3   71292   71244
   71295       3   71286   71241   71289       3   71280   71238   71283       3
   71274   71235   71277       3   71268   71232   71271       3   71265   71334
   71391       3   71262   71328   71388       3   71259   71322   71382       3
   71256   71316   71379       3   71253   71310   71373       3   71250   71304
   71370       3   71247   71298   71364       3   71244   71292   71358       3
   71241   71289   71355       3   71238   71283   71352       3   71235   71274
   71346       3   71232   71268   71343       3   71226   71262   71331       3
   71226   71265   71337       3   71223   71256   71319       3   71223   71259
   71325       3   71217   71250   71307       3   71217   71253   71313       3
   71214   71244   71295       3   71214   71247   71301       3   71211   71238
   71280       3   71211   71241   71286       3   71208   71232   71271       3
   71208   71235   71277       3   71202   71172   71205       3   71193   71163
   71196       3   71178   71142   71181       1   71175   71142   71178       1
   71175   71142   71181       1   71172   71202   71229       3   71169   71202
   71229       3   71166   71136   71169       3   71163   71193   71220       3
   71157   71130   71160       3   71157   71193   71220       3   71151   71127
   71154       3   71151   71145   71184       3   71145   71124   71148       3
   71139   71172   71205      11   71133   71163   71196      11   71124   71145
   71184       3   71121   71142   71175       2   71121   71142   71178       2
   71121   71142   71181       2   71118   71136   71166       3   71115   71130
   71160       3   71112   71127   71154       3   71109   71124   71148      11
   71100   71079   71103       3   71100   71085   71106       3   71091   71073
   71097      11   71085   71064   71088       3   71079   71061   71082       3
   71073   71058   71076       3   71067   71055   71070       3   71064   71085
   71106       3   71061   71079   71103       3   71058   71073   71097       3
   71052   71061   71082       3   71052   71064   71088       3   71049   71055
   71070       3   71049   71058   71076       3   71037   71025   71040       3
   71037   71031   71043       3   71031   71013   71034       3   71025   71010
   71028       3   71019   71007   71022       1   71016   71007   71019       1
   71016   71007   71022       1   71013   71031   71043       3   71010   71025
   71040       3   71004   71010   71028       3   71004   71013   71034       3
   71001   71007   71016       2   71001   71007   71019       2   71001   71007
   71022       2   71961   71910   71964       1   71958   71910   71961       1
   71958   71910   71964       1   71952   71907   71955       1   71949   71907
   71952       1   71949   71907   71955       1   71943   71904   71946       1
   71940   71904   71943       1   71940   71904   71946       1   71934   71901
   71937       1   71931   71901   71934       1   71931   71901   71937       1
   71925   71898   71928       1   71922   71898   71925       1   71922   71898
   71928       1   71916   71895   71919       1   71913   71895   71916       1
   71913   71895   71919       1   71892   71910   71958       2   71892   71910
   71961       2   71892   71910   71964       2   71889   71907   71949       2
   71889   71907   71952       2   71889   71907   71955       2   71886   71904
   71940       2   71886   71904   71943       2   71886   71904   71946       2
   71883   71901   71931       2   71883   71901   71934       2   71883   71901
   71937       2   71880   71898   71922       2   71880   71898   71925       2
   71880   71898   71928       2   71877   71895   71913       2   71877   71895
   71916       2   71877   71895   71919       2   71868   71811   71871       3
   71868   71817   71874       3   71859   71799   71862       3   71859   71805
   71865       3   71850   71787   71853       3   71850   71793   71856       3
   71844   71781   71847       3   71841   71775   71844       3   71832   71766
   71835       3   71832   71772   71838       3   71823   71751   71826       3
   71823   71757   71829       3   71817   71748   71820       3   71811   71745
   71814       3   71805   71742   71808       3   71799   71739   71802       3
   71793   71736   71796       3   71787   71733   71790       3   71781   71730
   71784       3   71775   71727   71778       3   71769   71724   71772       3
   71763   71721   71766       3   71757   71718   71760       3   71751   71715
   71754       3   71748   71817   71874       3   71745   71811   71871       3
   71742   71805   71865       3   71739   71799   71862       3   71736   71793
   71856       3   71733   71787   71853       3   71730   71781   71847       3
   71727   71775   71841       3   71724   71772   71838       3   71721   71766
   71835       3   71718   71757   71829       3   71715   71751   71826       3
   71709   71745   71814       3   71709   71748   71820       3   71706   71739
   71802       3   71706   71742   71808       3   71700   71733   71790       3
   71700   71736   71796       3   71697   71727   71778       3   71697   71730
   71784       3   71694   71721   71763       3   71694   71724   71769       3
   71691   71715   71754       3   71691   71718   71760       3   71685   71655
   71688       3   71676   71646   71679       3   71661   71625   71664       1
   71658   71625   71661       1   71658   71625   71664       1   71655   71685
   71712       3   71652   71685   71712       3   71649   71619   71652       3
   71646   71676   71703       3   71640   71613   71643       3   71640   71676
   71703       3   71634   71610   71637       3   71634   71628   71667       3
   71628   71607   71631       3   71622   71655   71688      11   71616   71646
   71679      11   71607   71628   71667       3   71604   71625   71658       2
   71604   71625   71661       2   71604   71625   71664       2   71601   71619
   71649       3   71598   71613   71643       3   71595   71610   71637       3
   71592   71607   71631      11   71583   71562   71586       3   71583   71568
   71589       3   71574   71556   71580      11   71568   71547   71571       3
   71562   71544   71565       3   71556   71541   71559       3   71550   71538
   71553       3   71547   71568   71589       3   71544   71562   71586       3
   71541   71556   71580       3   71535   71544   71565       3   71535   71547
   71571       3   71532   71538   71553       3   71532   71541   71559       3
   71520   71508   71523       3   71520   71514   71526       3   71514   71496
   71517       3   71508   71493   71511       3   71502   71490   71505       1
   71499   71490   71502       1   71499   71490   71505       1   71496   71514
   71526       3   71493   71508   71523       3   71487   71493   71511       3
   71487   71496   71517       3   71484   71490   71499       2   71484   71490
   71502       2   71484   71490   71505       2   72444   72393   72447       1
   72441   72393   72444       1   72441   72393   72447       1   72435   72390
   72438       1   72432   72390   72435       1   72432   72390   72438       1
   72426   72387   72429       1   72423   72387   72426       1   72423   72387
   72429       1   72417   72384   72420       1   72414   72384   72417       1
   72414   72384   72420       1   72408   72381   72411       1   72405   72381
   72408       1   72405   72381   72411       1   72399   72378   72402       1
   72396   72378   72399       1   72396   72378   72402       1   72375   72393
   72441       2   72375   72393   72444       2   72375   72393   72447       2
   72372   72390   72432       2   72372   72390   72435       2   72372   72390
   72438       2   72369   72387   72423       2   72369   72387   72426       2
   72369   72387   72429       2   72366   72384   72414       2   72366   72384
   72417       2   72366   72384   72420       2   72363   72381   72405       2
   72363   72381   72408       2   72363   72381   72411       2   72360   72378
   72396       2   72360   72378   72399       2   72360   72378   72402       2
   72351   72294   72354       3   72351   72300   72357       3   72342   72282
   72345       3   72342   72288   72348       3   72333   72270   72336       3
   72333   72276   72339       3   72327   72264   72330       3   72324   72258
   72327       3   72315   72249   72318       3   72315   72255   72321       3
   72306   72234   72309       3   72306   72240   72312       3   72300   72231
   72303       3   72294   72228   72297       3   72288   72225   72291       3
   72282   72222   72285       3   72276   72219   72279       3   72270   72216
   72273       3   72264   72213   72267       3   72258   72210   72261       3
   72252   72207   72255       3   72246   72204   72249       3   72240   72201
   72243       3   72234   72198   72237       3   72231   72300   72357       3
   72228   72294   72354       3   72225   72288   72348       3   72222   72282
   72345       3   72219   72276   72339       3   72216   72270   72336       3
   72213   72264   72330       3   72210   72258   72324       3   72207   72255
   72321       3   72204   72249   72318       3   72201   72240   72312       3
   72198   72234   72309       3   72192   72228   72297       3   72192   72231
   72303       3   72189   72222   72285       3   72189   72225   72291       3
   72183   72216   72273       3   72183   72219   72279       3   72180   72210
   72261       3   72180   72213   72267       3   72177   72204   72246       3
   72177   72207   72252       3   72174   72198   72237       3   72174   72201
   72243       3   72168   72138   72171       3   72159   72129   72162       3
   72144   72108   72147       1   72141   72108   72144       1   72141   72108
   72147       1   72138   72168   72195       3   72135   72168   72195       3
   72132   72102   72135       3   72129   72159   72186       3   72123   72096
   72126       3   72123   72159   72186       3   72117   72093   72120       3
   72117   72111   72150       3   72111   72090   72114       3   72105   72138
   72171      11   72099   72129   72162      11   72090   72111   72150       3
   72087   72108   72141       2   72087   72108   72144       2   72087   72108
   72147       2   72084   72102   72132       3   72081   72096   72126       3
   72078   72093   72120       3   72075   72090   72114      11   72066   72045
   72069       3   72066   72051   72072       3   72057   72039   72063      11
   72051   72030   72054       3   72045   72027   72048       3   72039   72024
   72042       3   72033   72021   72036       3   72030   72051   72072       3
   72027   72045   72069       3   72024   72039   72063       3   72018   72027
   72048       3   72018   72030   72054       3   72015   72021   72036       3
   72015   72024   72042       3   72003   71991   72006       3   72003   71997
   72009       3   71997   71979   72000       3   71991   71976   71994       3
   71985   71973   71988       1   71982   71973   71985       1   71982   71973
   71988       1   71979   71997   72009       3   71976   71991   72006       3
   71970   71976   71994       3   71970   71979   72000       3   71967   71973
   71982       2   71967   71973   71985       2   71967   71973   71988       2
%FLAG ANGLES_WITHOUT_HYDROGEN                                                   
%FORMAT(10I8)                                                                   
     384     408     426       4     375     405     423       4     366     402
     420       4     360     399     417       4     348     396     414       4
     339     393     411       4     333     384     408       5     327     384
     333       6     327     384     408       5     321     375     405       5
     315     375     321       6     315     375     405       5     309     366
     402       5     303     366     309       6     303     366     402       5
     297     360     399       5     291     360     297       6     291     360
     399       5     288     348     396       5     282     348     288       6
     282     348     396       5     273     339     393       5     267     339
     273       6     267     339     393       5     264     333     384       6
     261     225     264       6     261     327     384       6     258     321
     375       6     255     222     258       6     255     315     375       6
     252     309     366       6     249     216     252       6     249     303
     366       6     246     297     360       6     243     213     246       6
     243     291     360       6     240     288     348       6     237     210
     240       6     237     282     348       6     234     273     339       6
     231     207     234       6     231     267     339       6     225     261
     327       6     225     264     333       6     222     198     225       7
     222     255     315       6     222     258     321       6     216     249
     303       6     216     252     309       6     213     189     216       7
     213     243     291       6     213     246     297       6     210     237
     282       6     210     240     288       6     207     186     210       7
     207     231     267       6     207     234     273       6     198     168
     201       8     198     222     255       8     198     222     258       8
     198     225     261       8     198     225     264       8     189     156
     192       8     189     213     243       8     189     213     246       8
     189     216     249       8     189     216     252       8     186     207
     231       8     186     207     234       8     186     210     237       8
     186     210     240       8     168     198     222       7     168     198
     225       7     168     201     171       6     156     189     213       7
     156     189     216       7     156     192     162       6     150     186
     207       7     150     186     210       7     144     150     186       8
     138     132     162       9     138     171     201      10     135     117
     138      10     135     168     198       8     135     168     201       6
     132     138     171       9     132     162     192      10     129     114
     132      10     129     156     189       8     129     156     192       6
     126     150     144       6     126     150     186       8     123     144
     150       6     117     135     168       6     117     138     132       9
     117     138     171      12     114      93     117      13     114     129
     156       6     114     132     138       9     114     132     162      12
     111      93     114      13     111      93     117      13     111     108
     123      12     111     126     150       6     108     111     126      10
     108     123     144      10      99     120     141       4      93     111
     108      14      93     111     126      15      93     114     129      15
      93     114     132      14      93     117     135      15      93     117
     138      14      90      66      93      14      90     108     111       9
      90     108     123       9      84      99     120       5      78      99
      84       6      78      99     120       5      72      90     108       9
      66      90      72      12      66      90     108       9      66      93
     111      13      66      93     114      13      66      93     117      13
      63      84      99       6      60      51      63       6      60      78
      99       6      57      72      90      10      54      48      57       6
      54      66      90      10      54      66      93      15      51      60
      78       6      51      63      84       6      48      45      51       7
      48      54      66       6      48      57      72       6      45      48
      54       8      45      48      57       8      45      51      60       8
      45      51      63       8      36      45      48       7      36      45
      51       7      30      36      45       8      24      36      30       6
      24      36      45       8      12      30      36       6       9       3
      12       6       9      24      36       6       3       0       6       4
       3       9      24       6       3      12      30       6       0       3
       9       5       0       3      12       5     867     891     909       4
     858     888     906       4     849     885     903       4     843     882
     900       4     831     879     897       4     822     876     894       4
     816     867     891       5     810     867     816       6     810     867
     891       5     804     858     888       5     798     858     804       6
     798     858     888       5     792     849     885       5     786     849
     792       6     786     849     885       5     780     843     882       5
     774     843     780       6     774     843     882       5     771     831
     879       5     765     831     771       6     765     831     879       5
     756     822     876       5     750     822     756       6     750     822
     876       5     747     816     867       6     744     708     747       6
     744     810     867       6     741     804     858       6     738     705
     741       6     738     798     858       6     735     792     849       6
     732     699     735       6     732     786     849       6     729     780
     843       6     726     696     729       6     726     774     843       6
     723     771     831       6     720     693     723       6     720     765
     831       6     717     756     822       6     714     690     717       6
     714     750     822       6     708     744     810       6     708     747
     816       6     705     681     708       7     705     738     798       6
     705     741     804       6     699     732     786       6     699     735
     792       6     696     672     699       7     696     726     774       6
     696     729     780       6     693     720     765       6     693     723
     771       6     690     669     693       7     690     714     750       6
     690     717     756       6     681     651     684       8     681     705
     738       8     681     705     741       8     681     708     744       8
     681     708     747       8     672     639     675       8     672     696
     726       8     672     696     729       8     672     699     732       8
     672     699     735       8     669     690     714       8     669     690
     717       8     669     693     720       8     669     693     723       8
     651     681     705       7     651     681     708       7     651     684
     654       6     639     672     696       7     639     672     699       7
     639     675     645       6     633     669     690       7     633     669
     693       7     627     633     669       8     621     615     645       9
     621     654     684      10     618     600     621      10     618     651
     681       8     618     651     684       6     615     621     654       9
     615     645     675      10     612     597     615      10     612     639
     672       8     612     639     675       6     609     633     627       6
     609     633     669       8     606     627     633       6     600     618
     651       6     600     621     615       9     600     621     654      12
     597     576     600      13     597     612     639       6     597     615
     621       9     597     615     645      12     594     576     597      13
     594     576     600      13     594     591     606      12     594     609
     633       6     591     594     609      10     591     606     627      10
     582     603     624       4     576     594     591      14     576     594
     609      15     576     597     612      15     576     597     615      14
     576     600     618      15     576     600     621      14     573     549
     576      14     573     591     594       9     573     591     606       9
     567     582     603       5     561     582     567       6     561     582
     603       5     555     573     591       9     549     573     555      12
     549     573     591       9     549     576     594      13     549     576
     597      13     549     576     600      13     546     567     582       6
     543     534     546       6     543     561     582       6     540     555
     573      10     537     531     540       6     537     549     573      10
     537     549     576      15     534     543     561       6     534     546
     567       6     531     528     534       7     531     537     549       6
     531     540     555       6     528     531     537       8     528     531
     540       8     528     534     543       8     528     534     546       8
     519     528     531       7     519     528     534       7     513     519
     528       8     507     519     513       6     507     519     528       8
     495     513     519       6     492     486     495       6     492     507
     519       6     486     483     489       4     486     492     507       6
     486     495     513       6     483     486     492       5     483     486
     495       5    1350    1374    1392       4    1341    1371    1389       4
    1332    1368    1386       4    1326    1365    1383       4    1314    1362
    1380       4    1305    1359    1377       4    1299    1350    1374       5
    1293    1350    1299       6    1293    1350    1374       5    1287    1341
    1371       5    1281    1341    1287       6    1281    1341    1371       5
    1275    1332    1368       5    1269    1332    1275       6    1269    1332
    1368       5    1263    1326    1365       5    1257    1326    1263       6
    1257    1326    1365       5    1254    1314    1362       5    1248    1314
    1254       6    1248    1314    1362       5    1239    1305    1359       5
    1233    1305    1239       6    1233    1305    1359       5    1230    1299
    1350       6    1227    1191    1230       6    1227    1293    1350       6
    1224    1287    1341       6    1221    1188    1224       6    1221    1281
    1341       6    1218    1275    1332       6    1215    1182    1218       6
    1215    1269    1332       6    1212    1263    1326       6    1209    1179
    1212       6    1209    1257    1326       6    1206    1254    1314       6
    1203    1176    1206       6    1203    1248    1314       6    1200    1239
    1305       6    1197    1173    1200       6    1197    1233    1305       6
    1191    1227    1293       6    1191    1230    1299       6    1188    1164
    1191       7    1188    1221    1281       6    1188    1224    1287       6
    1182    1215    1269       6    1182    1218    1275       6    1179    1155
    1182       7    1179    1209    1257       6    1179    1212    1263       6
    1176    1203    1248       6    1176    1206    1254       6    1173    1152
    1176       7    1173    1197    1233       6    1173    1200    1239       6
    1164    1134    1167       8    1164    1188    1221       8    1164    1188
    1224       8    1164    1191    1227       8    1164    1191    1230       8
    1155    1122    1158       8    1155    1179    1209       8    1155    1179
    1212       8    1155    1182    1215       8    1155    1182    1218       8
    1152    1173    1197       8    1152    1173    1200       8    1152    1176
    1203       8    1152    1176    1206       8    1134    1164    1188       7
    1134    1164    1191       7    1134    1167    1137       6    1122    1155
    1179       7    1122    1155    1182       7    1122    1158    1128       6
    1116    1152    1173       7    1116    1152    1176       7    1110    1116
    1152       8    1104    1098    1128       9    1104    1137    1167      10
    1101    1083    1104      10    1101    1134    1164       8    1101    1134
    1167       6    1098    1104    1137       9    1098    1128    1158      10
    1095    1080    1098      10    1095    1122    1155       8    1095    1122
    1158       6    1092    1116    1110       6    1092    1116    1152       8
    1089    1110    1116       6    1083    1101    1134       6    1083    1104
    1098       9    1083    1104    1137      12    1080    1059    1083      13
    1080    1095    1122       6    1080    1098    1104       9    1080    1098
    1128      12    1077    1059    1080      13    1077    1059    1083      13
    1077    1074    1089      12    1077    1092    1116       6    1074    1077
    1092      10    1074    1089    1110      10    1065    1086    1107       4
    1059    1077    1074      14    1059    1077    1092      15    1059    1080
    1095      15    1059    1080    1098      14    1059    1083    1101      15
    1059    1083    1104      14    1056    1032    1059      14    1056    1074
    1077       9    1056    1074    1089       9    1050    1065    1086       5
    1044    1065    1050       6    1044    1065    1086       5    1038    1056
    1074       9    1032    1056    1038      12    1032    1056    1074       9
    1032    1059    1077      13    1032    1059    1080      13    1032    1059
    1083      13    1029    1050    1065       6    1026    1017    1029       6
    1026    1044    1065       6    1023    1038    1056      10    1020    1014
    1023       6    1020    1032    1056      10    1020    1032    1059      15
    1017    1026    1044       6    1017    1029    1050       6    1014    1011
    1017       7    1014    1020    1032       6    1014    1023    1038       6
    1011    1014    1020       8    1011    1014    1023       8    1011    1017
    1026       8    1011    1017    1029       8    1002    1011    1014       7
    1002    1011    1017       7     996    1002    1011       8     990    1002
     996       6     990    1002    1011       8     978     996    1002       6
     975     969     978       6     975     990    1002       6     969     966
     972       4     969     975     990       6     969     978     996       6
     966     969     975       5     966     969     978       5    1833    1857
    1875       4    1824    1854    1872       4    1815    1851    1869       4
    1809    1848    1866       4    1797    1845    1863       4    1788    1842
    1860       4    1782    1833    1857       5    1776    1833    1782       6
    1776    1833    1857       5    1770    1824    1854       5    1764    1824
    1770       6    1764    1824    1854       5    1758    1815    1851       5
    1752    1815    1758       6    1752    1815    1851       5    1746    1809
    1848       5    1740    1809    1746       6    1740    1809    1848       5
    1737    1797    1845       5    1731    1797    1737       6    1731    1797
    1845       5    1722    1788    1842       5    1716    1788    1722       6
    1716    1788    1842       5    1713    1782    1833       6    1710    1674
    1713       6    1710    1776    1833       6    1707    1770    1824       6
    1704    1671    1707       6    1704    1764    1824       6    1701    1758
    1815       6    1698    1665    1701       6    1698    1752    1815       6
    1695    1746    1809       6    1692    1662    1695       6    1692    1740
    1809       6    1689    1737    1797       6    1686    1659    1689       6
    1686    1731    1797       6    1683    1722    1788       6    1680    1656
    1683       6    1680    1716    1788       6    1674    1710    1776       6
    1674    1713    1782       6    1671    1647    1674       7    1671    1704
    1764       6    1671    1707    1770       6    1665    1698    1752       6
    1665    1701    1758       6    1662    1638    1665       7    1662    1692
    1740       6    1662    1695    1746       6    1659    1686    1731       6
    1659    1689    1737       6    1656    1635    1659       7    1656    1680
    1716       6    1656    1683    1722       6    1647    1617    1650       8
    1647    1671    1704       8    1647    1671    1707       8    1647    1674
    1710       8    1647    1674    1713       8    1638    1605    1641       8
    1638    1662    1692       8    1638    1662    1695       8    1638    1665
    1698       8    1638    1665    1701       8    1635    1656    1680       8
    1635    1656    1683       8    1635    1659    1686       8    1635    1659
    1689       8    1617    1647    1671       7    1617    1647    1674       7
    1617    1650    1620       6    1605    1638    1662       7    1605    1638
    1665       7    1605    1641    1611       6    1599    1635    1656       7
    1599    1635    1659       7    1593    1599    1635       8    1587    1581
    1611       9    1587    1620    1650      10    1584    1566    1587      10
    1584    1617    1647       8    1584    1617    1650       6    1581    1587
    1620       9    1581    1611    1641      10    1578    1563    1581      10
    1578    1605    1638       8    1578    1605    1641       6    1575    1599
    1593       6    1575    1599    1635       8    1572    1593    1599       6
    1566    1584    1617       6    1566    1587    1581       9    1566    1587
    1620      12    1563    1542    1566      13    1563    1578    1605       6
    1563    1581    1587       9    1563    1581    1611      12    1560    1542
    1563      13    1560    1542    1566      13    1560    1557    1572      12
    1560    1575    1599       6    1557    1560    1575      10    1557    1572
    1593      10    1548    1569    1590       4    1542    1560    1557      14
    1542    1560    1575      15    1542    1563    1578      15    1542    1563
    1581      14    1542    1566    1584      15    1542    1566    1587      14
    1539    1515    1542      14    1539    1557    1560       9    1539    1557
    1572       9    1533    1548    1569       5    1527    1548    1533       6
    1527    1548    1569       5    1521    1539    1557       9    1515    1539
    1521      12    1515    1539    1557       9    1515    1542    1560      13
    1515    1542    1563      13    1515    1542    1566      13    1512    1533
    1548       6    1509    1500    1512       6    1509    1527    1548       6
    1506    1521    1539      10    1503    1497    1506       6    1503    1515
    1539      10    1503    1515    1542      15    1500    1509    1527       6
    1500    1512    1533       6    1497    1494    1500       7    1497    1503
    1515       6    1497    1506    1521       6    1494    1497    1503       8
    1494    1497    1506       8    1494    1500    1509       8    1494    1500
    1512       8    1485    1494    1497       7    1485    1494    1500       7
    1479    1485    1494       8    1473    1485    1479       6    1473    1485
    1494       8    1461    1479    1485       6    1458    1452    1461       6
    1458    1473    1485       6    1452    1449    1455       4    1452    1458
    1473       6    1452    1461    1479       6    1449    1452    1458       5
    1449    1452    1461       5    2316    2340    2358       4    2307    2337
    2355       4    2298    2334    2352       4    2292    2331    2349       4
    2280    2328    2346       4    2271    2325    2343       4    2265    2316
    2340       5    2259    2316    2265       6    2259    2316    2340       5
    2253    2307    2337       5    2247    2307    2253       6    2247    2307
    2337       5    2241    2298    2334       5    2235    2298    2241       6
    2235    2298    2334       5    2229    2292    2331       5    2223    2292
    2229       6    2223    2292    2331       5    2220    2280    2328       5
    2214    2280    2220       6    2214    2280    2328       5    2205    2271
    2325       5    2199    2271    2205       6    2199    2271    2325       5
    2196    2265    2316       6    2193    2157    2196       6    2193    2259
    2316       6    2190    2253    2307       6    2187    2154    2190       6
    2187    2247    2307       6    2184    2241    2298       6    2181    2148
    2184       6    2181    2235    2298       6    2178    2229    2292       6
    2175    2145    2178       6    2175    2223    2292       6    2172    2220
    2280       6    2169    2142    2172       6    2169    2214    2280       6
    2166    2205    2271       6    2163    2139    2166       6    2163    2199
    2271       6    2157    2193    2259       6    2157    2196    2265       6
    2154    2130    2157       7    2154    2187    2247       6    2154    2190
    2253       6    2148    2181    2235       6    2148    2184    2241       6
    2145    2121    2148       7    2145    2175    2223       6    2145    2178
    2229       6    2142    2169    2214       6    2142    2172    2220       6
    2139    2118    2142       7    2139    2163    2199       6    2139    2166
    2205       6    2130    2100    2133       8    2130    2154    2187       8
    2130    2154    2190       8    2130    2157    2193       8    2130    2157
    2196       8    2121    2088    2124       8    2121    2145    2175       8
    2121    2145    2178       8    2121    2148    2181       8    2121    2148
    2184       8    2118    2139    2163       8    2118    2139    2166       8
    2118    2142    2169       8    2118    2142    2172       8    2100    2130
    2154       7    2100    2130    2157       7    2100    2133    2103       6
    2088    2121    2145       7    2088    2121    2148       7    2088    2124
    2094       6    2082    2118    2139       7    2082    2118    2142       7
    2076    2082    2118       8    2070    2064    2094       9    2070    2103
    2133      10    2067    2049    2070      10    2067    2100    2130       8
    2067    2100    2133       6    2064    2070    2103       9    2064    2094
    2124      10    2061    2046    2064      10    2061    2088    2121       8
    2061    2088    2124       6    2058    2082    2076       6    2058    2082
    2118       8    2055    2076    2082       6    2049    2067    2100       6
    2049    2070    2064       9    2049    2070    2103      12    2046    2025
    2049      13    2046    2061    2088       6    2046    2064    2070       9
    2046    2064    2094      12    2043    2025    2046      13    2043    2025
    2049      13    2043    2040    2055      12    2043    2058    2082       6
    2040    2043    2058      10    2040    2055    2076      10    2031    2052
    2073       4    2025    2043    2040      14    2025    2043    2058      15
    2025    2046    2061      15    2025    2046    2064      14    2025    2049
    2067      15    2025    2049    2070      14    2022    1998    2025      14
    2022    2040    2043       9    2022    2040    2055       9    2016    2031
    2052       5    2010    2031    2016       6    2010    2031    2052       5
    2004    2022    2040       9    1998    2022    2004      12    1998    2022
    2040       9    1998    2025    2043      13    1998    2025    2046      13
    1998    2025    2049      13    1995    2016    2031       6    1992    1983
    1995       6    1992    2010    2031       6    1989    2004    2022      10
    1986    1980    1989       6    1986    1998    2022      10    1986    1998
    2025      15    1983    1992    2010       6    1983    1995    2016       6
    1980    1977    1983       7    1980    1986    1998       6    1980    1989
    2004       6    1977    1980    1986       8    1977    1980    1989       8
    1977    1983    1992       8    1977    1983    1995       8    1968    1977
    1980       7    1968    1977    1983       7    1962    1968    1977       8
    1956    1968    1962       6    1956    1968    1977       8    1944    1962
    1968       6    1941    1935    1944       6    1941    1956    1968       6
    1935    1932    1938       4    1935    1941    1956       6    1935    1944
    1962       6    1932    1935    1941       5    1932    1935    1944       5
    2799    2823    2841       4    2790    2820    2838       4    2781    2817
    2835       4    2775    2814    2832       4    2763    2811    2829       4
    2754    2808    2826       4    2748    2799    2823       5    2742    2799
    2748       6    2742    2799    2823       5    2736    2790    2820       5
    2730    2790    2736       6    2730    2790    2820       5    2724    2781
    2817       5    2718    2781    2724       6    2718    2781    2817       5
    2712    2775    2814       5    2706    2775    2712       6    2706    2775
    2814       5    2703    2763    2811       5    2697    2763    2703       6
    2697    2763    2811       5    2688    2754    2808       5    2682    2754
    2688       6    2682    2754    2808       5    2679    2748    2799       6
    2676    2640    2679       6    2676    2742    2799       6    2673    2736
    2790       6    2670    2637    2673       6    2670    2730    2790       6
    2667    2724    2781       6    2664    2631    2667       6    2664    2718
    2781       6    2661    2712    2775       6    2658    2628    2661       6
    2658    2706    2775       6    2655    2703    2763       6    2652    2625
    2655       6    2652    2697    2763       6    2649    2688    2754       6
    2646    2622    2649       6    2646    2682    2754       6    2640    2676
    2742       6    2640    2679    2748       6    2637    2613    2640       7
    2637    2670    2730       6    2637    2673    2736       6    2631    2664
    2718       6    2631    2667    2724       6    2628    2604    2631       7
    2628    2658    2706       6    2628    2661    2712       6    2625    2652
    2697       6    2625    2655    2703       6    2622    2601    2625       7
    2622    2646    2682       6    2622    2649    2688       6    2613    2583
    2616       8    2613    2637    2670       8    2613    2637    2673       8
    2613    2640    2676       8    2613    2640    2679       8    2604    2571
    2607       8    2604    2628    2658       8    2604    2628    2661       8
    2604    2631    2664       8    2604    2631    2667       8    2601    2622
    2646       8    2601    2622    2649       8    2601    2625    2652       8
    2601    2625    2655       8    2583    2613    2637       7    2583    2613
    2640       7    2583    2616    2586       6    2571    2604    2628       7
    2571    2604    2631       7    2571    2607    2577       6    2565    2601
    2622       7    2565    2601    2625       7    2559    2565    2601       8
    2553    2547    2577       9    2553    2586    2616      10    2550    2532
    2553      10    2550    2583    2613       8    2550    2583    2616       6
    2547    2553    2586       9    2547    2577    2607      10    2544    2529
    2547      10    2544    2571    2604       8    2544    2571    2607       6
    2541    2565    2559       6    2541    2565    2601       8    2538    2559
    2565       6    2532    2550    2583       6    2532    2553    2547       9
    2532    2553    2586      12    2529    2508    2532      13    2529    2544
    2571       6    2529    2547    2553       9    2529    2547    2577      12
    2526    2508    2529      13    2526    2508    2532      13    2526    2523
    2538      12    2526    2541    2565       6    2523    2526    2541      10
    2523    2538    2559      10    2514    2535    2556       4    2508    2526
    2523      14    2508    2526    2541      15    2508    2529    2544      15
    2508    2529    2547      14    2508    2532    2550      15    2508    2532
    2553      14    2505    2481    2508      14    2505    2523    2526       9
    2505    2523    2538       9    2499    2514    2535       5    2493    2514
    2499       6    2493    2514    2535       5    2487    2505    2523       9
    2481    2505    2487      12    2481    2505    2523       9    2481    2508
    2526      13    2481    2508    2529      13    2481    2508    2532      13
    2478    2499    2514       6    2475    2466    2478       6    2475    2493
    2514       6    2472    2487    2505      10    2469    2463    2472       6
    2469    2481    2505      10    2469    2481    2508      15    2466    2475
    2493       6    2466    2478    2499       6    2463    2460    2466       7
    2463    2469    2481       6    2463    2472    2487       6    2460    2463
    2469       8    2460    2463    2472       8    2460    2466    2475       8
    2460    2466    2478       8    2451    2460    2463       7    2451    2460
    2466       7    2445    2451    2460       8    2439    2451    2445       6
    2439    2451    2460       8    2427    2445    2451       6    2424    2418
    2427       6    2424    2439    2451       6    2418    2415    2421       4
    2418    2424    2439       6    2418    2427    2445       6    2415    2418
    2424       5    2415    2418    2427       5    3282    3306    3324       4
    3273    3303    3321       4    3264    3300    3318       4    3258    3297
    3315       4    3246    3294    3312       4    3237    3291    3309       4
    3231    3282    3306       5    3225    3282    3231       6    3225    3282
    3306       5    3219    3273    3303       5    3213    3273    3219       6
    3213    3273    3303       5    3207    3264    3300       5    3201    3264
    3207       6    3201    3264    3300       5    3195    3258    3297       5
    3189    3258    3195       6    3189    3258    3297       5    3186    3246
    3294       5    3180    3246    3186       6    3180    3246    3294       5
    3171    3237    3291       5    3165    3237    3171       6    3165    3237
    3291       5    3162    3231    3282       6    3159    3123    3162       6
    3159    3225    3282       6    3156    3219    3273       6    3153    3120
    3156       6    3153    3213    3273       6    3150    3207    3264       6
    3147    3114    3150       6    3147    3201    3264       6    3144    3195
    3258       6    3141    3111    3144       6    3141    3189    3258       6
    3138    3186    3246       6    3135    3108    3138       6    3135    3180
    3246       6    3132    3171    3237       6    3129    3105    3132       6
    3129    3165    3237       6    3123    3159    3225       6    3123    3162
    3231       6    3120    3096    3123       7    3120    3153    3213       6
    3120    3156    3219       6    3114    3147    3201       6    3114    3150
    3207       6    3111    3087    3114       7    3111    3141    3189       6
    3111    3144    3195       6    3108    3135    3180       6    3108    3138
    3186       6    3105    3084    3108       7    3105    3129    3165       6
    3105    3132    3171       6    3096    3066    3099       8    3096    3120
    3153       8    3096    3120    3156       8    3096    3123    3159       8
    3096    3123    3162       8    3087    3054    3090       8    3087    3111
    3141       8    3087    3111    3144       8    3087    3114    3147       8
    3087    3114    3150       8    3084    3105    3129       8    3084    3105
    3132       8    3084    3108    3135       8    3084    3108    3138       8
    3066    3096    3120       7    3066    3096    3123       7    3066    3099
    3069       6    3054    3087    3111       7    3054    3087    3114       7
    3054    3090    3060       6    3048    3084    3105       7    3048    3084
    3108       7    3042    3048    3084       8    3036    3030    3060       9
    3036    3069    3099      10    3033    3015    3036      10    3033    3066
    3096       8    3033    3066    3099       6    3030    3036    3069       9
    3030    3060    3090      10    3027    3012    3030      10    3027    3054
    3087       8    3027    3054    3090       6    3024    3048    3042       6
    3024    3048    3084       8    3021    3042    3048       6    3015    3033
    3066       6    3015    3036    3030       9    3015    3036    3069      12
    3012    2991    3015      13    3012    3027    3054       6    3012    3030
    3036       9    3012    3030    3060      12    3009    2991    3012      13
    3009    2991    3015      13    3009    3006    3021      12    3009    3024
    3048       6    3006    3009    3024      10    3006    3021    3042      10
    2997    3018    3039       4    2991    3009    3006      14    2991    3009
    3024      15    2991    3012    3027      15    2991    3012    3030      14
    2991    3015    3033      15    2991    3015    3036      14    2988    2964
    2991      14    2988    3006    3009       9    2988    3006    3021       9
    2982    2997    3018       5    2976    2997    2982       6    2976    2997
    3018       5    2970    2988    3006       9    2964    2988    2970      12
    2964    2988    3006       9    2964    2991    3009      13    2964    2991
    3012      13    2964    2991    3015      13    2961    2982    2997       6
    2958    2949    2961       6    2958    2976    2997       6    2955    2970
    2988      10    2952    2946    2955       6    2952    2964    2988      10
    2952    2964    2991      15    2949    2958    2976       6    2949    2961
    2982       6    2946    2943    2949       7    2946    2952    2964       6
    2946    2955    2970       6    2943    2946    2952       8    2943    2946
    2955       8    2943    2949    2958       8    2943    2949    2961       8
    2934    2943    2946       7    2934    2943    2949       7    2928    2934
    2943       8    2922    2934    2928       6    2922    2934    2943       8
    2910    2928    2934       6    2907    2901    2910       6    2907    2922
    2934       6    2901    2898    2904       4    2901    2907    2922       6
    2901    2910    2928       6    2898    2901    2907       5    2898    2901
    2910       5    3765    3789    3807       4    3756    3786    3804       4
    3747    3783    3801       4    3741    3780    3798       4    3729    3777
    3795       4    3720    3774    3792       4    3714    3765    3789       5
    3708    3765    3714       6    3708    3765    3789       5    3702    3756
    3786       5    3696    3756    3702       6    3696    3756    3786       5
    3690    3747    3783       5    3684    3747    3690       6    3684    3747
    3783       5    3678    3741    3780       5    3672    3741    3678       6
    3672    3741    3780       5    3669    3729    3777       5    3663    3729
    3669       6    3663    3729    3777       5    3654    3720    3774       5
    3648    3720    3654       6    3648    3720    3774       5    3645    3714
    3765       6    3642    3606    3645       6    3642    3708    3765       6
    3639    3702    3756       6    3636    3603    3639       6    3636    3696
    3756       6    3633    3690    3747       6    3630    3597    3633       6
    3630    3684    3747       6    3627    3678    3741       6    3624    3594
    3627       6    3624    3672    3741       6    3621    3669    3729       6
    3618    3591    3621       6    3618    3663    3729       6    3615    3654
    3720       6    3612    3588    3615       6    3612    3648    3720       6
    3606    3642    3708       6    3606    3645    3714       6    3603    3579
    3606       7    3603    3636    3696       6    3603    3639    3702       6
    3597    3630    3684       6    3597    3633    3690       6    3594    3570
    3597       7    3594    3624    3672       6    3594    3627    3678       6
    3591    3618    3663       6    3591    3621    3669       6    3588    3567
    3591       7    3588    3612    3648       6    3588    3615    3654       6
    3579    3549    3582       8    3579    3603    3636       8    3579    3603
    3639       8    3579    3606    3642       8    3579    3606    3645       8
    3570    3537    3573       8    3570    3594    3624       8    3570    3594
    3627       8    3570    3597    3630       8    3570    3597    3633       8
    3567    3588    3612       8    3567    3588    3615       8    3567    3591
    3618       8    3567    3591    3621       8    3549    3579    3603       7
    3549    3579    3606       7    3549    3582    3552       6    3537    3570
    3594       7    3537    3570    3597       7    3537    3573    3543       6
    3531    3567    3588       7    3531    3567    3591       7    3525    3531
    3567       8    3519    3513    3543       9    3519    3552    3582      10
    3516    3498    3519      10    3516    3549    3579       8    3516    3549
    3582       6    3513    3519    3552       9    3513    3543    3573      10
    3510    3495    3513      10    3510    3537    3570       8    3510    3537
    3573       6    3507    3531    3525       6    3507    3531    3567       8
    3504    3525    3531       6    3498    3516    3549       6    3498    3519
    3513       9    3498    3519    3552      12    3495    3474    3498      13
    3495    3510    3537       6    3495    3513    3519       9    3495    3513
    3543      12    3492    3474    3495      13    3492    3474    3498      13
    3492    3489    3504      12    3492    3507    3531       6    3489    3492
    3507      10    3489    3504    3525      10    3480    3501    3522       4
    3474    3492    3489      14    3474    3492    3507      15    3474    3495
    3510      15    3474    3495    3513      14    3474    3498    3516      15
    3474    3498    3519      14    3471    3447    3474      14    3471    3489
    3492       9    3471    3489    3504       9    3465    3480    3501       5
    3459    3480    3465       6    3459    3480    3501       5    3453    3471
    3489       9    3447    3471    3453      12    3447    3471    3489       9
    3447    3474    3492      13    3447    3474    3495      13    3447    3474
    3498      13    3444    3465    3480       6    3441    3432    3444       6
    3441    3459    3480       6    3438    3453    3471      10    3435    3429
    3438       6    3435    3447    3471      10    3435    3447    3474      15
    3432    3441    3459       6    3432    3444    3465       6    3429    3426
    3432       7    3429    3435    3447       6    3429    3438    3453       6
    3426    3429    3435       8    3426    3429    3438       8    3426    3432
    3441       8    3426    3432    3444       8    3417    3426    3429       7
    3417    3426    3432       7    3411    3417    3426       8    3405    3417
    3411       6    3405    3417    3426       8    3393    3411    3417       6
    3390    3384    3393       6    3390    3405    3417       6    3384    3381
    3387       4    3384    3390    3405       6    3384    3393    3411       6
    3381    3384    3390       5    3381    3384    3393       5    4248    4272
    4290       4    4239    4269    4287       4    4230    4266    4284       4
    4224    4263    4281       4    4212    4260    4278       4    4203    4257
    4275       4    4197    4248    4272       5    4191    4248    4197       6
    4191    4248    4272       5    4185    4239    4269       5    4179    4239
    4185       6    4179    4239    4269       5    4173    4230    4266       5
    4167    4230    4173       6    4167    4230    4266       5    4161    4224
    4263       5    4155    4224    4161       6    4155    4224    4263       5
    4152    4212    4260       5    4146    4212    4152       6    4146    4212
    4260       5    4137    4203    4257       5    4131    4203    4137       6
    4131    4203    4257       5    4128    4197    4248       6    4125    4089
    4128       6    4125    4191    4248       6    4122    4185    4239       6
    4119    4086    4122       6    4119    4179    4239       6    4116    4173
    4230       6    4113    4080    4116       6    4113    4167    4230       6
    4110    4161    4224       6    4107    4077    4110       6    4107    4155
    4224       6    4104    4152    4212       6    4101    4074    4104       6
    4101    4146    4212       6    4098    4137    4203       6    4095    4071
    4098       6    4095    4131    4203       6    4089    4125    4191       6
    4089    4128    4197       6    4086    4062    4089       7    4086    4119
    4179       6    4086    4122    4185       6    4080    4113    4167       6
    4080    4116    4173       6    4077    4053    4080       7    4077    4107
    4155       6    4077    4110    4161       6    4074    4101    4146       6
    4074    4104    4152       6    4071    4050    4074       7    4071    4095
    4131       6    4071    4098    4137       6    4062    4032    4065       8
    4062    4086    4119       8    4062    4086    4122       8    4062    4089
    4125       8    4062    4089    4128       8    4053    4020    4056       8
    4053    4077    4107       8    4053    4077    4110       8    4053    4080
    4113       8    4053    4080    4116       8    4050    4071    4095       8
    4050    4071    4098       8    4050    4074    4101       8    4050    4074
    4104       8    4032    4062    4086       7    4032    4062    4089       7
    4032    4065    4035       6    4020    4053    4077       7    4020    4053
    4080       7    4020    4056    4026       6    4014    4050    4071       7
    4014    4050    4074       7    4008    4014    4050       8    4002    3996
    4026       9    4002    4035    4065      10    3999    3981    4002      10
    3999    4032    4062       8    3999    4032    4065       6    3996    4002
    4035       9    3996    4026    4056      10    3993    3978    3996      10
    3993    4020    4053       8    3993    4020    4056       6    3990    4014
    4008       6    3990    4014    4050       8    3987    4008    4014       6
    3981    3999    4032       6    3981    4002    3996       9    3981    4002
    4035      12    3978    3957    3981      13    3978    3993    4020       6
    3978    3996    4002       9    3978    3996    4026      12    3975    3957
    3978      13    3975    3957    3981      13    3975    3972    3987      12
    3975    3990    4014       6    3972    3975    3990      10    3972    3987
    4008      10    3963    3984    4005       4    3957    3975    3972      14
    3957    3975    3990      15    3957    3978    3993      15    3957    3978
    3996      14    3957    3981    3999      15    3957    3981    4002      14
    3954    3930    3957      14    3954    3972    3975       9    3954    3972
    3987       9    3948    3963    3984       5    3942    3963    3948       6
    3942    3963    3984       5    3936    3954    3972       9    3930    3954
    3936      12    3930    3954    3972       9    3930    3957    3975      13
    3930    3957    3978      13    3930    3957    3981      13    3927    3948
    3963       6    3924    3915    3927       6    3924    3942    3963       6
    3921    3936    3954      10    3918    3912    3921       6    3918    3930
    3954      10    3918    3930    3957      15    3915    3924    3942       6
    3915    3927    3948       6    3912    3909    3915       7    3912    3918
    3930       6    3912    3921    3936       6    3909    3912    3918       8
    3909    3912    3921       8    3909    3915    3924       8    3909    3915
    3927       8    3900    3909    3912       7    3900    3909    3915       7
    3894    3900    3909       8    3888    3900    3894       6    3888    3900
    3909       8    3876    3894    3900       6    3873    3867    3876       6
    3873    3888    3900       6    3867    3864    3870       4    3867    3873
    3888       6    3867    3876    3894       6    3864    3867    3873       5
    3864    3867    3876       5    4731    4755    4773       4    4722    4752
    4770       4    4713    4749    4767       4    4707    4746    4764       4
    4695    4743    4761       4    4686    4740    4758       4    4680    4731
    4755       5    4674    4731    4680       6    4674    4731    4755       5
    4668    4722    4752       5    4662    4722    4668       6    4662    4722
    4752       5    4656    4713    4749       5    4650    4713    4656       6
    4650    4713    4749       5    4644    4707    4746       5    4638    4707
    4644       6    4638    4707    4746       5    4635    4695    4743       5
    4629    4695    4635       6    4629    4695    4743       5    4620    4686
    4740       5    4614    4686    4620       6    4614    4686    4740       5
    4611    4680    4731       6    4608    4572    4611       6    4608    4674
    4731       6    4605    4668    4722       6    4602    4569    4605       6
    4602    4662    4722       6    4599    4656    4713       6    4596    4563
    4599       6    4596    4650    4713       6    4593    4644    4707       6
    4590    4560    4593       6    4590    4638    4707       6    4587    4635
    4695       6    4584    4557    4587       6    4584    4629    4695       6
    4581    4620    4686       6    4578    4554    4581       6    4578    4614
    4686       6    4572    4608    4674       6    4572    4611    4680       6
    4569    4545    4572       7    4569    4602    4662       6    4569    4605
    4668       6    4563    4596    4650       6    4563    4599    4656       6
    4560    4536    4563       7    4560    4590    4638       6    4560    4593
    4644       6    4557    4584    4629       6    4557    4587    4635       6
    4554    4533    4557       7    4554    4578    4614       6    4554    4581
    4620       6    4545    4515    4548       8    4545    4569    4602       8
    4545    4569    4605       8    4545    4572    4608       8    4545    4572
    4611       8    4536    4503    4539       8    4536    4560    4590       8
    4536    4560    4593       8    4536    4563    4596       8    4536    4563
    4599       8    4533    4554    4578       8    4533    4554    4581       8
    4533    4557    4584       8    4533    4557    4587       8    4515    4545
    4569       7    4515    4545    4572       7    4515    4548    4518       6
    4503    4536    4560       7    4503    4536    4563       7    4503    4539
    4509       6    4497    4533    4554       7    4497    4533    4557       7
    4491    4497    4533       8    4485    4479    4509       9    4485    4518
    4548      10    4482    4464    4485      10    4482    4515    4545       8
    4482    4515    4548       6    4479    4485    4518       9    4479    4509
    4539      10    4476    4461    4479      10    4476    4503    4536       8
    4476    4503    4539       6    4473    4497    4491       6    4473    4497
    4533       8    4470    4491    4497       6    4464    4482    4515       6
    4464    4485    4479       9    4464    4485    4518      12    4461    4440
    4464      13    4461    4476    4503       6    4461    4479    4485       9
    4461    4479    4509      12    4458    4440    4461      13    4458    4440
    4464      13    4458    4455    4470      12    4458    4473    4497       6
    4455    4458    4473      10    4455    4470    4491      10    4446    4467
    4488       4    4440    4458    4455      14    4440    4458    4473      15
    4440    4461    4476      15    4440    4461    4479      14    4440    4464
    4482      15    4440    4464    4485      14    4437    4413    4440      14
    4437    4455    4458       9    4437    4455    4470       9    4431    4446
    4467       5    4425    4446    4431       6    4425    4446    4467       5
    4419    4437    4455       9    4413    4437    4419      12    4413    4437
    4455       9    4413    4440    4458      13    4413    4440    4461      13
    4413    4440    4464      13    4410    4431    4446       6    4407    4398
    4410       6    4407    4425    4446       6    4404    4419    4437      10
    4401    4395    4404       6    4401    4413    4437      10    4401    4413
    4440      15    4398    4407    4425       6    4398    4410    4431       6
    4395    4392    4398       7    4395    4401    4413       6    4395    4404
    4419       6    4392    4395    4401       8    4392    4395    4404       8
    4392    4398    4407       8    4392    4398    4410       8    4383    4392
    4395       7    4383    4392    4398       7    4377    4383    4392       8
    4371    4383    4377       6    4371    4383    4392       8    4359    4377
    4383       6    4356    4350    4359       6    4356    4371    4383       6
    4350    4347    4353       4    4350    4356    4371       6    4350    4359
    4377       6    4347    4350    4356       5    4347    4350    4359       5
    5214    5238    5256       4    5205    5235    5253       4    5196    5232
    5250       4    5190    5229    5247       4    5178    5226    5244       4
    5169    5223    5241       4    5163    5214    5238       5    5157    5214
    5163       6    5157    5214    5238       5    5151    5205    5235       5
    5145    5205    5151       6    5145    5205    5235       5    5139    5196
    5232       5    5133    5196    5139       6    5133    5196    5232       5
    5127    5190    5229       5    5121    5190    5127       6    5121    5190
    5229       5    5118    5178    5226       5    5112    5178    5118       6
    5112    5178    5226       5    5103    5169    5223       5    5097    5169
    5103       6    5097    5169    5223       5    5094    5163    5214       6
    5091    5055    5094       6    5091    5157    5214       6    5088    5151
    5205       6    5085    5052    5088       6    5085    5145    5205       6
    5082    5139    5196       6    5079    5046    5082       6    5079    5133
    5196       6    5076    5127    5190       6    5073    5043    5076       6
    5073    5121    5190       6    5070    5118    5178       6    5067    5040
    5070       6    5067    5112    5178       6    5064    5103    5169       6
    5061    5037    5064       6    5061    5097    5169       6    5055    5091
    5157       6    5055    5094    5163       6    5052    5028    5055       7
    5052    5085    5145       6    5052    5088    5151       6    5046    5079
    5133       6    5046    5082    5139       6    5043    5019    5046       7
    5043    5073    5121       6    5043    5076    5127       6    5040    5067
    5112       6    5040    5070    5118       6    5037    5016    5040       7
    5037    5061    5097       6    5037    5064    5103       6    5028    4998
    5031       8    5028    5052    5085       8    5028    5052    5088       8
    5028    5055    5091       8    5028    5055    5094       8    5019    4986
    5022       8    5019    5043    5073       8    5019    5043    5076       8
    5019    5046    5079       8    5019    5046    5082       8    5016    5037
    5061       8    5016    5037    5064       8    5016    5040    5067       8
    5016    5040    5070       8    4998    5028    5052       7    4998    5028
    5055       7    4998    5031    5001       6    4986    5019    5043       7
    4986    5019    5046       7    4986    5022    4992       6    4980    5016
    5037       7    4980    5016    5040       7    4974    4980    5016       8
    4968    4962    4992       9    4968    5001    5031      10    4965    4947
    4968      10    4965    4998    5028       8    4965    4998    5031       6
    4962    4968    5001       9    4962    4992    5022      10    4959    4944
    4962      10    4959    4986    5019       8    4959    4986    5022       6
    4956    4980    4974       6    4956    4980    5016       8    4953    4974
    4980       6    4947    4965    4998       6    4947    4968    4962       9
    4947    4968    5001      12    4944    4923    4947      13    4944    4959
    4986       6    4944    4962    4968       9    4944    4962    4992      12
    4941    4923    4944      13    4941    4923    4947      13    4941    4938
    4953      12    4941    4956    4980       6    4938    4941    4956      10
    4938    4953    4974      10    4929    4950    4971       4    4923    4941
    4938      14    4923    4941    4956      15    4923    4944    4959      15
    4923    4944    4962      14    4923    4947    4965      15    4923    4947
    4968      14    4920    4896    4923      14    4920    4938    4941       9
    4920    4938    4953       9    4914    4929    4950       5    4908    4929
    4914       6    4908    4929    4950       5    4902    4920    4938       9
    4896    4920    4902      12    4896    4920    4938       9    4896    4923
    4941      13    4896    4923    4944      13    4896    4923    4947      13
    4893    4914    4929       6    4890    4881    4893       6    4890    4908
    4929       6    4887    4902    4920      10    4884    4878    4887       6
    4884    4896    4920      10    4884    4896    4923      15    4881    4890
    4908       6    4881    4893    4914       6    4878    4875    4881       7
    4878    4884    4896       6    4878    4887    4902       6    4875    4878
    4884       8    4875    4878    4887       8    4875    4881    4890       8
    4875    4881    4893       8    4866    4875    4878       7    4866    4875
    4881       7    4860    4866    4875       8    4854    4866    4860       6
    4854    4866    4875       8    4842    4860    4866       6    4839    4833
    4842       6    4839    4854    4866       6    4833    4830    4836       4
    4833    4839    4854       6    4833    4842    4860       6    4830    4833
    4839       5    4830    4833    4842       5    5697    5721    5739       4
    5688    5718    5736       4    5679    5715    5733       4    5673    5712
    5730       4    5661    5709    5727       4    5652    5706    5724       4
    5646    5697    5721       5    5640    5697    5646       6    5640    5697
    5721       5    5634    5688    5718       5    5628    5688    5634       6
    5628    5688    5718       5    5622    5679    5715       5    5616    5679
    5622       6    5616    5679    5715       5    5610    5673    5712       5
    5604    5673    5610       6    5604    5673    5712       5    5601    5661
    5709       5    5595    5661    5601       6    5595    5661    5709       5
    5586    5652    5706       5    5580    5652    5586       6    5580    5652
    5706       5    5577    5646    5697       6    5574    5538    5577       6
    5574    5640    5697       6    5571    5634    5688       6    5568    5535
    5571       6    5568    5628    5688       6    5565    5622    5679       6
    5562    5529    5565       6    5562    5616    5679       6    5559    5610
    5673       6    5556    5526    5559       6    5556    5604    5673       6
    5553    5601    5661       6    5550    5523    5553       6    5550    5595
    5661       6    5547    5586    5652       6    5544    5520    5547       6
    5544    5580    5652       6    5538    5574    5640       6    5538    5577
    5646       6    5535    5511    5538       7    5535    5568    5628       6
    5535    5571    5634       6    5529    5562    5616       6    5529    5565
    5622       6    5526    5502    5529       7    5526    5556    5604       6
    5526    5559    5610       6    5523    5550    5595       6    5523    5553
    5601       6    5520    5499    5523       7    5520    5544    5580       6
    5520    5547    5586       6    5511    5481    5514       8    5511    5535
    5568       8    5511    5535    5571       8    5511    5538    5574       8
    5511    5538    5577       8    5502    5469    5505       8    5502    5526
    5556       8    5502    5526    5559       8    5502    5529    5562       8
    5502    5529    5565       8    5499    5520    5544       8    5499    5520
    5547       8    5499    5523    5550       8    5499    5523    5553       8
    5481    5511    5535       7    5481    5511    5538       7    5481    5514
    5484       6    5469    5502    5526       7    5469    5502    5529       7
    5469    5505    5475       6    5463    5499    5520       7    5463    5499
    5523       7    5457    5463    5499       8    5451    5445    5475       9
    5451    5484    5514      10    5448    5430    5451      10    5448    5481
    5511       8    5448    5481    5514       6    5445    5451    5484       9
    5445    5475    5505      10    5442    5427    5445      10    5442    5469
    5502       8    5442    5469    5505       6    5439    5463    5457       6
    5439    5463    5499       8    5436    5457    5463       6    5430    5448
    5481       6    5430    5451    5445       9    5430    5451    5484      12
    5427    5406    5430      13    5427    5442    5469       6    5427    5445
    5451       9    5427    5445    5475      12    5424    5406    5427      13
    5424    5406    5430      13    5424    5421    5436      12    5424    5439
    5463       6    5421    5424    5439      10    5421    5436    5457      10
    5412    5433    5454       4    5406    5424    5421      14    5406    5424
    5439      15    5406    5427    5442      15    5406    5427    5445      14
    5406    5430    5448      15    5406    5430    5451      14    5403    5379
    5406      14    5403    5421    5424       9    5403    5421    5436       9
    5397    5412    5433       5    5391    5412    5397       6    5391    5412
    5433       5    5385    5403    5421       9    5379    5403    5385      12
    5379    5403    5421       9    5379    5406    5424      13    5379    5406
    5427      13    5379    5406    5430      13    5376    5397    5412       6
    5373    5364    5376       6    5373    5391    5412       6    5370    5385
    5403      10    5367    5361    5370       6    5367    5379    5403      10
    5367    5379    5406      15    5364    5373    5391       6    5364    5376
    5397       6    5361    5358    5364       7    5361    5367    5379       6
    5361    5370    5385       6    5358    5361    5367       8    5358    5361
    5370       8    5358    5364    5373       8    5358    5364    5376       8
    5349    5358    5361       7    5349    5358    5364       7    5343    5349
    5358       8    5337    5349    5343       6    5337    5349    5358       8
    5325    5343    5349       6    5322    5316    5325       6    5322    5337
    5349       6    5316    5313    5319       4    5316    5322    5337       6
    5316    5325    5343       6    5313    5316    5322       5    5313    5316
    5325       5    6180    6204    6222       4    6171    6201    6219       4
    6162    6198    6216       4    6156    6195    6213       4    6144    6192
    6210       4    6135    6189    6207       4    6129    6180    6204       5
    6123    6180    6129       6    6123    6180    6204       5    6117    6171
    6201       5    6111    6171    6117       6    6111    6171    6201       5
    6105    6162    6198       5    6099    6162    6105       6    6099    6162
    6198       5    6093    6156    6195       5    6087    6156    6093       6
    6087    6156    6195       5    6084    6144    6192       5    6078    6144
    6084       6    6078    6144    6192       5    6069    6135    6189       5
    6063    6135    6069       6    6063    6135    6189       5    6060    6129
    6180       6    6057    6021    6060       6    6057    6123    6180       6
    6054    6117    6171       6    6051    6018    6054       6    6051    6111
    6171       6    6048    6105    6162       6    6045    6012    6048       6
    6045    6099    6162       6    6042    6093    6156       6    6039    6009
    6042       6    6039    6087    6156       6    6036    6084    6144       6
    6033    6006    6036       6    6033    6078    6144       6    6030    6069
    6135       6    6027    6003    6030       6    6027    6063    6135       6
    6021    6057    6123       6    6021    6060    6129       6    6018    5994
    6021       7    6018    6051    6111       6    6018    6054    6117       6
    6012    6045    6099       6    6012    6048    6105       6    6009    5985
    6012       7    6009    6039    6087       6    6009    6042    6093       6
    6006    6033    6078       6    6006    6036    6084       6    6003    5982
    6006       7    6003    6027    6063       6    6003    6030    6069       6
    5994    5964    5997       8    5994    6018    6051       8    5994    6018
    6054       8    5994    6021    6057       8    5994    6021    6060       8
    5985    5952    5988       8    5985    6009    6039       8    5985    6009
    6042       8    5985    6012    6045       8    5985    6012    6048       8
    5982    6003    6027       8    5982    6003    6030       8    5982    6006
    6033       8    5982    6006    6036       8    5964    5994    6018       7
    5964    5994    6021       7    5964    5997    5967       6    5952    5985
    6009       7    5952    5985    6012       7    5952    5988    5958       6
    5946    5982    6003       7    5946    5982    6006       7    5940    5946
    5982       8    5934    5928    5958       9    5934    5967    5997      10
    5931    5913    5934      10    5931    5964    5994       8    5931    5964
    5997       6    5928    5934    5967       9    5928    5958    5988      10
    5925    5910    5928      10    5925    5952    5985       8    5925    5952
    5988       6    5922    5946    5940       6    5922    5946    5982       8
    5919    5940    5946       6    5913    5931    5964       6    5913    5934
    5928       9    5913    5934    5967      12    5910    5889    5913      13
    5910    5925    5952       6    5910    5928    5934       9    5910    5928
    5958      12    5907    5889    5910      13    5907    5889    5913      13
    5907    5904    5919      12    5907    5922    5946       6    5904    5907
    5922      10    5904    5919    5940      10    5895    5916    5937       4
    5889    5907    5904      14    5889    5907    5922      15    5889    5910
    5925      15    5889    5910    5928      14    5889    5913    5931      15
    5889    5913    5934      14    5886    5862    5889      14    5886    5904
    5907       9    5886    5904    5919       9    5880    5895    5916       5
    5874    5895    5880       6    5874    5895    5916       5    5868    5886
    5904       9    5862    5886    5868      12    5862    5886    5904       9
    5862    5889    5907      13    5862    5889    5910      13    5862    5889
    5913      13    5859    5880    5895       6    5856    5847    5859       6
    5856    5874    5895       6    5853    5868    5886      10    5850    5844
    5853       6    5850    5862    5886      10    5850    5862    5889      15
    5847    5856    5874       6    5847    5859    5880       6    5844    5841
    5847       7    5844    5850    5862       6    5844    5853    5868       6
    5841    5844    5850       8    5841    5844    5853       8    5841    5847
    5856       8    5841    5847    5859       8    5832    5841    5844       7
    5832    5841    5847       7    5826    5832    5841       8    5820    5832
    5826       6    5820    5832    5841       8    5808    5826    5832       6
    5805    5799    5808       6    5805    5820    5832       6    5799    5796
    5802       4    5799    5805    5820       6    5799    5808    5826       6
    5796    5799    5805       5    5796    5799    5808       5    6663    6687
    6705       4    6654    6684    6702       4    6645    6681    6699       4
    6639    6678    6696       4    6627    6675    6693       4    6618    6672
    6690       4    6612    6663    6687       5    6606    6663    6612       6
    6606    6663    6687       5    6600    6654    6684       5    6594    6654
    6600       6    6594    6654    6684       5    6588    6645    6681       5
    6582    6645    6588       6    6582    6645    6681       5    6576    6639
    6678       5    6570    6639    6576       6    6570    6639    6678       5
    6567    6627    6675       5    6561    6627    6567       6    6561    6627
    6675       5    6552    6618    6672       5    6546    6618    6552       6
    6546    6618    6672       5    6543    6612    6663       6    6540    6504
    6543       6    6540    6606    6663       6    6537    6600    6654       6
    6534    6501    6537       6    6534    6594    6654       6    6531    6588
    6645       6    6528    6495    6531       6    6528    6582    6645       6
    6525    6576    6639       6    6522    6492    6525       6    6522    6570
    6639       6    6519    6567    6627       6    6516    6489    6519       6
    6516    6561    6627       6    6513    6552    6618       6    6510    6486
    6513       6    6510    6546    6618       6    6504    6540    6606       6
    6504    6543    6612       6    6501    6477    6504       7    6501    6534
    6594       6    6501    6537    6600       6    6495    6528    6582       6
    6495    6531    6588       6    6492    6468    6495       7    6492    6522
    6570       6    6492    6525    6576       6    6489    6516    6561       6
    6489    6519    6567       6    6486    6465    6489       7    6486    6510
    6546       6    6486    6513    6552       6    6477    6447    6480       8
    6477    6501    6534       8    6477    6501    6537       8    6477    6504
    6540       8    6477    6504    6543       8    6468    6435    6471       8
    6468    6492    6522       8    6468    6492    6525       8    6468    6495
    6528       8    6468    6495    6531       8    6465    6486    6510       8
    6465    6486    6513       8    6465    6489    6516       8    6465    6489
    6519       8    6447    6477    6501       7    6447    6477    6504       7
    6447    6480    6450       6    6435    6468    6492       7    6435    6468
    6495       7    6435    6471    6441       6    6429    6465    6486       7
    6429    6465    6489       7    6423    6429    6465       8    6417    6411
    6441       9    6417    6450    6480      10    6414    6396    6417      10
    6414    6447    6477       8    6414    6447    6480       6    6411    6417
    6450       9    6411    6441    6471      10    6408    6393    6411      10
    6408    6435    6468       8    6408    6435    6471       6    6405    6429
    6423       6    6405    6429    6465       8    6402    6423    6429       6
    6396    6414    6447       6    6396    6417    6411       9    6396    6417
    6450      12    6393    6372    6396      13    6393    6408    6435       6
    6393    6411    6417       9    6393    6411    6441      12    6390    6372
    6393      13    6390    6372    6396      13    6390    6387    6402      12
    6390    6405    6429       6    6387    6390    6405      10    6387    6402
    6423      10    6378    6399    6420       4    6372    6390    6387      14
    6372    6390    6405      15    6372    6393    6408      15    6372    6393
    6411      14    6372    6396    6414      15    6372    6396    6417      14
    6369    6345    6372      14    6369    6387    6390       9    6369    6387
    6402       9    6363    6378    6399       5    6357    6378    6363       6
    6357    6378    6399       5    6351    6369    6387       9    6345    6369
    6351      12    6345    6369    6387       9    6345    6372    6390      13
    6345    6372    6393      13    6345    6372    6396      13    6342    6363
    6378       6    6339    6330    6342       6    6339    6357    6378       6
    6336    6351    6369      10    6333    6327    6336       6    6333    6345
    6369      10    6333    6345    6372      15    6330    6339    6357       6
    6330    6342    6363       6    6327    6324    6330       7    6327    6333
    6345       6    6327    6336    6351       6    6324    6327    6333       8
    6324    6327    6336       8    6324    6330    6339       8    6324    6330
    6342       8    6315    6324    6327       7    6315    6324    6330       7
    6309    6315    6324       8    6303    6315    6309       6    6303    6315
    6324       8    6291    6309    6315       6    6288    6282    6291       6
    6288    6303    6315       6    6282    6279    6285       4    6282    6288
    6303       6    6282    6291    6309       6    6279    6282    6288       5
    6279    6282    6291       5    7146    7170    7188       4    7137    7167
    7185       4    7128    7164    7182       4    7122    7161    7179       4
    7110    7158    7176       4    7101    7155    7173       4    7095    7146
    7170       5    7089    7146    7095       6    7089    7146    7170       5
    7083    7137    7167       5    7077    7137    7083       6    7077    7137
    7167       5    7071    7128    7164       5    7065    7128    7071       6
    7065    7128    7164       5    7059    7122    7161       5    7053    7122
    7059       6    7053    7122    7161       5    7050    7110    7158       5
    7044    7110    7050       6    7044    7110    7158       5    7035    7101
    7155       5    7029    7101    7035       6    7029    7101    7155       5
    7026    7095    7146       6    7023    6987    7026       6    7023    7089
    7146       6    7020    7083    7137       6    7017    6984    7020       6
    7017    7077    7137       6    7014    7071    7128       6    7011    6978
    7014       6    7011    7065    7128       6    7008    7059    7122       6
    7005    6975    7008       6    7005    7053    7122       6    7002    7050
    7110       6    6999    6972    7002       6    6999    7044    7110       6
    6996    7035    7101       6    6993    6969    6996       6    6993    7029
    7101       6    6987    7023    7089       6    6987    7026    7095       6
    6984    6960    6987       7    6984    7017    7077       6    6984    7020
    7083       6    6978    7011    7065       6    6978    7014    7071       6
    6975    6951    6978       7    6975    7005    7053       6    6975    7008
    7059       6    6972    6999    7044       6    6972    7002    7050       6
    6969    6948    6972       7    6969    6993    7029       6    6969    6996
    7035       6    6960    6930    6963       8    6960    6984    7017       8
    6960    6984    7020       8    6960    6987    7023       8    6960    6987
    7026       8    6951    6918    6954       8    6951    6975    7005       8
    6951    6975    7008       8    6951    6978    7011       8    6951    6978
    7014       8    6948    6969    6993       8    6948    6969    6996       8
    6948    6972    6999       8    6948    6972    7002       8    6930    6960
    6984       7    6930    6960    6987       7    6930    6963    6933       6
    6918    6951    6975       7    6918    6951    6978       7    6918    6954
    6924       6    6912    6948    6969       7    6912    6948    6972       7
    6906    6912    6948       8    6900    6894    6924       9    6900    6933
    6963      10    6897    6879    6900      10    6897    6930    6960       8
    6897    6930    6963       6    6894    6900    6933       9    6894    6924
    6954      10    6891    6876    6894      10    6891    6918    6951       8
    6891    6918    6954       6    6888    6912    6906       6    6888    6912
    6948       8    6885    6906    6912       6    6879    6897    6930       6
    6879    6900    6894       9    6879    6900    6933      12    6876    6855
    6879      13    6876    6891    6918       6    6876    6894    6900       9
    6876    6894    6924      12    6873    6855    6876      13    6873    6855
    6879      13    6873    6870    6885      12    6873    6888    6912       6
    6870    6873    6888      10    6870    6885    6906      10    6861    6882
    6903       4    6855    6873    6870      14    6855    6873    6888      15
    6855    6876    6891      15    6855    6876    6894      14    6855    6879
    6897      15    6855    6879    6900      14    6852    6828    6855      14
    6852    6870    6873       9    6852    6870    6885       9    6846    6861
    6882       5    6840    6861    6846       6    6840    6861    6882       5
    6834    6852    6870       9    6828    6852    6834      12    6828    6852
    6870       9    6828    6855    6873      13    6828    6855    6876      13
    6828    6855    6879      13    6825    6846    6861       6    6822    6813
    6825       6    6822    6840    6861       6    6819    6834    6852      10
    6816    6810    6819       6    6816    6828    6852      10    6816    6828
    6855      15    6813    6822    6840       6    6813    6825    6846       6
    6810    6807    6813       7    6810    6816    6828       6    6810    6819
    6834       6    6807    6810    6816       8    6807    6810    6819       8
    6807    6813    6822       8    6807    6813    6825       8    6798    6807
    6810       7    6798    6807    6813       7    6792    6798    6807       8
    6786    6798    6792       6    6786    6798    6807       8    6774    6792
    6798       6    6771    6765    6774       6    6771    6786    6798       6
    6765    6762    6768       4    6765    6771    6786       6    6765    6774
    6792       6    6762    6765    6771       5    6762    6765    6774       5
    7629    7653    7671       4    7620    7650    7668       4    7611    7647
    7665       4    7605    7644    7662       4    7593    7641    7659       4
    7584    7638    7656       4    7578    7629    7653       5    7572    7629
    7578       6    7572    7629    7653       5    7566    7620    7650       5
    7560    7620    7566       6    7560    7620    7650       5    7554    7611
    7647       5    7548    7611    7554       6    7548    7611    7647       5
    7542    7605    7644       5    7536    7605    7542       6    7536    7605
    7644       5    7533    7593    7641       5    7527    7593    7533       6
    7527    7593    7641       5    7518    7584    7638       5    7512    7584
    7518       6    7512    7584    7638       5    7509    7578    7629       6
    7506    7470    7509       6    7506    7572    7629       6    7503    7566
    7620       6    7500    7467    7503       6    7500    7560    7620       6
    7497    7554    7611       6    7494    7461    7497       6    7494    7548
    7611       6    7491    7542    7605       6    7488    7458    7491       6
    7488    7536    7605       6    7485    7533    7593       6    7482    7455
    7485       6    7482    7527    7593       6    7479    7518    7584       6
    7476    7452    7479       6    7476    7512    7584       6    7470    7506
    7572       6    7470    7509    7578       6    7467    7443    7470       7
    7467    7500    7560       6    7467    7503    7566       6    7461    7494
    7548       6    7461    7497    7554       6    7458    7434    7461       7
    7458    7488    7536       6    7458    7491    7542       6    7455    7482
    7527       6    7455    7485    7533       6    7452    7431    7455       7
    7452    7476    7512       6    7452    7479    7518       6    7443    7413
    7446       8    7443    7467    7500       8    7443    7467    7503       8
    7443    7470    7506       8    7443    7470    7509       8    7434    7401
    7437       8    7434    7458    7488       8    7434    7458    7491       8
    7434    7461    7494       8    7434    7461    7497       8    7431    7452
    7476       8    7431    7452    7479       8    7431    7455    7482       8
    7431    7455    7485       8    7413    7443    7467       7    7413    7443
    7470       7    7413    7446    7416       6    7401    7434    7458       7
    7401    7434    7461       7    7401    7437    7407       6    7395    7431
    7452       7    7395    7431    7455       7    7389    7395    7431       8
    7383    7377    7407       9    7383    7416    7446      10    7380    7362
    7383      10    7380    7413    7443       8    7380    7413    7446       6
    7377    7383    7416       9    7377    7407    7437      10    7374    7359
    7377      10    7374    7401    7434       8    7374    7401    7437       6
    7371    7395    7389       6    7371    7395    7431       8    7368    7389
    7395       6    7362    7380    7413       6    7362    7383    7377       9
    7362    7383    7416      12    7359    7338    7362      13    7359    7374
    7401       6    7359    7377    7383       9    7359    7377    7407      12
    7356    7338    7359      13    7356    7338    7362      13    7356    7353
    7368      12    7356    7371    7395       6    7353    7356    7371      10
    7353    7368    7389      10    7344    7365    7386       4    7338    7356
    7353      14    7338    7356    7371      15    7338    7359    7374      15
    7338    7359    7377      14    7338    7362    7380      15    7338    7362
    7383      14    7335    7311    7338      14    7335    7353    7356       9
    7335    7353    7368       9    7329    7344    7365       5    7323    7344
    7329       6    7323    7344    7365       5    7317    7335    7353       9
    7311    7335    7317      12    7311    7335    7353       9    7311    7338
    7356      13    7311    7338    7359      13    7311    7338    7362      13
    7308    7329    7344       6    7305    7296    7308       6    7305    7323
    7344       6    7302    7317    7335      10    7299    7293    7302       6
    7299    7311    7335      10    7299    7311    7338      15    7296    7305
    7323       6    7296    7308    7329       6    7293    7290    7296       7
    7293    7299    7311       6    7293    7302    7317       6    7290    7293
    7299       8    7290    7293    7302       8    7290    7296    7305       8
    7290    7296    7308       8    7281    7290    7293       7    7281    7290
    7296       7    7275    7281    7290       8    7269    7281    7275       6
    7269    7281    7290       8    7257    7275    7281       6    7254    7248
    7257       6    7254    7269    7281       6    7248    7245    7251       4
    7248    7254    7269       6    7248    7257    7275       6    7245    7248
    7254       5    7245    7248    7257       5    8112    8136    8154       4
    8103    8133    8151       4    8094    8130    8148       4    8088    8127
    8145       4    8076    8124    8142       4    8067    8121    8139       4
    8061    8112    8136       5    8055    8112    8061       6    8055    8112
    8136       5    8049    8103    8133       5    8043    8103    8049       6
    8043    8103    8133       5    8037    8094    8130       5    8031    8094
    8037       6    8031    8094    8130       5    8025    8088    8127       5
    8019    8088    8025       6    8019    8088    8127       5    8016    8076
    8124       5    8010    8076    8016       6    8010    8076    8124       5
    8001    8067    8121       5    7995    8067    8001       6    7995    8067
    8121       5    7992    8061    8112       6    7989    7953    7992       6
    7989    8055    8112       6    7986    8049    8103       6    7983    7950
    7986       6    7983    8043    8103       6    7980    8037    8094       6
    7977    7944    7980       6    7977    8031    8094       6    7974    8025
    8088       6    7971    7941    7974       6    7971    8019    8088       6
    7968    8016    8076       6    7965    7938    7968       6    7965    8010
    8076       6    7962    8001    8067       6    7959    7935    7962       6
    7959    7995    8067       6    7953    7989    8055       6    7953    7992
    8061       6    7950    7926    7953       7    7950    7983    8043       6
    7950    7986    8049       6    7944    7977    8031       6    7944    7980
    8037       6    7941    7917    7944       7    7941    7971    8019       6
    7941    7974    8025       6    7938    7965    8010       6    7938    7968
    8016       6    7935    7914    7938       7    7935    7959    7995       6
    7935    7962    8001       6    7926    7896    7929       8    7926    7950
    7983       8    7926    7950    7986       8    7926    7953    7989       8
    7926    7953    7992       8    7917    7884    7920       8    7917    7941
    7971       8    7917    7941    7974       8    7917    7944    7977       8
    7917    7944    7980       8    7914    7935    7959       8    7914    7935
    7962       8    7914    7938    7965       8    7914    7938    7968       8
    7896    7926    7950       7    7896    7926    7953       7    7896    7929
    7899       6    7884    7917    7941       7    7884    7917    7944       7
    7884    7920    7890       6    7878    7914    7935       7    7878    7914
    7938       7    7872    7878    7914       8    7866    7860    7890       9
    7866    7899    7929      10    7863    7845    7866      10    7863    7896
    7926       8    7863    7896    7929       6    7860    7866    7899       9
    7860    7890    7920      10    7857    7842    7860      10    7857    7884
    7917       8    7857    7884    7920       6    7854    7878    7872       6
    7854    7878    7914       8    7851    7872    7878       6    7845    7863
    7896       6    7845    7866    7860       9    7845    7866    7899      12
    7842    7821    7845      13    7842    7857    7884       6    7842    7860
    7866       9    7842    7860    7890      12    7839    7821    7842      13
    7839    7821    7845      13    7839    7836    7851      12    7839    7854
    7878       6    7836    7839    7854      10    7836    7851    7872      10
    7827    7848    7869       4    7821    7839    7836      14    7821    7839
    7854      15    7821    7842    7857      15    7821    7842    7860      14
    7821    7845    7863      15    7821    7845    7866      14    7818    7794
    7821      14    7818    7836    7839       9    7818    7836    7851       9
    7812    7827    7848       5    7806    7827    7812       6    7806    7827
    7848       5    7800    7818    7836       9    7794    7818    7800      12
    7794    7818    7836       9    7794    7821    7839      13    7794    7821
    7842      13    7794    7821    7845      13    7791    7812    7827       6
    7788    7779    7791       6    7788    7806    7827       6    7785    7800
    7818      10    7782    7776    7785       6    7782    7794    7818      10
    7782    7794    7821      15    7779    7788    7806       6    7779    7791
    7812       6    7776    7773    7779       7    7776    7782    7794       6
    7776    7785    7800       6    7773    7776    7782       8    7773    7776
    7785       8    7773    7779    7788       8    7773    7779    7791       8
    7764    7773    7776       7    7764    7773    7779       7    7758    7764
    7773       8    7752    7764    7758       6    7752    7764    7773       8
    7740    7758    7764       6    7737    7731    7740       6    7737    7752
    7764       6    7731    7728    7734       4    7731    7737    7752       6
    7731    7740    7758       6    7728    7731    7737       5    7728    7731
    7740       5    8595    8619    8637       4    8586    8616    8634       4
    8577    8613    8631       4    8571    8610    8628       4    8559    8607
    8625       4    8550    8604    8622       4    8544    8595    8619       5
    8538    8595    8544       6    8538    8595    8619       5    8532    8586
    8616       5    8526    8586    8532       6    8526    8586    8616       5
    8520    8577    8613       5    8514    8577    8520       6    8514    8577
    8613       5    8508    8571    8610       5    8502    8571    8508       6
    8502    8571    8610       5    8499    8559    8607       5    8493    8559
    8499       6    8493    8559    8607       5    8484    8550    8604       5
    8478    8550    8484       6    8478    8550    8604       5    8475    8544
    8595       6    8472    8436    8475       6    8472    8538    8595       6
    8469    8532    8586       6    8466    8433    8469       6    8466    8526
    8586       6    8463    8520    8577       6    8460    8427    8463       6
    8460    8514    8577       6    8457    8508    8571       6    8454    8424
    8457       6    8454    8502    8571       6    8451    8499    8559       6
    8448    8421    8451       6    8448    8493    8559       6    8445    8484
    8550       6    8442    8418    8445       6    8442    8478    8550       6
    8436    8472    8538       6    8436    8475    8544       6    8433    8409
    8436       7    8433    8466    8526       6    8433    8469    8532       6
    8427    8460    8514       6    8427    8463    8520       6    8424    8400
    8427       7    8424    8454    8502       6    8424    8457    8508       6
    8421    8448    8493       6    8421    8451    8499       6    8418    8397
    8421       7    8418    8442    8478       6    8418    8445    8484       6
    8409    8379    8412       8    8409    8433    8466       8    8409    8433
    8469       8    8409    8436    8472       8    8409    8436    8475       8
    8400    8367    8403       8    8400    8424    8454       8    8400    8424
    8457       8    8400    8427    8460       8    8400    8427    8463       8
    8397    8418    8442       8    8397    8418    8445       8    8397    8421
    8448       8    8397    8421    8451       8    8379    8409    8433       7
    8379    8409    8436       7    8379    8412    8382       6    8367    8400
    8424       7    8367    8400    8427       7    8367    8403    8373       6
    8361    8397    8418       7    8361    8397    8421       7    8355    8361
    8397       8    8349    8343    8373       9    8349    8382    8412      10
    8346    8328    8349      10    8346    8379    8409       8    8346    8379
    8412       6    8343    8349    8382       9    8343    8373    8403      10
    8340    8325    8343      10    8340    8367    8400       8    8340    8367
    8403       6    8337    8361    8355       6    8337    8361    8397       8
    8334    8355    8361       6    8328    8346    8379       6    8328    8349
    8343       9    8328    8349    8382      12    8325    8304    8328      13
    8325    8340    8367       6    8325    8343    8349       9    8325    8343
    8373      12    8322    8304    8325      13    8322    8304    8328      13
    8322    8319    8334      12    8322    8337    8361       6    8319    8322
    8337      10    8319    8334    8355      10    8310    8331    8352       4
    8304    8322    8319      14    8304    8322    8337      15    8304    8325
    8340      15    8304    8325    8343      14    8304    8328    8346      15
    8304    8328    8349      14    8301    8277    8304      14    8301    8319
    8322       9    8301    8319    8334       9    8295    8310    8331       5
    8289    8310    8295       6    8289    8310    8331       5    8283    8301
    8319       9    8277    8301    8283      12    8277    8301    8319       9
    8277    8304    8322      13    8277    8304    8325      13    8277    8304
    8328      13    8274    8295    8310       6    8271    8262    8274       6
    8271    8289    8310       6    8268    8283    8301      10    8265    8259
    8268       6    8265    8277    8301      10    8265    8277    8304      15
    8262    8271    8289       6    8262    8274    8295       6    8259    8256
    8262       7    8259    8265    8277       6    8259    8268    8283       6
    8256    8259    8265       8    8256    8259    8268       8    8256    8262
    8271       8    8256    8262    8274       8    8247    8256    8259       7
    8247    8256    8262       7    8241    8247    8256       8    8235    8247
    8241       6    8235    8247    8256       8    8223    8241    8247       6
    8220    8214    8223       6    8220    8235    8247       6    8214    8211
    8217       4    8214    8220    8235       6    8214    8223    8241       6
    8211    8214    8220       5    8211    8214    8223       5    9078    9102
    9120       4    9069    9099    9117       4    9060    9096    9114       4
    9054    9093    9111       4    9042    9090    9108       4    9033    9087
    9105       4    9027    9078    9102       5    9021    9078    9027       6
    9021    9078    9102       5    9015    9069    9099       5    9009    9069
    9015       6    9009    9069    9099       5    9003    9060    9096       5
    8997    9060    9003       6    8997    9060    9096       5    8991    9054
    9093       5    8985    9054    8991       6    8985    9054    9093       5
    8982    9042    9090       5    8976    9042    8982       6    8976    9042
    9090       5    8967    9033    9087       5    8961    9033    8967       6
    8961    9033    9087       5    8958    9027    9078       6    8955    8919
    8958       6    8955    9021    9078       6    8952    9015    9069       6
    8949    8916    8952       6    8949    9009    9069       6    8946    9003
    9060       6    8943    8910    8946       6    8943    8997    9060       6
    8940    8991    9054       6    8937    8907    8940       6    8937    8985
    9054       6    8934    8982    9042       6    8931    8904    8934       6
    8931    8976    9042       6    8928    8967    9033       6    8925    8901
    8928       6    8925    8961    9033       6    8919    8955    9021       6
    8919    8958    9027       6    8916    8892    8919       7    8916    8949
    9009       6    8916    8952    9015       6    8910    8943    8997       6
    8910    8946    9003       6    8907    8883    8910       7    8907    8937
    8985       6    8907    8940    8991       6    8904    8931    8976       6
    8904    8934    8982       6    8901    8880    8904       7    8901    8925
    8961       6    8901    8928    8967       6    8892    8862    8895       8
    8892    8916    8949       8    8892    8916    8952       8    8892    8919
    8955       8    8892    8919    8958       8    8883    8850    8886       8
    8883    8907    8937       8    8883    8907    8940       8    8883    8910
    8943       8    8883    8910    8946       8    8880    8901    8925       8
    8880    8901    8928       8    8880    8904    8931       8    8880    8904
    8934       8    8862    8892    8916       7    8862    8892    8919       7
    8862    8895    8865       6    8850    8883    8907       7    8850    8883
    8910       7    8850    8886    8856       6    8844    8880    8901       7
    8844    8880    8904       7    8838    8844    8880       8    8832    8826
    8856       9    8832    8865    8895      10    8829    8811    8832      10
    8829    8862    8892       8    8829    8862    8895       6    8826    8832
    8865       9    8826    8856    8886      10    8823    8808    8826      10
    8823    8850    8883       8    8823    8850    8886       6    8820    8844
    8838       6    8820    8844    8880       8    8817    8838    8844       6
    8811    8829    8862       6    8811    8832    8826       9    8811    8832
    8865      12    8808    8787    8811      13    8808    8823    8850       6
    8808    8826    8832       9    8808    8826    8856      12    8805    8787
    8808      13    8805    8787    8811      13    8805    8802    8817      12
    8805    8820    8844       6    8802    8805    8820      10    8802    8817
    8838      10    8793    8814    8835       4    8787    8805    8802      14
    8787    8805    8820      15    8787    8808    8823      15    8787    8808
    8826      14    8787    8811    8829      15    8787    8811    8832      14
    8784    8760    8787      14    8784    8802    8805       9    8784    8802
    8817       9    8778    8793    8814       5    8772    8793    8778       6
    8772    8793    8814       5    8766    8784    8802       9    8760    8784
    8766      12    8760    8784    8802       9    8760    8787    8805      13
    8760    8787    8808      13    8760    8787    8811      13    8757    8778
    8793       6    8754    8745    8757       6    8754    8772    8793       6
    8751    8766    8784      10    8748    8742    8751       6    8748    8760
    8784      10    8748    8760    8787      15    8745    8754    8772       6
    8745    8757    8778       6    8742    8739    8745       7    8742    8748
    8760       6    8742    8751    8766       6    8739    8742    8748       8
    8739    8742    8751       8    8739    8745    8754       8    8739    8745
    8757       8    8730    8739    8742       7    8730    8739    8745       7
    8724    8730    8739       8    8718    8730    8724       6    8718    8730
    8739       8    8706    8724    8730       6    8703    8697    8706       6
    8703    8718    8730       6    8697    8694    8700       4    8697    8703
    8718       6    8697    8706    8724       6    8694    8697    8703       5
    8694    8697    8706       5    9561    9585    9603       4    9552    9582
    9600       4    9543    9579    9597       4    9537    9576    9594       4
    9525    9573    9591       4    9516    9570    9588       4    9510    9561
    9585       5    9504    9561    9510       6    9504    9561    9585       5
    9498    9552    9582       5    9492    9552    9498       6    9492    9552
    9582       5    9486    9543    9579       5    9480    9543    9486       6
    9480    9543    9579       5    9474    9537    9576       5    9468    9537
    9474       6    9468    9537    9576       5    9465    9525    9573       5
    9459    9525    9465       6    9459    9525    9573       5    9450    9516
    9570       5    9444    9516    9450       6    9444    9516    9570       5
    9441    9510    9561       6    9438    9402    9441       6    9438    9504
    9561       6    9435    9498    9552       6    9432    9399    9435       6
    9432    9492    9552       6    9429    9486    9543       6    9426    9393
    9429       6    9426    9480    9543       6    9423    9474    9537       6
    9420    9390    9423       6    9420    9468    9537       6    9417    9465
    9525       6    9414    9387    9417       6    9414    9459    9525       6
    9411    9450    9516       6    9408    9384    9411       6    9408    9444
    9516       6    9402    9438    9504       6    9402    9441    9510       6
    9399    9375    9402       7    9399    9432    9492       6    9399    9435
    9498       6    9393    9426    9480       6    9393    9429    9486       6
    9390    9366    9393       7    9390    9420    9468       6    9390    9423
    9474       6    9387    9414    9459       6    9387    9417    9465       6
    9384    9363    9387       7    9384    9408    9444       6    9384    9411
    9450       6    9375    9345    9378       8    9375    9399    9432       8
    9375    9399    9435       8    9375    9402    9438       8    9375    9402
    9441       8    9366    9333    9369       8    9366    9390    9420       8
    9366    9390    9423       8    9366    9393    9426       8    9366    9393
    9429       8    9363    9384    9408       8    9363    9384    9411       8
    9363    9387    9414       8    9363    9387    9417       8    9345    9375
    9399       7    9345    9375    9402       7    9345    9378    9348       6
    9333    9366    9390       7    9333    9366    9393       7    9333    9369
    9339       6    9327    9363    9384       7    9327    9363    9387       7
    9321    9327    9363       8    9315    9309    9339       9    9315    9348
    9378      10    9312    9294    9315      10    9312    9345    9375       8
    9312    9345    9378       6    9309    9315    9348       9    9309    9339
    9369      10    9306    9291    9309      10    9306    9333    9366       8
    9306    9333    9369       6    9303    9327    9321       6    9303    9327
    9363       8    9300    9321    9327       6    9294    9312    9345       6
    9294    9315    9309       9    9294    9315    9348      12    9291    9270
    9294      13    9291    9306    9333       6    9291    9309    9315       9
    9291    9309    9339      12    9288    9270    9291      13    9288    9270
    9294      13    9288    9285    9300      12    9288    9303    9327       6
    9285    9288    9303      10    9285    9300    9321      10    9276    9297
    9318       4    9270    9288    9285      14    9270    9288    9303      15
    9270    9291    9306      15    9270    9291    9309      14    9270    9294
    9312      15    9270    9294    9315      14    9267    9243    9270      14
    9267    9285    9288       9    9267    9285    9300       9    9261    9276
    9297       5    9255    9276    9261       6    9255    9276    9297       5
    9249    9267    9285       9    9243    9267    9249      12    9243    9267
    9285       9    9243    9270    9288      13    9243    9270    9291      13
    9243    9270    9294      13    9240    9261    9276       6    9237    9228
    9240       6    9237    9255    9276       6    9234    9249    9267      10
    9231    9225    9234       6    9231    9243    9267      10    9231    9243
    9270      15    9228    9237    9255       6    9228    9240    9261       6
    9225    9222    9228       7    9225    9231    9243       6    9225    9234
    9249       6    9222    9225    9231       8    9222    9225    9234       8
    9222    9228    9237       8    9222    9228    9240       8    9213    9222
    9225       7    9213    9222    9228       7    9207    9213    9222       8
    9201    9213    9207       6    9201    9213    9222       8    9189    9207
    9213       6    9186    9180    9189       6    9186    9201    9213       6
    9180    9177    9183       4    9180    9186    9201       6    9180    9189
    9207       6    9177    9180    9186       5    9177    9180    9189       5
   10044   10068   10086       4   10035   10065   10083       4   10026   10062
   10080       4   10020   10059   10077       4   10008   10056   10074       4
    9999   10053   10071       4    9993   10044   10068       5    9987   10044
    9993       6    9987   10044   10068       5    9981   10035   10065       5
    9975   10035    9981       6    9975   10035   10065       5    9969   10026
   10062       5    9963   10026    9969       6    9963   10026   10062       5
    9957   10020   10059       5    9951   10020    9957       6    9951   10020
   10059       5    9948   10008   10056       5    9942   10008    9948       6
    9942   10008   10056       5    9933    9999   10053       5    9927    9999
    9933       6    9927    9999   10053       5    9924    9993   10044       6
    9921    9885    9924       6    9921    9987   10044       6    9918    9981
   10035       6    9915    9882    9918       6    9915    9975   10035       6
    9912    9969   10026       6    9909    9876    9912       6    9909    9963
   10026       6    9906    9957   10020       6    9903    9873    9906       6
    9903    9951   10020       6    9900    9948   10008       6    9897    9870
    9900       6    9897    9942   10008       6    9894    9933    9999       6
    9891    9867    9894       6    9891    9927    9999       6    9885    9921
    9987       6    9885    9924    9993       6    9882    9858    9885       7
    9882    9915    9975       6    9882    9918    9981       6    9876    9909
    9963       6    9876    9912    9969       6    9873    9849    9876       7
    9873    9903    9951       6    9873    9906    9957       6    9870    9897
    9942       6    9870    9900    9948       6    9867    9846    9870       7
    9867    9891    9927       6    9867    9894    9933       6    9858    9828
    9861       8    9858    9882    9915       8    9858    9882    9918       8
    9858    9885    9921       8    9858    9885    9924       8    9849    9816
    9852       8    9849    9873    9903       8    9849    9873    9906       8
    9849    9876    9909       8    9849    9876    9912       8    9846    9867
    9891       8    9846    9867    9894       8    9846    9870    9897       8
    9846    9870    9900       8    9828    9858    9882       7    9828    9858
    9885       7    9828    9861    9831       6    9816    9849    9873       7
    9816    9849    9876       7    9816    9852    9822       6    9810    9846
    9867       7    9810    9846    9870       7    9804    9810    9846       8
    9798    9792    9822       9    9798    9831    9861      10    9795    9777
    9798      10    9795    9828    9858       8    9795    9828    9861       6
    9792    9798    9831       9    9792    9822    9852      10    9789    9774
    9792      10    9789    9816    9849       8    9789    9816    9852       6
    9786    9810    9804       6    9786    9810    9846       8    9783    9804
    9810       6    9777    9795    9828       6    9777    9798    9792       9
    9777    9798    9831      12    9774    9753    9777      13    9774    9789
    9816       6    9774    9792    9798       9    9774    9792    9822      12
    9771    9753    9774      13    9771    9753    9777      13    9771    9768
    9783      12    9771    9786    9810       6    9768    9771    9786      10
    9768    9783    9804      10    9759    9780    9801       4    9753    9771
    9768      14    9753    9771    9786      15    9753    9774    9789      15
    9753    9774    9792      14    9753    9777    9795      15    9753    9777
    9798      14    9750    9726    9753      14    9750    9768    9771       9
    9750    9768    9783       9    9744    9759    9780       5    9738    9759
    9744       6    9738    9759    9780       5    9732    9750    9768       9
    9726    9750    9732      12    9726    9750    9768       9    9726    9753
    9771      13    9726    9753    9774      13    9726    9753    9777      13
    9723    9744    9759       6    9720    9711    9723       6    9720    9738
    9759       6    9717    9732    9750      10    9714    9708    9717       6
    9714    9726    9750      10    9714    9726    9753      15    9711    9720
    9738       6    9711    9723    9744       6    9708    9705    9711       7
    9708    9714    9726       6    9708    9717    9732       6    9705    9708
    9714       8    9705    9708    9717       8    9705    9711    9720       8
    9705    9711    9723       8    9696    9705    9708       7    9696    9705
    9711       7    9690    9696    9705       8    9684    9696    9690       6
    9684    9696    9705       8    9672    9690    9696       6    9669    9663
    9672       6    9669    9684    9696       6    9663    9660    9666       4
    9663    9669    9684       6    9663    9672    9690       6    9660    9663
    9669       5    9660    9663    9672       5   10527   10551   10569       4
   10518   10548   10566       4   10509   10545   10563       4   10503   10542
   10560       4   10491   10539   10557       4   10482   10536   10554       4
   10476   10527   10551       5   10470   10527   10476       6   10470   10527
   10551       5   10464   10518   10548       5   10458   10518   10464       6
   10458   10518   10548       5   10452   10509   10545       5   10446   10509
   10452       6   10446   10509   10545       5   10440   10503   10542       5
   10434   10503   10440       6   10434   10503   10542       5   10431   10491
   10539       5   10425   10491   10431       6   10425   10491   10539       5
   10416   10482   10536       5   10410   10482   10416       6   10410   10482
   10536       5   10407   10476   10527       6   10404   10368   10407       6
   10404   10470   10527       6   10401   10464   10518       6   10398   10365
   10401       6   10398   10458   10518       6   10395   10452   10509       6
   10392   10359   10395       6   10392   10446   10509       6   10389   10440
   10503       6   10386   10356   10389       6   10386   10434   10503       6
   10383   10431   10491       6   10380   10353   10383       6   10380   10425
   10491       6   10377   10416   10482       6   10374   10350   10377       6
   10374   10410   10482       6   10368   10404   10470       6   10368   10407
   10476       6   10365   10341   10368       7   10365   10398   10458       6
   10365   10401   10464       6   10359   10392   10446       6   10359   10395
   10452       6   10356   10332   10359       7   10356   10386   10434       6
   10356   10389   10440       6   10353   10380   10425       6   10353   10383
   10431       6   10350   10329   10353       7   10350   10374   10410       6
   10350   10377   10416       6   10341   10311   10344       8   10341   10365
   10398       8   10341   10365   10401       8   10341   10368   10404       8
   10341   10368   10407       8   10332   10299   10335       8   10332   10356
   10386       8   10332   10356   10389       8   10332   10359   10392       8
   10332   10359   10395       8   10329   10350   10374       8   10329   10350
   10377       8   10329   10353   10380       8   10329   10353   10383       8
   10311   10341   10365       7   10311   10341   10368       7   10311   10344
   10314       6   10299   10332   10356       7   10299   10332   10359       7
   10299   10335   10305       6   10293   10329   10350       7   10293   10329
   10353       7   10287   10293   10329       8   10281   10275   10305       9
   10281   10314   10344      10   10278   10260   10281      10   10278   10311
   10341       8   10278   10311   10344       6   10275   10281   10314       9
   10275   10305   10335      10   10272   10257   10275      10   10272   10299
   10332       8   10272   10299   10335       6   10269   10293   10287       6
   10269   10293   10329       8   10266   10287   10293       6   10260   10278
   10311       6   10260   10281   10275       9   10260   10281   10314      12
   10257   10236   10260      13   10257   10272   10299       6   10257   10275
   10281       9   10257   10275   10305      12   10254   10236   10257      13
   10254   10236   10260      13   10254   10251   10266      12   10254   10269
   10293       6   10251   10254   10269      10   10251   10266   10287      10
   10242   10263   10284       4   10236   10254   10251      14   10236   10254
   10269      15   10236   10257   10272      15   10236   10257   10275      14
   10236   10260   10278      15   10236   10260   10281      14   10233   10209
   10236      14   10233   10251   10254       9   10233   10251   10266       9
   10227   10242   10263       5   10221   10242   10227       6   10221   10242
   10263       5   10215   10233   10251       9   10209   10233   10215      12
   10209   10233   10251       9   10209   10236   10254      13   10209   10236
   10257      13   10209   10236   10260      13   10206   10227   10242       6
   10203   10194   10206       6   10203   10221   10242       6   10200   10215
   10233      10   10197   10191   10200       6   10197   10209   10233      10
   10197   10209   10236      15   10194   10203   10221       6   10194   10206
   10227       6   10191   10188   10194       7   10191   10197   10209       6
   10191   10200   10215       6   10188   10191   10197       8   10188   10191
   10200       8   10188   10194   10203       8   10188   10194   10206       8
   10179   10188   10191       7   10179   10188   10194       7   10173   10179
   10188       8   10167   10179   10173       6   10167   10179   10188       8
   10155   10173   10179       6   10152   10146   10155       6   10152   10167
   10179       6   10146   10143   10149       4   10146   10152   10167       6
   10146   10155   10173       6   10143   10146   10152       5   10143   10146
   10155       5   11010   11034   11052       4   11001   11031   11049       4
   10992   11028   11046       4   10986   11025   11043       4   10974   11022
   11040       4   10965   11019   11037       4   10959   11010   11034       5
   10953   11010   10959       6   10953   11010   11034       5   10947   11001
   11031       5   10941   11001   10947       6   10941   11001   11031       5
   10935   10992   11028       5   10929   10992   10935       6   10929   10992
   11028       5   10923   10986   11025       5   10917   10986   10923       6
   10917   10986   11025       5   10914   10974   11022       5   10908   10974
   10914       6   10908   10974   11022       5   10899   10965   11019       5
   10893   10965   10899       6   10893   10965   11019       5   10890   10959
   11010       6   10887   10851   10890       6   10887   10953   11010       6
   10884   10947   11001       6   10881   10848   10884       6   10881   10941
   11001       6   10878   10935   10992       6   10875   10842   10878       6
   10875   10929   10992       6   10872   10923   10986       6   10869   10839
   10872       6   10869   10917   10986       6   10866   10914   10974       6
   10863   10836   10866       6   10863   10908   10974       6   10860   10899
   10965       6   10857   10833   10860       6   10857   10893   10965       6
   10851   10887   10953       6   10851   10890   10959       6   10848   10824
   10851       7   10848   10881   10941       6   10848   10884   10947       6
   10842   10875   10929       6   10842   10878   10935       6   10839   10815
   10842       7   10839   10869   10917       6   10839   10872   10923       6
   10836   10863   10908       6   10836   10866   10914       6   10833   10812
   10836       7   10833   10857   10893       6   10833   10860   10899       6
   10824   10794   10827       8   10824   10848   10881       8   10824   10848
   10884       8   10824   10851   10887       8   10824   10851   10890       8
   10815   10782   10818       8   10815   10839   10869       8   10815   10839
   10872       8   10815   10842   10875       8   10815   10842   10878       8
   10812   10833   10857       8   10812   10833   10860       8   10812   10836
   10863       8   10812   10836   10866       8   10794   10824   10848       7
   10794   10824   10851       7   10794   10827   10797       6   10782   10815
   10839       7   10782   10815   10842       7   10782   10818   10788       6
   10776   10812   10833       7   10776   10812   10836       7   10770   10776
   10812       8   10764   10758   10788       9   10764   10797   10827      10
   10761   10743   10764      10   10761   10794   10824       8   10761   10794
   10827       6   10758   10764   10797       9   10758   10788   10818      10
   10755   10740   10758      10   10755   10782   10815       8   10755   10782
   10818       6   10752   10776   10770       6   10752   10776   10812       8
   10749   10770   10776       6   10743   10761   10794       6   10743   10764
   10758       9   10743   10764   10797      12   10740   10719   10743      13
   10740   10755   10782       6   10740   10758   10764       9   10740   10758
   10788      12   10737   10719   10740      13   10737   10719   10743      13
   10737   10734   10749      12   10737   10752   10776       6   10734   10737
   10752      10   10734   10749   10770      10   10725   10746   10767       4
   10719   10737   10734      14   10719   10737   10752      15   10719   10740
   10755      15   10719   10740   10758      14   10719   10743   10761      15
   10719   10743   10764      14   10716   10692   10719      14   10716   10734
   10737       9   10716   10734   10749       9   10710   10725   10746       5
   10704   10725   10710       6   10704   10725   10746       5   10698   10716
   10734       9   10692   10716   10698      12   10692   10716   10734       9
   10692   10719   10737      13   10692   10719   10740      13   10692   10719
   10743      13   10689   10710   10725       6   10686   10677   10689       6
   10686   10704   10725       6   10683   10698   10716      10   10680   10674
   10683       6   10680   10692   10716      10   10680   10692   10719      15
   10677   10686   10704       6   10677   10689   10710       6   10674   10671
   10677       7   10674   10680   10692       6   10674   10683   10698       6
   10671   10674   10680       8   10671   10674   10683       8   10671   10677
   10686       8   10671   10677   10689       8   10662   10671   10674       7
   10662   10671   10677       7   10656   10662   10671       8   10650   10662
   10656       6   10650   10662   10671       8   10638   10656   10662       6
   10635   10629   10638       6   10635   10650   10662       6   10629   10626
   10632       4   10629   10635   10650       6   10629   10638   10656       6
   10626   10629   10635       5   10626   10629   10638       5   11493   11517
   11535       4   11484   11514   11532       4   11475   11511   11529       4
   11469   11508   11526       4   11457   11505   11523       4   11448   11502
   11520       4   11442   11493   11517       5   11436   11493   11442       6
   11436   11493   11517       5   11430   11484   11514       5   11424   11484
   11430       6   11424   11484   11514       5   11418   11475   11511       5
   11412   11475   11418       6   11412   11475   11511       5   11406   11469
   11508       5   11400   11469   11406       6   11400   11469   11508       5
   11397   11457   11505       5   11391   11457   11397       6   11391   11457
   11505       5   11382   11448   11502       5   11376   11448   11382       6
   11376   11448   11502       5   11373   11442   11493       6   11370   11334
   11373       6   11370   11436   11493       6   11367   11430   11484       6
   11364   11331   11367       6   11364   11424   11484       6   11361   11418
   11475       6   11358   11325   11361       6   11358   11412   11475       6
   11355   11406   11469       6   11352   11322   11355       6   11352   11400
   11469       6   11349   11397   11457       6   11346   11319   11349       6
   11346   11391   11457       6   11343   11382   11448       6   11340   11316
   11343       6   11340   11376   11448       6   11334   11370   11436       6
   11334   11373   11442       6   11331   11307   11334       7   11331   11364
   11424       6   11331   11367   11430       6   11325   11358   11412       6
   11325   11361   11418       6   11322   11298   11325       7   11322   11352
   11400       6   11322   11355   11406       6   11319   11346   11391       6
   11319   11349   11397       6   11316   11295   11319       7   11316   11340
   11376       6   11316   11343   11382       6   11307   11277   11310       8
   11307   11331   11364       8   11307   11331   11367       8   11307   11334
   11370       8   11307   11334   11373       8   11298   11265   11301       8
   11298   11322   11352       8   11298   11322   11355       8   11298   11325
   11358       8   11298   11325   11361       8   11295   11316   11340       8
   11295   11316   11343       8   11295   11319   11346       8   11295   11319
   11349       8   11277   11307   11331       7   11277   11307   11334       7
   11277   11310   11280       6   11265   11298   11322       7   11265   11298
   11325       7   11265   11301   11271       6   11259   11295   11316       7
   11259   11295   11319       7   11253   11259   11295       8   11247   11241
   11271       9   11247   11280   11310      10   11244   11226   11247      10
   11244   11277   11307       8   11244   11277   11310       6   11241   11247
   11280       9   11241   11271   11301      10   11238   11223   11241      10
   11238   11265   11298       8   11238   11265   11301       6   11235   11259
   11253       6   11235   11259   11295       8   11232   11253   11259       6
   11226   11244   11277       6   11226   11247   11241       9   11226   11247
   11280      12   11223   11202   11226      13   11223   11238   11265       6
   11223   11241   11247       9   11223   11241   11271      12   11220   11202
   11223      13   11220   11202   11226      13   11220   11217   11232      12
   11220   11235   11259       6   11217   11220   11235      10   11217   11232
   11253      10   11208   11229   11250       4   11202   11220   11217      14
   11202   11220   11235      15   11202   11223   11238      15   11202   11223
   11241      14   11202   11226   11244      15   11202   11226   11247      14
   11199   11175   11202      14   11199   11217   11220       9   11199   11217
   11232       9   11193   11208   11229       5   11187   11208   11193       6
   11187   11208   11229       5   11181   11199   11217       9   11175   11199
   11181      12   11175   11199   11217       9   11175   11202   11220      13
   11175   11202   11223      13   11175   11202   11226      13   11172   11193
   11208       6   11169   11160   11172       6   11169   11187   11208       6
   11166   11181   11199      10   11163   11157   11166       6   11163   11175
   11199      10   11163   11175   11202      15   11160   11169   11187       6
   11160   11172   11193       6   11157   11154   11160       7   11157   11163
   11175       6   11157   11166   11181       6   11154   11157   11163       8
   11154   11157   11166       8   11154   11160   11169       8   11154   11160
   11172       8   11145   11154   11157       7   11145   11154   11160       7
   11139   11145   11154       8   11133   11145   11139       6   11133   11145
   11154       8   11121   11139   11145       6   11118   11112   11121       6
   11118   11133   11145       6   11112   11109   11115       4   11112   11118
   11133       6   11112   11121   11139       6   11109   11112   11118       5
   11109   11112   11121       5   11976   12000   12018       4   11967   11997
   12015       4   11958   11994   12012       4   11952   11991   12009       4
   11940   11988   12006       4   11931   11985   12003       4   11925   11976
   12000       5   11919   11976   11925       6   11919   11976   12000       5
   11913   11967   11997       5   11907   11967   11913       6   11907   11967
   11997       5   11901   11958   11994       5   11895   11958   11901       6
   11895   11958   11994       5   11889   11952   11991       5   11883   11952
   11889       6   11883   11952   11991       5   11880   11940   11988       5
   11874   11940   11880       6   11874   11940   11988       5   11865   11931
   11985       5   11859   11931   11865       6   11859   11931   11985       5
   11856   11925   11976       6   11853   11817   11856       6   11853   11919
   11976       6   11850   11913   11967       6   11847   11814   11850       6
   11847   11907   11967       6   11844   11901   11958       6   11841   11808
   11844       6   11841   11895   11958       6   11838   11889   11952       6
   11835   11805   11838       6   11835   11883   11952       6   11832   11880
   11940       6   11829   11802   11832       6   11829   11874   11940       6
   11826   11865   11931       6   11823   11799   11826       6   11823   11859
   11931       6   11817   11853   11919       6   11817   11856   11925       6
   11814   11790   11817       7   11814   11847   11907       6   11814   11850
   11913       6   11808   11841   11895       6   11808   11844   11901       6
   11805   11781   11808       7   11805   11835   11883       6   11805   11838
   11889       6   11802   11829   11874       6   11802   11832   11880       6
   11799   11778   11802       7   11799   11823   11859       6   11799   11826
   11865       6   11790   11760   11793       8   11790   11814   11847       8
   11790   11814   11850       8   11790   11817   11853       8   11790   11817
   11856       8   11781   11748   11784       8   11781   11805   11835       8
   11781   11805   11838       8   11781   11808   11841       8   11781   11808
   11844       8   11778   11799   11823       8   11778   11799   11826       8
   11778   11802   11829       8   11778   11802   11832       8   11760   11790
   11814       7   11760   11790   11817       7   11760   11793   11763       6
   11748   11781   11805       7   11748   11781   11808       7   11748   11784
   11754       6   11742   11778   11799       7   11742   11778   11802       7
   11736   11742   11778       8   11730   11724   11754       9   11730   11763
   11793      10   11727   11709   11730      10   11727   11760   11790       8
   11727   11760   11793       6   11724   11730   11763       9   11724   11754
   11784      10   11721   11706   11724      10   11721   11748   11781       8
   11721   11748   11784       6   11718   11742   11736       6   11718   11742
   11778       8   11715   11736   11742       6   11709   11727   11760       6
   11709   11730   11724       9   11709   11730   11763      12   11706   11685
   11709      13   11706   11721   11748       6   11706   11724   11730       9
   11706   11724   11754      12   11703   11685   11706      13   11703   11685
   11709      13   11703   11700   11715      12   11703   11718   11742       6
   11700   11703   11718      10   11700   11715   11736      10   11691   11712
   11733       4   11685   11703   11700      14   11685   11703   11718      15
   11685   11706   11721      15   11685   11706   11724      14   11685   11709
   11727      15   11685   11709   11730      14   11682   11658   11685      14
   11682   11700   11703       9   11682   11700   11715       9   11676   11691
   11712       5   11670   11691   11676       6   11670   11691   11712       5
   11664   11682   11700       9   11658   11682   11664      12   11658   11682
   11700       9   11658   11685   11703      13   11658   11685   11706      13
   11658   11685   11709      13   11655   11676   11691       6   11652   11643
   11655       6   11652   11670   11691       6   11649   11664   11682      10
   11646   11640   11649       6   11646   11658   11682      10   11646   11658
   11685      15   11643   11652   11670       6   11643   11655   11676       6
   11640   11637   11643       7   11640   11646   11658       6   11640   11649
   11664       6   11637   11640   11646       8   11637   11640   11649       8
   11637   11643   11652       8   11637   11643   11655       8   11628   11637
   11640       7   11628   11637   11643       7   11622   11628   11637       8
   11616   11628   11622       6   11616   11628   11637       8   11604   11622
   11628       6   11601   11595   11604       6   11601   11616   11628       6
   11595   11592   11598       4   11595   11601   11616       6   11595   11604
   11622       6   11592   11595   11601       5   11592   11595   11604       5
   12459   12483   12501       4   12450   12480   12498       4   12441   12477
   12495       4   12435   12474   12492       4   12423   12471   12489       4
   12414   12468   12486       4   12408   12459   12483       5   12402   12459
   12408       6   12402   12459   12483       5   12396   12450   12480       5
   12390   12450   12396       6   12390   12450   12480       5   12384   12441
   12477       5   12378   12441   12384       6   12378   12441   12477       5
   12372   12435   12474       5   12366   12435   12372       6   12366   12435
   12474       5   12363   12423   12471       5   12357   12423   12363       6
   12357   12423   12471       5   12348   12414   12468       5   12342   12414
   12348       6   12342   12414   12468       5   12339   12408   12459       6
   12336   12300   12339       6   12336   12402   12459       6   12333   12396
   12450       6   12330   12297   12333       6   12330   12390   12450       6
   12327   12384   12441       6   12324   12291   12327       6   12324   12378
   12441       6   12321   12372   12435       6   12318   12288   12321       6
   12318   12366   12435       6   12315   12363   12423       6   12312   12285
   12315       6   12312   12357   12423       6   12309   12348   12414       6
   12306   12282   12309       6   12306   12342   12414       6   12300   12336
   12402       6   12300   12339   12408       6   12297   12273   12300       7
   12297   12330   12390       6   12297   12333   12396       6   12291   12324
   12378       6   12291   12327   12384       6   12288   12264   12291       7
   12288   12318   12366       6   12288   12321   12372       6   12285   12312
   12357       6   12285   12315   12363       6   12282   12261   12285       7
   12282   12306   12342       6   12282   12309   12348       6   12273   12243
   12276       8   12273   12297   12330       8   12273   12297   12333       8
   12273   12300   12336       8   12273   12300   12339       8   12264   12231
   12267       8   12264   12288   12318       8   12264   12288   12321       8
   12264   12291   12324       8   12264   12291   12327       8   12261   12282
   12306       8   12261   12282   12309       8   12261   12285   12312       8
   12261   12285   12315       8   12243   12273   12297       7   12243   12273
   12300       7   12243   12276   12246       6   12231   12264   12288       7
   12231   12264   12291       7   12231   12267   12237       6   12225   12261
   12282       7   12225   12261   12285       7   12219   12225   12261       8
   12213   12207   12237       9   12213   12246   12276      10   12210   12192
   12213      10   12210   12243   12273       8   12210   12243   12276       6
   12207   12213   12246       9   12207   12237   12267      10   12204   12189
   12207      10   12204   12231   12264       8   12204   12231   12267       6
   12201   12225   12219       6   12201   12225   12261       8   12198   12219
   12225       6   12192   12210   12243       6   12192   12213   12207       9
   12192   12213   12246      12   12189   12168   12192      13   12189   12204
   12231       6   12189   12207   12213       9   12189   12207   12237      12
   12186   12168   12189      13   12186   12168   12192      13   12186   12183
   12198      12   12186   12201   12225       6   12183   12186   12201      10
   12183   12198   12219      10   12174   12195   12216       4   12168   12186
   12183      14   12168   12186   12201      15   12168   12189   12204      15
   12168   12189   12207      14   12168   12192   12210      15   12168   12192
   12213      14   12165   12141   12168      14   12165   12183   12186       9
   12165   12183   12198       9   12159   12174   12195       5   12153   12174
   12159       6   12153   12174   12195       5   12147   12165   12183       9
   12141   12165   12147      12   12141   12165   12183       9   12141   12168
   12186      13   12141   12168   12189      13   12141   12168   12192      13
   12138   12159   12174       6   12135   12126   12138       6   12135   12153
   12174       6   12132   12147   12165      10   12129   12123   12132       6
   12129   12141   12165      10   12129   12141   12168      15   12126   12135
   12153       6   12126   12138   12159       6   12123   12120   12126       7
   12123   12129   12141       6   12123   12132   12147       6   12120   12123
   12129       8   12120   12123   12132       8   12120   12126   12135       8
   12120   12126   12138       8   12111   12120   12123       7   12111   12120
   12126       7   12105   12111   12120       8   12099   12111   12105       6
   12099   12111   12120       8   12087   12105   12111       6   12084   12078
   12087       6   12084   12099   12111       6   12078   12075   12081       4
   12078   12084   12099       6   12078   12087   12105       6   12075   12078
   12084       5   12075   12078   12087       5   12942   12966   12984       4
   12933   12963   12981       4   12924   12960   12978       4   12918   12957
   12975       4   12906   12954   12972       4   12897   12951   12969       4
   12891   12942   12966       5   12885   12942   12891       6   12885   12942
   12966       5   12879   12933   12963       5   12873   12933   12879       6
   12873   12933   12963       5   12867   12924   12960       5   12861   12924
   12867       6   12861   12924   12960       5   12855   12918   12957       5
   12849   12918   12855       6   12849   12918   12957       5   12846   12906
   12954       5   12840   12906   12846       6   12840   12906   12954       5
   12831   12897   12951       5   12825   12897   12831       6   12825   12897
   12951       5   12822   12891   12942       6   12819   12783   12822       6
   12819   12885   12942       6   12816   12879   12933       6   12813   12780
   12816       6   12813   12873   12933       6   12810   12867   12924       6
   12807   12774   12810       6   12807   12861   12924       6   12804   12855
   12918       6   12801   12771   12804       6   12801   12849   12918       6
   12798   12846   12906       6   12795   12768   12798       6   12795   12840
   12906       6   12792   12831   12897       6   12789   12765   12792       6
   12789   12825   12897       6   12783   12819   12885       6   12783   12822
   12891       6   12780   12756   12783       7   12780   12813   12873       6
   12780   12816   12879       6   12774   12807   12861       6   12774   12810
   12867       6   12771   12747   12774       7   12771   12801   12849       6
   12771   12804   12855       6   12768   12795   12840       6   12768   12798
   12846       6   12765   12744   12768       7   12765   12789   12825       6
   12765   12792   12831       6   12756   12726   12759       8   12756   12780
   12813       8   12756   12780   12816       8   12756   12783   12819       8
   12756   12783   12822       8   12747   12714   12750       8   12747   12771
   12801       8   12747   12771   12804       8   12747   12774   12807       8
   12747   12774   12810       8   12744   12765   12789       8   12744   12765
   12792       8   12744   12768   12795       8   12744   12768   12798       8
   12726   12756   12780       7   12726   12756   12783       7   12726   12759
   12729       6   12714   12747   12771       7   12714   12747   12774       7
   12714   12750   12720       6   12708   12744   12765       7   12708   12744
   12768       7   12702   12708   12744       8   12696   12690   12720       9
   12696   12729   12759      10   12693   12675   12696      10   12693   12726
   12756       8   12693   12726   12759       6   12690   12696   12729       9
   12690   12720   12750      10   12687   12672   12690      10   12687   12714
   12747       8   12687   12714   12750       6   12684   12708   12702       6
   12684   12708   12744       8   12681   12702   12708       6   12675   12693
   12726       6   12675   12696   12690       9   12675   12696   12729      12
   12672   12651   12675      13   12672   12687   12714       6   12672   12690
   12696       9   12672   12690   12720      12   12669   12651   12672      13
   12669   12651   12675      13   12669   12666   12681      12   12669   12684
   12708       6   12666   12669   12684      10   12666   12681   12702      10
   12657   12678   12699       4   12651   12669   12666      14   12651   12669
   12684      15   12651   12672   12687      15   12651   12672   12690      14
   12651   12675   12693      15   12651   12675   12696      14   12648   12624
   12651      14   12648   12666   12669       9   12648   12666   12681       9
   12642   12657   12678       5   12636   12657   12642       6   12636   12657
   12678       5   12630   12648   12666       9   12624   12648   12630      12
   12624   12648   12666       9   12624   12651   12669      13   12624   12651
   12672      13   12624   12651   12675      13   12621   12642   12657       6
   12618   12609   12621       6   12618   12636   12657       6   12615   12630
   12648      10   12612   12606   12615       6   12612   12624   12648      10
   12612   12624   12651      15   12609   12618   12636       6   12609   12621
   12642       6   12606   12603   12609       7   12606   12612   12624       6
   12606   12615   12630       6   12603   12606   12612       8   12603   12606
   12615       8   12603   12609   12618       8   12603   12609   12621       8
   12594   12603   12606       7   12594   12603   12609       7   12588   12594
   12603       8   12582   12594   12588       6   12582   12594   12603       8
   12570   12588   12594       6   12567   12561   12570       6   12567   12582
   12594       6   12561   12558   12564       4   12561   12567   12582       6
   12561   12570   12588       6   12558   12561   12567       5   12558   12561
   12570       5   13425   13449   13467       4   13416   13446   13464       4
   13407   13443   13461       4   13401   13440   13458       4   13389   13437
   13455       4   13380   13434   13452       4   13374   13425   13449       5
   13368   13425   13374       6   13368   13425   13449       5   13362   13416
   13446       5   13356   13416   13362       6   13356   13416   13446       5
   13350   13407   13443       5   13344   13407   13350       6   13344   13407
   13443       5   13338   13401   13440       5   13332   13401   13338       6
   13332   13401   13440       5   13329   13389   13437       5   13323   13389
   13329       6   13323   13389   13437       5   13314   13380   13434       5
   13308   13380   13314       6   13308   13380   13434       5   13305   13374
   13425       6   13302   13266   13305       6   13302   13368   13425       6
   13299   13362   13416       6   13296   13263   13299       6   13296   13356
   13416       6   13293   13350   13407       6   13290   13257   13293       6
   13290   13344   13407       6   13287   13338   13401       6   13284   13254
   13287       6   13284   13332   13401       6   13281   13329   13389       6
   13278   13251   13281       6   13278   13323   13389       6   13275   13314
   13380       6   13272   13248   13275       6   13272   13308   13380       6
   13266   13302   13368       6   13266   13305   13374       6   13263   13239
   13266       7   13263   13296   13356       6   13263   13299   13362       6
   13257   13290   13344       6   13257   13293   13350       6   13254   13230
   13257       7   13254   13284   13332       6   13254   13287   13338       6
   13251   13278   13323       6   13251   13281   13329       6   13248   13227
   13251       7   13248   13272   13308       6   13248   13275   13314       6
   13239   13209   13242       8   13239   13263   13296       8   13239   13263
   13299       8   13239   13266   13302       8   13239   13266   13305       8
   13230   13197   13233       8   13230   13254   13284       8   13230   13254
   13287       8   13230   13257   13290       8   13230   13257   13293       8
   13227   13248   13272       8   13227   13248   13275       8   13227   13251
   13278       8   13227   13251   13281       8   13209   13239   13263       7
   13209   13239   13266       7   13209   13242   13212       6   13197   13230
   13254       7   13197   13230   13257       7   13197   13233   13203       6
   13191   13227   13248       7   13191   13227   13251       7   13185   13191
   13227       8   13179   13173   13203       9   13179   13212   13242      10
   13176   13158   13179      10   13176   13209   13239       8   13176   13209
   13242       6   13173   13179   13212       9   13173   13203   13233      10
   13170   13155   13173      10   13170   13197   13230       8   13170   13197
   13233       6   13167   13191   13185       6   13167   13191   13227       8
   13164   13185   13191       6   13158   13176   13209       6   13158   13179
   13173       9   13158   13179   13212      12   13155   13134   13158      13
   13155   13170   13197       6   13155   13173   13179       9   13155   13173
   13203      12   13152   13134   13155      13   13152   13134   13158      13
   13152   13149   13164      12   13152   13167   13191       6   13149   13152
   13167      10   13149   13164   13185      10   13140   13161   13182       4
   13134   13152   13149      14   13134   13152   13167      15   13134   13155
   13170      15   13134   13155   13173      14   13134   13158   13176      15
   13134   13158   13179      14   13131   13107   13134      14   13131   13149
   13152       9   13131   13149   13164       9   13125   13140   13161       5
   13119   13140   13125       6   13119   13140   13161       5   13113   13131
   13149       9   13107   13131   13113      12   13107   13131   13149       9
   13107   13134   13152      13   13107   13134   13155      13   13107   13134
   13158      13   13104   13125   13140       6   13101   13092   13104       6
   13101   13119   13140       6   13098   13113   13131      10   13095   13089
   13098       6   13095   13107   13131      10   13095   13107   13134      15
   13092   13101   13119       6   13092   13104   13125       6   13089   13086
   13092       7   13089   13095   13107       6   13089   13098   13113       6
   13086   13089   13095       8   13086   13089   13098       8   13086   13092
   13101       8   13086   13092   13104       8   13077   13086   13089       7
   13077   13086   13092       7   13071   13077   13086       8   13065   13077
   13071       6   13065   13077   13086       8   13053   13071   13077       6
   13050   13044   13053       6   13050   13065   13077       6   13044   13041
   13047       4   13044   13050   13065       6   13044   13053   13071       6
   13041   13044   13050       5   13041   13044   13053       5   13908   13932
   13950       4   13899   13929   13947       4   13890   13926   13944       4
   13884   13923   13941       4   13872   13920   13938       4   13863   13917
   13935       4   13857   13908   13932       5   13851   13908   13857       6
   13851   13908   13932       5   13845   13899   13929       5   13839   13899
   13845       6   13839   13899   13929       5   13833   13890   13926       5
   13827   13890   13833       6   13827   13890   13926       5   13821   13884
   13923       5   13815   13884   13821       6   13815   13884   13923       5
   13812   13872   13920       5   13806   13872   13812       6   13806   13872
   13920       5   13797   13863   13917       5   13791   13863   13797       6
   13791   13863   13917       5   13788   13857   13908       6   13785   13749
   13788       6   13785   13851   13908       6   13782   13845   13899       6
   13779   13746   13782       6   13779   13839   13899       6   13776   13833
   13890       6   13773   13740   13776       6   13773   13827   13890       6
   13770   13821   13884       6   13767   13737   13770       6   13767   13815
   13884       6   13764   13812   13872       6   13761   13734   13764       6
   13761   13806   13872       6   13758   13797   13863       6   13755   13731
   13758       6   13755   13791   13863       6   13749   13785   13851       6
   13749   13788   13857       6   13746   13722   13749       7   13746   13779
   13839       6   13746   13782   13845       6   13740   13773   13827       6
   13740   13776   13833       6   13737   13713   13740       7   13737   13767
   13815       6   13737   13770   13821       6   13734   13761   13806       6
   13734   13764   13812       6   13731   13710   13734       7   13731   13755
   13791       6   13731   13758   13797       6   13722   13692   13725       8
   13722   13746   13779       8   13722   13746   13782       8   13722   13749
   13785       8   13722   13749   13788       8   13713   13680   13716       8
   13713   13737   13767       8   13713   13737   13770       8   13713   13740
   13773       8   13713   13740   13776       8   13710   13731   13755       8
   13710   13731   13758       8   13710   13734   13761       8   13710   13734
   13764       8   13692   13722   13746       7   13692   13722   13749       7
   13692   13725   13695       6   13680   13713   13737       7   13680   13713
   13740       7   13680   13716   13686       6   13674   13710   13731       7
   13674   13710   13734       7   13668   13674   13710       8   13662   13656
   13686       9   13662   13695   13725      10   13659   13641   13662      10
   13659   13692   13722       8   13659   13692   13725       6   13656   13662
   13695       9   13656   13686   13716      10   13653   13638   13656      10
   13653   13680   13713       8   13653   13680   13716       6   13650   13674
   13668       6   13650   13674   13710       8   13647   13668   13674       6
   13641   13659   13692       6   13641   13662   13656       9   13641   13662
   13695      12   13638   13617   13641      13   13638   13653   13680       6
   13638   13656   13662       9   13638   13656   13686      12   13635   13617
   13638      13   13635   13617   13641      13   13635   13632   13647      12
   13635   13650   13674       6   13632   13635   13650      10   13632   13647
   13668      10   13623   13644   13665       4   13617   13635   13632      14
   13617   13635   13650      15   13617   13638   13653      15   13617   13638
   13656      14   13617   13641   13659      15   13617   13641   13662      14
   13614   13590   13617      14   13614   13632   13635       9   13614   13632
   13647       9   13608   13623   13644       5   13602   13623   13608       6
   13602   13623   13644       5   13596   13614   13632       9   13590   13614
   13596      12   13590   13614   13632       9   13590   13617   13635      13
   13590   13617   13638      13   13590   13617   13641      13   13587   13608
   13623       6   13584   13575   13587       6   13584   13602   13623       6
   13581   13596   13614      10   13578   13572   13581       6   13578   13590
   13614      10   13578   13590   13617      15   13575   13584   13602       6
   13575   13587   13608       6   13572   13569   13575       7   13572   13578
   13590       6   13572   13581   13596       6   13569   13572   13578       8
   13569   13572   13581       8   13569   13575   13584       8   13569   13575
   13587       8   13560   13569   13572       7   13560   13569   13575       7
   13554   13560   13569       8   13548   13560   13554       6   13548   13560
   13569       8   13536   13554   13560       6   13533   13527   13536       6
   13533   13548   13560       6   13527   13524   13530       4   13527   13533
   13548       6   13527   13536   13554       6   13524   13527   13533       5
   13524   13527   13536       5   14391   14415   14433       4   14382   14412
   14430       4   14373   14409   14427       4   14367   14406   14424       4
   14355   14403   14421       4   14346   14400   14418       4   14340   14391
   14415       5   14334   14391   14340       6   14334   14391   14415       5
   14328   14382   14412       5   14322   14382   14328       6   14322   14382
   14412       5   14316   14373   14409       5   14310   14373   14316       6
   14310   14373   14409       5   14304   14367   14406       5   14298   14367
   14304       6   14298   14367   14406       5   14295   14355   14403       5
   14289   14355   14295       6   14289   14355   14403       5   14280   14346
   14400       5   14274   14346   14280       6   14274   14346   14400       5
   14271   14340   14391       6   14268   14232   14271       6   14268   14334
   14391       6   14265   14328   14382       6   14262   14229   14265       6
   14262   14322   14382       6   14259   14316   14373       6   14256   14223
   14259       6   14256   14310   14373       6   14253   14304   14367       6
   14250   14220   14253       6   14250   14298   14367       6   14247   14295
   14355       6   14244   14217   14247       6   14244   14289   14355       6
   14241   14280   14346       6   14238   14214   14241       6   14238   14274
   14346       6   14232   14268   14334       6   14232   14271   14340       6
   14229   14205   14232       7   14229   14262   14322       6   14229   14265
   14328       6   14223   14256   14310       6   14223   14259   14316       6
   14220   14196   14223       7   14220   14250   14298       6   14220   14253
   14304       6   14217   14244   14289       6   14217   14247   14295       6
   14214   14193   14217       7   14214   14238   14274       6   14214   14241
   14280       6   14205   14175   14208       8   14205   14229   14262       8
   14205   14229   14265       8   14205   14232   14268       8   14205   14232
   14271       8   14196   14163   14199       8   14196   14220   14250       8
   14196   14220   14253       8   14196   14223   14256       8   14196   14223
   14259       8   14193   14214   14238       8   14193   14214   14241       8
   14193   14217   14244       8   14193   14217   14247       8   14175   14205
   14229       7   14175   14205   14232       7   14175   14208   14178       6
   14163   14196   14220       7   14163   14196   14223       7   14163   14199
   14169       6   14157   14193   14214       7   14157   14193   14217       7
   14151   14157   14193       8   14145   14139   14169       9   14145   14178
   14208      10   14142   14124   14145      10   14142   14175   14205       8
   14142   14175   14208       6   14139   14145   14178       9   14139   14169
   14199      10   14136   14121   14139      10   14136   14163   14196       8
   14136   14163   14199       6   14133   14157   14151       6   14133   14157
   14193       8   14130   14151   14157       6   14124   14142   14175       6
   14124   14145   14139       9   14124   14145   14178      12   14121   14100
   14124      13   14121   14136   14163       6   14121   14139   14145       9
   14121   14139   14169      12   14118   14100   14121      13   14118   14100
   14124      13   14118   14115   14130      12   14118   14133   14157       6
   14115   14118   14133      10   14115   14130   14151      10   14106   14127
   14148       4   14100   14118   14115      14   14100   14118   14133      15
   14100   14121   14136      15   14100   14121   14139      14   14100   14124
   14142      15   14100   14124   14145      14   14097   14073   14100      14
   14097   14115   14118       9   14097   14115   14130       9   14091   14106
   14127       5   14085   14106   14091       6   14085   14106   14127       5
   14079   14097   14115       9   14073   14097   14079      12   14073   14097
   14115       9   14073   14100   14118      13   14073   14100   14121      13
   14073   14100   14124      13   14070   14091   14106       6   14067   14058
   14070       6   14067   14085   14106       6   14064   14079   14097      10
   14061   14055   14064       6   14061   14073   14097      10   14061   14073
   14100      15   14058   14067   14085       6   14058   14070   14091       6
   14055   14052   14058       7   14055   14061   14073       6   14055   14064
   14079       6   14052   14055   14061       8   14052   14055   14064       8
   14052   14058   14067       8   14052   14058   14070       8   14043   14052
   14055       7   14043   14052   14058       7   14037   14043   14052       8
   14031   14043   14037       6   14031   14043   14052       8   14019   14037
   14043       6   14016   14010   14019       6   14016   14031   14043       6
   14010   14007   14013       4   14010   14016   14031       6   14010   14019
   14037       6   14007   14010   14016       5   14007   14010   14019       5
   14874   14898   14916       4   14865   14895   14913       4   14856   14892
   14910       4   14850   14889   14907       4   14838   14886   14904       4
   14829   14883   14901       4   14823   14874   14898       5   14817   14874
   14823       6   14817   14874   14898       5   14811   14865   14895       5
   14805   14865   14811       6   14805   14865   14895       5   14799   14856
   14892       5   14793   14856   14799       6   14793   14856   14892       5
   14787   14850   14889       5   14781   14850   14787       6   14781   14850
   14889       5   14778   14838   14886       5   14772   14838   14778       6
   14772   14838   14886       5   14763   14829   14883       5   14757   14829
   14763       6   14757   14829   14883       5   14754   14823   14874       6
   14751   14715   14754       6   14751   14817   14874       6   14748   14811
   14865       6   14745   14712   14748       6   14745   14805   14865       6
   14742   14799   14856       6   14739   14706   14742       6   14739   14793
   14856       6   14736   14787   14850       6   14733   14703   14736       6
   14733   14781   14850       6   14730   14778   14838       6   14727   14700
   14730       6   14727   14772   14838       6   14724   14763   14829       6
   14721   14697   14724       6   14721   14757   14829       6   14715   14751
   14817       6   14715   14754   14823       6   14712   14688   14715       7
   14712   14745   14805       6   14712   14748   14811       6   14706   14739
   14793       6   14706   14742   14799       6   14703   14679   14706       7
   14703   14733   14781       6   14703   14736   14787       6   14700   14727
   14772       6   14700   14730   14778       6   14697   14676   14700       7
   14697   14721   14757       6   14697   14724   14763       6   14688   14658
   14691       8   14688   14712   14745       8   14688   14712   14748       8
   14688   14715   14751       8   14688   14715   14754       8   14679   14646
   14682       8   14679   14703   14733       8   14679   14703   14736       8
   14679   14706   14739       8   14679   14706   14742       8   14676   14697
   14721       8   14676   14697   14724       8   14676   14700   14727       8
   14676   14700   14730       8   14658   14688   14712       7   14658   14688
   14715       7   14658   14691   14661       6   14646   14679   14703       7
   14646   14679   14706       7   14646   14682   14652       6   14640   14676
   14697       7   14640   14676   14700       7   14634   14640   14676       8
   14628   14622   14652       9   14628   14661   14691      10   14625   14607
   14628      10   14625   14658   14688       8   14625   14658   14691       6
   14622   14628   14661       9   14622   14652   14682      10   14619   14604
   14622      10   14619   14646   14679       8   14619   14646   14682       6
   14616   14640   14634       6   14616   14640   14676       8   14613   14634
   14640       6   14607   14625   14658       6   14607   14628   14622       9
   14607   14628   14661      12   14604   14583   14607      13   14604   14619
   14646       6   14604   14622   14628       9   14604   14622   14652      12
   14601   14583   14604      13   14601   14583   14607      13   14601   14598
   14613      12   14601   14616   14640       6   14598   14601   14616      10
   14598   14613   14634      10   14589   14610   14631       4   14583   14601
   14598      14   14583   14601   14616      15   14583   14604   14619      15
   14583   14604   14622      14   14583   14607   14625      15   14583   14607
   14628      14   14580   14556   14583      14   14580   14598   14601       9
   14580   14598   14613       9   14574   14589   14610       5   14568   14589
   14574       6   14568   14589   14610       5   14562   14580   14598       9
   14556   14580   14562      12   14556   14580   14598       9   14556   14583
   14601      13   14556   14583   14604      13   14556   14583   14607      13
   14553   14574   14589       6   14550   14541   14553       6   14550   14568
   14589       6   14547   14562   14580      10   14544   14538   14547       6
   14544   14556   14580      10   14544   14556   14583      15   14541   14550
   14568       6   14541   14553   14574       6   14538   14535   14541       7
   14538   14544   14556       6   14538   14547   14562       6   14535   14538
   14544       8   14535   14538   14547       8   14535   14541   14550       8
   14535   14541   14553       8   14526   14535   14538       7   14526   14535
   14541       7   14520   14526   14535       8   14514   14526   14520       6
   14514   14526   14535       8   14502   14520   14526       6   14499   14493
   14502       6   14499   14514   14526       6   14493   14490   14496       4
   14493   14499   14514       6   14493   14502   14520       6   14490   14493
   14499       5   14490   14493   14502       5   15357   15381   15399       4
   15348   15378   15396       4   15339   15375   15393       4   15333   15372
   15390       4   15321   15369   15387       4   15312   15366   15384       4
   15306   15357   15381       5   15300   15357   15306       6   15300   15357
   15381       5   15294   15348   15378       5   15288   15348   15294       6
   15288   15348   15378       5   15282   15339   15375       5   15276   15339
   15282       6   15276   15339   15375       5   15270   15333   15372       5
   15264   15333   15270       6   15264   15333   15372       5   15261   15321
   15369       5   15255   15321   15261       6   15255   15321   15369       5
   15246   15312   15366       5   15240   15312   15246       6   15240   15312
   15366       5   15237   15306   15357       6   15234   15198   15237       6
   15234   15300   15357       6   15231   15294   15348       6   15228   15195
   15231       6   15228   15288   15348       6   15225   15282   15339       6
   15222   15189   15225       6   15222   15276   15339       6   15219   15270
   15333       6   15216   15186   15219       6   15216   15264   15333       6
   15213   15261   15321       6   15210   15183   15213       6   15210   15255
   15321       6   15207   15246   15312       6   15204   15180   15207       6
   15204   15240   15312       6   15198   15234   15300       6   15198   15237
   15306       6   15195   15171   15198       7   15195   15228   15288       6
   15195   15231   15294       6   15189   15222   15276       6   15189   15225
   15282       6   15186   15162   15189       7   15186   15216   15264       6
   15186   15219   15270       6   15183   15210   15255       6   15183   15213
   15261       6   15180   15159   15183       7   15180   15204   15240       6
   15180   15207   15246       6   15171   15141   15174       8   15171   15195
   15228       8   15171   15195   15231       8   15171   15198   15234       8
   15171   15198   15237       8   15162   15129   15165       8   15162   15186
   15216       8   15162   15186   15219       8   15162   15189   15222       8
   15162   15189   15225       8   15159   15180   15204       8   15159   15180
   15207       8   15159   15183   15210       8   15159   15183   15213       8
   15141   15171   15195       7   15141   15171   15198       7   15141   15174
   15144       6   15129   15162   15186       7   15129   15162   15189       7
   15129   15165   15135       6   15123   15159   15180       7   15123   15159
   15183       7   15117   15123   15159       8   15111   15105   15135       9
   15111   15144   15174      10   15108   15090   15111      10   15108   15141
   15171       8   15108   15141   15174       6   15105   15111   15144       9
   15105   15135   15165      10   15102   15087   15105      10   15102   15129
   15162       8   15102   15129   15165       6   15099   15123   15117       6
   15099   15123   15159       8   15096   15117   15123       6   15090   15108
   15141       6   15090   15111   15105       9   15090   15111   15144      12
   15087   15066   15090      13   15087   15102   15129       6   15087   15105
   15111       9   15087   15105   15135      12   15084   15066   15087      13
   15084   15066   15090      13   15084   15081   15096      12   15084   15099
   15123       6   15081   15084   15099      10   15081   15096   15117      10
   15072   15093   15114       4   15066   15084   15081      14   15066   15084
   15099      15   15066   15087   15102      15   15066   15087   15105      14
   15066   15090   15108      15   15066   15090   15111      14   15063   15039
   15066      14   15063   15081   15084       9   15063   15081   15096       9
   15057   15072   15093       5   15051   15072   15057       6   15051   15072
   15093       5   15045   15063   15081       9   15039   15063   15045      12
   15039   15063   15081       9   15039   15066   15084      13   15039   15066
   15087      13   15039   15066   15090      13   15036   15057   15072       6
   15033   15024   15036       6   15033   15051   15072       6   15030   15045
   15063      10   15027   15021   15030       6   15027   15039   15063      10
   15027   15039   15066      15   15024   15033   15051       6   15024   15036
   15057       6   15021   15018   15024       7   15021   15027   15039       6
   15021   15030   15045       6   15018   15021   15027       8   15018   15021
   15030       8   15018   15024   15033       8   15018   15024   15036       8
   15009   15018   15021       7   15009   15018   15024       7   15003   15009
   15018       8   14997   15009   15003       6   14997   15009   15018       8
   14985   15003   15009       6   14982   14976   14985       6   14982   14997
   15009       6   14976   14973   14979       4   14976   14982   14997       6
   14976   14985   15003       6   14973   14976   14982       5   14973   14976
   14985       5   15840   15864   15882       4   15831   15861   15879       4
   15822   15858   15876       4   15816   15855   15873       4   15804   15852
   15870       4   15795   15849   15867       4   15789   15840   15864       5
   15783   15840   15789       6   15783   15840   15864       5   15777   15831
   15861       5   15771   15831   15777       6   15771   15831   15861       5
   15765   15822   15858       5   15759   15822   15765       6   15759   15822
   15858       5   15753   15816   15855       5   15747   15816   15753       6
   15747   15816   15855       5   15744   15804   15852       5   15738   15804
   15744       6   15738   15804   15852       5   15729   15795   15849       5
   15723   15795   15729       6   15723   15795   15849       5   15720   15789
   15840       6   15717   15681   15720       6   15717   15783   15840       6
   15714   15777   15831       6   15711   15678   15714       6   15711   15771
   15831       6   15708   15765   15822       6   15705   15672   15708       6
   15705   15759   15822       6   15702   15753   15816       6   15699   15669
   15702       6   15699   15747   15816       6   15696   15744   15804       6
   15693   15666   15696       6   15693   15738   15804       6   15690   15729
   15795       6   15687   15663   15690       6   15687   15723   15795       6
   15681   15717   15783       6   15681   15720   15789       6   15678   15654
   15681       7   15678   15711   15771       6   15678   15714   15777       6
   15672   15705   15759       6   15672   15708   15765       6   15669   15645
   15672       7   15669   15699   15747       6   15669   15702   15753       6
   15666   15693   15738       6   15666   15696   15744       6   15663   15642
   15666       7   15663   15687   15723       6   15663   15690   15729       6
   15654   15624   15657       8   15654   15678   15711       8   15654   15678
   15714       8   15654   15681   15717       8   15654   15681   15720       8
   15645   15612   15648       8   15645   15669   15699       8   15645   15669
   15702       8   15645   15672   15705       8   15645   15672   15708       8
   15642   15663   15687       8   15642   15663   15690       8   15642   15666
   15693       8   15642   15666   15696       8   15624   15654   15678       7
   15624   15654   15681       7   15624   15657   15627       6   15612   15645
   15669       7   15612   15645   15672       7   15612   15648   15618       6
   15606   15642   15663       7   15606   15642   15666       7   15600   15606
   15642       8   15594   15588   15618       9   15594   15627   15657      10
   15591   15573   15594      10   15591   15624   15654       8   15591   15624
   15657       6   15588   15594   15627       9   15588   15618   15648      10
   15585   15570   15588      10   15585   15612   15645       8   15585   15612
   15648       6   15582   15606   15600       6   15582   15606   15642       8
   15579   15600   15606       6   15573   15591   15624       6   15573   15594
   15588       9   15573   15594   15627      12   15570   15549   15573      13
   15570   15585   15612       6   15570   15588   15594       9   15570   15588
   15618      12   15567   15549   15570      13   15567   15549   15573      13
   15567   15564   15579      12   15567   15582   15606       6   15564   15567
   15582      10   15564   15579   15600      10   15555   15576   15597       4
   15549   15567   15564      14   15549   15567   15582      15   15549   15570
   15585      15   15549   15570   15588      14   15549   15573   15591      15
   15549   15573   15594      14   15546   15522   15549      14   15546   15564
   15567       9   15546   15564   15579       9   15540   15555   15576       5
   15534   15555   15540       6   15534   15555   15576       5   15528   15546
   15564       9   15522   15546   15528      12   15522   15546   15564       9
   15522   15549   15567      13   15522   15549   15570      13   15522   15549
   15573      13   15519   15540   15555       6   15516   15507   15519       6
   15516   15534   15555       6   15513   15528   15546      10   15510   15504
   15513       6   15510   15522   15546      10   15510   15522   15549      15
   15507   15516   15534       6   15507   15519   15540       6   15504   15501
   15507       7   15504   15510   15522       6   15504   15513   15528       6
   15501   15504   15510       8   15501   15504   15513       8   15501   15507
   15516       8   15501   15507   15519       8   15492   15501   15504       7
   15492   15501   15507       7   15486   15492   15501       8   15480   15492
   15486       6   15480   15492   15501       8   15468   15486   15492       6
   15465   15459   15468       6   15465   15480   15492       6   15459   15456
   15462       4   15459   15465   15480       6   15459   15468   15486       6
   15456   15459   15465       5   15456   15459   15468       5   16323   16347
   16365       4   16314   16344   16362       4   16305   16341   16359       4
   16299   16338   16356       4   16287   16335   16353       4   16278   16332
   16350       4   16272   16323   16347       5   16266   16323   16272       6
   16266   16323   16347       5   16260   16314   16344       5   16254   16314
   16260       6   16254   16314   16344       5   16248   16305   16341       5
   16242   16305   16248       6   16242   16305   16341       5   16236   16299
   16338       5   16230   16299   16236       6   16230   16299   16338       5
   16227   16287   16335       5   16221   16287   16227       6   16221   16287
   16335       5   16212   16278   16332       5   16206   16278   16212       6
   16206   16278   16332       5   16203   16272   16323       6   16200   16164
   16203       6   16200   16266   16323       6   16197   16260   16314       6
   16194   16161   16197       6   16194   16254   16314       6   16191   16248
   16305       6   16188   16155   16191       6   16188   16242   16305       6
   16185   16236   16299       6   16182   16152   16185       6   16182   16230
   16299       6   16179   16227   16287       6   16176   16149   16179       6
   16176   16221   16287       6   16173   16212   16278       6   16170   16146
   16173       6   16170   16206   16278       6   16164   16200   16266       6
   16164   16203   16272       6   16161   16137   16164       7   16161   16194
   16254       6   16161   16197   16260       6   16155   16188   16242       6
   16155   16191   16248       6   16152   16128   16155       7   16152   16182
   16230       6   16152   16185   16236       6   16149   16176   16221       6
   16149   16179   16227       6   16146   16125   16149       7   16146   16170
   16206       6   16146   16173   16212       6   16137   16107   16140       8
   16137   16161   16194       8   16137   16161   16197       8   16137   16164
   16200       8   16137   16164   16203       8   16128   16095   16131       8
   16128   16152   16182       8   16128   16152   16185       8   16128   16155
   16188       8   16128   16155   16191       8   16125   16146   16170       8
   16125   16146   16173       8   16125   16149   16176       8   16125   16149
   16179       8   16107   16137   16161       7   16107   16137   16164       7
   16107   16140   16110       6   16095   16128   16152       7   16095   16128
   16155       7   16095   16131   16101       6   16089   16125   16146       7
   16089   16125   16149       7   16083   16089   16125       8   16077   16071
   16101       9   16077   16110   16140      10   16074   16056   16077      10
   16074   16107   16137       8   16074   16107   16140       6   16071   16077
   16110       9   16071   16101   16131      10   16068   16053   16071      10
   16068   16095   16128       8   16068   16095   16131       6   16065   16089
   16083       6   16065   16089   16125       8   16062   16083   16089       6
   16056   16074   16107       6   16056   16077   16071       9   16056   16077
   16110      12   16053   16032   16056      13   16053   16068   16095       6
   16053   16071   16077       9   16053   16071   16101      12   16050   16032
   16053      13   16050   16032   16056      13   16050   16047   16062      12
   16050   16065   16089       6   16047   16050   16065      10   16047   16062
   16083      10   16038   16059   16080       4   16032   16050   16047      14
   16032   16050   16065      15   16032   16053   16068      15   16032   16053
   16071      14   16032   16056   16074      15   16032   16056   16077      14
   16029   16005   16032      14   16029   16047   16050       9   16029   16047
   16062       9   16023   16038   16059       5   16017   16038   16023       6
   16017   16038   16059       5   16011   16029   16047       9   16005   16029
   16011      12   16005   16029   16047       9   16005   16032   16050      13
   16005   16032   16053      13   16005   16032   16056      13   16002   16023
   16038       6   15999   15990   16002       6   15999   16017   16038       6
   15996   16011   16029      10   15993   15987   15996       6   15993   16005
   16029      10   15993   16005   16032      15   15990   15999   16017       6
   15990   16002   16023       6   15987   15984   15990       7   15987   15993
   16005       6   15987   15996   16011       6   15984   15987   15993       8
   15984   15987   15996       8   15984   15990   15999       8   15984   15990
   16002       8   15975   15984   15987       7   15975   15984   15990       7
   15969   15975   15984       8   15963   15975   15969       6   15963   15975
   15984       8   15951   15969   15975       6   15948   15942   15951       6
   15948   15963   15975       6   15942   15939   15945       4   15942   15948
   15963       6   15942   15951   15969       6   15939   15942   15948       5
   15939   15942   15951       5   16806   16830   16848       4   16797   16827
   16845       4   16788   16824   16842       4   16782   16821   16839       4
   16770   16818   16836       4   16761   16815   16833       4   16755   16806
   16830       5   16749   16806   16755       6   16749   16806   16830       5
   16743   16797   16827       5   16737   16797   16743       6   16737   16797
   16827       5   16731   16788   16824       5   16725   16788   16731       6
   16725   16788   16824       5   16719   16782   16821       5   16713   16782
   16719       6   16713   16782   16821       5   16710   16770   16818       5
   16704   16770   16710       6   16704   16770   16818       5   16695   16761
   16815       5   16689   16761   16695       6   16689   16761   16815       5
   16686   16755   16806       6   16683   16647   16686       6   16683   16749
   16806       6   16680   16743   16797       6   16677   16644   16680       6
   16677   16737   16797       6   16674   16731   16788       6   16671   16638
   16674       6   16671   16725   16788       6   16668   16719   16782       6
   16665   16635   16668       6   16665   16713   16782       6   16662   16710
   16770       6   16659   16632   16662       6   16659   16704   16770       6
   16656   16695   16761       6   16653   16629   16656       6   16653   16689
   16761       6   16647   16683   16749       6   16647   16686   16755       6
   16644   16620   16647       7   16644   16677   16737       6   16644   16680
   16743       6   16638   16671   16725       6   16638   16674   16731       6
   16635   16611   16638       7   16635   16665   16713       6   16635   16668
   16719       6   16632   16659   16704       6   16632   16662   16710       6
   16629   16608   16632       7   16629   16653   16689       6   16629   16656
   16695       6   16620   16590   16623       8   16620   16644   16677       8
   16620   16644   16680       8   16620   16647   16683       8   16620   16647
   16686       8   16611   16578   16614       8   16611   16635   16665       8
   16611   16635   16668       8   16611   16638   16671       8   16611   16638
   16674       8   16608   16629   16653       8   16608   16629   16656       8
   16608   16632   16659       8   16608   16632   16662       8   16590   16620
   16644       7   16590   16620   16647       7   16590   16623   16593       6
   16578   16611   16635       7   16578   16611   16638       7   16578   16614
   16584       6   16572   16608   16629       7   16572   16608   16632       7
   16566   16572   16608       8   16560   16554   16584       9   16560   16593
   16623      10   16557   16539   16560      10   16557   16590   16620       8
   16557   16590   16623       6   16554   16560   16593       9   16554   16584
   16614      10   16551   16536   16554      10   16551   16578   16611       8
   16551   16578   16614       6   16548   16572   16566       6   16548   16572
   16608       8   16545   16566   16572       6   16539   16557   16590       6
   16539   16560   16554       9   16539   16560   16593      12   16536   16515
   16539      13   16536   16551   16578       6   16536   16554   16560       9
   16536   16554   16584      12   16533   16515   16536      13   16533   16515
   16539      13   16533   16530   16545      12   16533   16548   16572       6
   16530   16533   16548      10   16530   16545   16566      10   16521   16542
   16563       4   16515   16533   16530      14   16515   16533   16548      15
   16515   16536   16551      15   16515   16536   16554      14   16515   16539
   16557      15   16515   16539   16560      14   16512   16488   16515      14
   16512   16530   16533       9   16512   16530   16545       9   16506   16521
   16542       5   16500   16521   16506       6   16500   16521   16542       5
   16494   16512   16530       9   16488   16512   16494      12   16488   16512
   16530       9   16488   16515   16533      13   16488   16515   16536      13
   16488   16515   16539      13   16485   16506   16521       6   16482   16473
   16485       6   16482   16500   16521       6   16479   16494   16512      10
   16476   16470   16479       6   16476   16488   16512      10   16476   16488
   16515      15   16473   16482   16500       6   16473   16485   16506       6
   16470   16467   16473       7   16470   16476   16488       6   16470   16479
   16494       6   16467   16470   16476       8   16467   16470   16479       8
   16467   16473   16482       8   16467   16473   16485       8   16458   16467
   16470       7   16458   16467   16473       7   16452   16458   16467       8
   16446   16458   16452       6   16446   16458   16467       8   16434   16452
   16458       6   16431   16425   16434       6   16431   16446   16458       6
   16425   16422   16428       4   16425   16431   16446       6   16425   16434
   16452       6   16422   16425   16431       5   16422   16425   16434       5
   17289   17313   17331       4   17280   17310   17328       4   17271   17307
   17325       4   17265   17304   17322       4   17253   17301   17319       4
   17244   17298   17316       4   17238   17289   17313       5   17232   17289
   17238       6   17232   17289   17313       5   17226   17280   17310       5
   17220   17280   17226       6   17220   17280   17310       5   17214   17271
   17307       5   17208   17271   17214       6   17208   17271   17307       5
   17202   17265   17304       5   17196   17265   17202       6   17196   17265
   17304       5   17193   17253   17301       5   17187   17253   17193       6
   17187   17253   17301       5   17178   17244   17298       5   17172   17244
   17178       6   17172   17244   17298       5   17169   17238   17289       6
   17166   17130   17169       6   17166   17232   17289       6   17163   17226
   17280       6   17160   17127   17163       6   17160   17220   17280       6
   17157   17214   17271       6   17154   17121   17157       6   17154   17208
   17271       6   17151   17202   17265       6   17148   17118   17151       6
   17148   17196   17265       6   17145   17193   17253       6   17142   17115
   17145       6   17142   17187   17253       6   17139   17178   17244       6
   17136   17112   17139       6   17136   17172   17244       6   17130   17166
   17232       6   17130   17169   17238       6   17127   17103   17130       7
   17127   17160   17220       6   17127   17163   17226       6   17121   17154
   17208       6   17121   17157   17214       6   17118   17094   17121       7
   17118   17148   17196       6   17118   17151   17202       6   17115   17142
   17187       6   17115   17145   17193       6   17112   17091   17115       7
   17112   17136   17172       6   17112   17139   17178       6   17103   17073
   17106       8   17103   17127   17160       8   17103   17127   17163       8
   17103   17130   17166       8   17103   17130   17169       8   17094   17061
   17097       8   17094   17118   17148       8   17094   17118   17151       8
   17094   17121   17154       8   17094   17121   17157       8   17091   17112
   17136       8   17091   17112   17139       8   17091   17115   17142       8
   17091   17115   17145       8   17073   17103   17127       7   17073   17103
   17130       7   17073   17106   17076       6   17061   17094   17118       7
   17061   17094   17121       7   17061   17097   17067       6   17055   17091
   17112       7   17055   17091   17115       7   17049   17055   17091       8
   17043   17037   17067       9   17043   17076   17106      10   17040   17022
   17043      10   17040   17073   17103       8   17040   17073   17106       6
   17037   17043   17076       9   17037   17067   17097      10   17034   17019
   17037      10   17034   17061   17094       8   17034   17061   17097       6
   17031   17055   17049       6   17031   17055   17091       8   17028   17049
   17055       6   17022   17040   17073       6   17022   17043   17037       9
   17022   17043   17076      12   17019   16998   17022      13   17019   17034
   17061       6   17019   17037   17043       9   17019   17037   17067      12
   17016   16998   17019      13   17016   16998   17022      13   17016   17013
   17028      12   17016   17031   17055       6   17013   17016   17031      10
   17013   17028   17049      10   17004   17025   17046       4   16998   17016
   17013      14   16998   17016   17031      15   16998   17019   17034      15
   16998   17019   17037      14   16998   17022   17040      15   16998   17022
   17043      14   16995   16971   16998      14   16995   17013   17016       9
   16995   17013   17028       9   16989   17004   17025       5   16983   17004
   16989       6   16983   17004   17025       5   16977   16995   17013       9
   16971   16995   16977      12   16971   16995   17013       9   16971   16998
   17016      13   16971   16998   17019      13   16971   16998   17022      13
   16968   16989   17004       6   16965   16956   16968       6   16965   16983
   17004       6   16962   16977   16995      10   16959   16953   16962       6
   16959   16971   16995      10   16959   16971   16998      15   16956   16965
   16983       6   16956   16968   16989       6   16953   16950   16956       7
   16953   16959   16971       6   16953   16962   16977       6   16950   16953
   16959       8   16950   16953   16962       8   16950   16956   16965       8
   16950   16956   16968       8   16941   16950   16953       7   16941   16950
   16956       7   16935   16941   16950       8   16929   16941   16935       6
   16929   16941   16950       8   16917   16935   16941       6   16914   16908
   16917       6   16914   16929   16941       6   16908   16905   16911       4
   16908   16914   16929       6   16908   16917   16935       6   16905   16908
   16914       5   16905   16908   16917       5   17772   17796   17814       4
   17763   17793   17811       4   17754   17790   17808       4   17748   17787
   17805       4   17736   17784   17802       4   17727   17781   17799       4
   17721   17772   17796       5   17715   17772   17721       6   17715   17772
   17796       5   17709   17763   17793       5   17703   17763   17709       6
   17703   17763   17793       5   17697   17754   17790       5   17691   17754
   17697       6   17691   17754   17790       5   17685   17748   17787       5
   17679   17748   17685       6   17679   17748   17787       5   17676   17736
   17784       5   17670   17736   17676       6   17670   17736   17784       5
   17661   17727   17781       5   17655   17727   17661       6   17655   17727
   17781       5   17652   17721   17772       6   17649   17613   17652       6
   17649   17715   17772       6   17646   17709   17763       6   17643   17610
   17646       6   17643   17703   17763       6   17640   17697   17754       6
   17637   17604   17640       6   17637   17691   17754       6   17634   17685
   17748       6   17631   17601   17634       6   17631   17679   17748       6
   17628   17676   17736       6   17625   17598   17628       6   17625   17670
   17736       6   17622   17661   17727       6   17619   17595   17622       6
   17619   17655   17727       6   17613   17649   17715       6   17613   17652
   17721       6   17610   17586   17613       7   17610   17643   17703       6
   17610   17646   17709       6   17604   17637   17691       6   17604   17640
   17697       6   17601   17577   17604       7   17601   17631   17679       6
   17601   17634   17685       6   17598   17625   17670       6   17598   17628
   17676       6   17595   17574   17598       7   17595   17619   17655       6
   17595   17622   17661       6   17586   17556   17589       8   17586   17610
   17643       8   17586   17610   17646       8   17586   17613   17649       8
   17586   17613   17652       8   17577   17544   17580       8   17577   17601
   17631       8   17577   17601   17634       8   17577   17604   17637       8
   17577   17604   17640       8   17574   17595   17619       8   17574   17595
   17622       8   17574   17598   17625       8   17574   17598   17628       8
   17556   17586   17610       7   17556   17586   17613       7   17556   17589
   17559       6   17544   17577   17601       7   17544   17577   17604       7
   17544   17580   17550       6   17538   17574   17595       7   17538   17574
   17598       7   17532   17538   17574       8   17526   17520   17550       9
   17526   17559   17589      10   17523   17505   17526      10   17523   17556
   17586       8   17523   17556   17589       6   17520   17526   17559       9
   17520   17550   17580      10   17517   17502   17520      10   17517   17544
   17577       8   17517   17544   17580       6   17514   17538   17532       6
   17514   17538   17574       8   17511   17532   17538       6   17505   17523
   17556       6   17505   17526   17520       9   17505   17526   17559      12
   17502   17481   17505      13   17502   17517   17544       6   17502   17520
   17526       9   17502   17520   17550      12   17499   17481   17502      13
   17499   17481   17505      13   17499   17496   17511      12   17499   17514
   17538       6   17496   17499   17514      10   17496   17511   17532      10
   17487   17508   17529       4   17481   17499   17496      14   17481   17499
   17514      15   17481   17502   17517      15   17481   17502   17520      14
   17481   17505   17523      15   17481   17505   17526      14   17478   17454
   17481      14   17478   17496   17499       9   17478   17496   17511       9
   17472   17487   17508       5   17466   17487   17472       6   17466   17487
   17508       5   17460   17478   17496       9   17454   17478   17460      12
   17454   17478   17496       9   17454   17481   17499      13   17454   17481
   17502      13   17454   17481   17505      13   17451   17472   17487       6
   17448   17439   17451       6   17448   17466   17487       6   17445   17460
   17478      10   17442   17436   17445       6   17442   17454   17478      10
   17442   17454   17481      15   17439   17448   17466       6   17439   17451
   17472       6   17436   17433   17439       7   17436   17442   17454       6
   17436   17445   17460       6   17433   17436   17442       8   17433   17436
   17445       8   17433   17439   17448       8   17433   17439   17451       8
   17424   17433   17436       7   17424   17433   17439       7   17418   17424
   17433       8   17412   17424   17418       6   17412   17424   17433       8
   17400   17418   17424       6   17397   17391   17400       6   17397   17412
   17424       6   17391   17388   17394       4   17391   17397   17412       6
   17391   17400   17418       6   17388   17391   17397       5   17388   17391
   17400       5   18255   18279   18297       4   18246   18276   18294       4
   18237   18273   18291       4   18231   18270   18288       4   18219   18267
   18285       4   18210   18264   18282       4   18204   18255   18279       5
   18198   18255   18204       6   18198   18255   18279       5   18192   18246
   18276       5   18186   18246   18192       6   18186   18246   18276       5
   18180   18237   18273       5   18174   18237   18180       6   18174   18237
   18273       5   18168   18231   18270       5   18162   18231   18168       6
   18162   18231   18270       5   18159   18219   18267       5   18153   18219
   18159       6   18153   18219   18267       5   18144   18210   18264       5
   18138   18210   18144       6   18138   18210   18264       5   18135   18204
   18255       6   18132   18096   18135       6   18132   18198   18255       6
   18129   18192   18246       6   18126   18093   18129       6   18126   18186
   18246       6   18123   18180   18237       6   18120   18087   18123       6
   18120   18174   18237       6   18117   18168   18231       6   18114   18084
   18117       6   18114   18162   18231       6   18111   18159   18219       6
   18108   18081   18111       6   18108   18153   18219       6   18105   18144
   18210       6   18102   18078   18105       6   18102   18138   18210       6
   18096   18132   18198       6   18096   18135   18204       6   18093   18069
   18096       7   18093   18126   18186       6   18093   18129   18192       6
   18087   18120   18174       6   18087   18123   18180       6   18084   18060
   18087       7   18084   18114   18162       6   18084   18117   18168       6
   18081   18108   18153       6   18081   18111   18159       6   18078   18057
   18081       7   18078   18102   18138       6   18078   18105   18144       6
   18069   18039   18072       8   18069   18093   18126       8   18069   18093
   18129       8   18069   18096   18132       8   18069   18096   18135       8
   18060   18027   18063       8   18060   18084   18114       8   18060   18084
   18117       8   18060   18087   18120       8   18060   18087   18123       8
   18057   18078   18102       8   18057   18078   18105       8   18057   18081
   18108       8   18057   18081   18111       8   18039   18069   18093       7
   18039   18069   18096       7   18039   18072   18042       6   18027   18060
   18084       7   18027   18060   18087       7   18027   18063   18033       6
   18021   18057   18078       7   18021   18057   18081       7   18015   18021
   18057       8   18009   18003   18033       9   18009   18042   18072      10
   18006   17988   18009      10   18006   18039   18069       8   18006   18039
   18072       6   18003   18009   18042       9   18003   18033   18063      10
   18000   17985   18003      10   18000   18027   18060       8   18000   18027
   18063       6   17997   18021   18015       6   17997   18021   18057       8
   17994   18015   18021       6   17988   18006   18039       6   17988   18009
   18003       9   17988   18009   18042      12   17985   17964   17988      13
   17985   18000   18027       6   17985   18003   18009       9   17985   18003
   18033      12   17982   17964   17985      13   17982   17964   17988      13
   17982   17979   17994      12   17982   17997   18021       6   17979   17982
   17997      10   17979   17994   18015      10   17970   17991   18012       4
   17964   17982   17979      14   17964   17982   17997      15   17964   17985
   18000      15   17964   17985   18003      14   17964   17988   18006      15
   17964   17988   18009      14   17961   17937   17964      14   17961   17979
   17982       9   17961   17979   17994       9   17955   17970   17991       5
   17949   17970   17955       6   17949   17970   17991       5   17943   17961
   17979       9   17937   17961   17943      12   17937   17961   17979       9
   17937   17964   17982      13   17937   17964   17985      13   17937   17964
   17988      13   17934   17955   17970       6   17931   17922   17934       6
   17931   17949   17970       6   17928   17943   17961      10   17925   17919
   17928       6   17925   17937   17961      10   17925   17937   17964      15
   17922   17931   17949       6   17922   17934   17955       6   17919   17916
   17922       7   17919   17925   17937       6   17919   17928   17943       6
   17916   17919   17925       8   17916   17919   17928       8   17916   17922
   17931       8   17916   17922   17934       8   17907   17916   17919       7
   17907   17916   17922       7   17901   17907   17916       8   17895   17907
   17901       6   17895   17907   17916       8   17883   17901   17907       6
   17880   17874   17883       6   17880   17895   17907       6   17874   17871
   17877       4   17874   17880   17895       6   17874   17883   17901       6
   17871   17874   17880       5   17871   17874   17883       5   18738   18762
   18780       4   18729   18759   18777       4   18720   18756   18774       4
   18714   18753   18771       4   18702   18750   18768       4   18693   18747
   18765       4   18687   18738   18762       5   18681   18738   18687       6
   18681   18738   18762       5   18675   18729   18759       5   18669   18729
   18675       6   18669   18729   18759       5   18663   18720   18756       5
   18657   18720   18663       6   18657   18720   18756       5   18651   18714
   18753       5   18645   18714   18651       6   18645   18714   18753       5
   18642   18702   18750       5   18636   18702   18642       6   18636   18702
   18750       5   18627   18693   18747       5   18621   18693   18627       6
   18621   18693   18747       5   18618   18687   18738       6   18615   18579
   18618       6   18615   18681   18738       6   18612   18675   18729       6
   18609   18576   18612       6   18609   18669   18729       6   18606   18663
   18720       6   18603   18570   18606       6   18603   18657   18720       6
   18600   18651   18714       6   18597   18567   18600       6   18597   18645
   18714       6   18594   18642   18702       6   18591   18564   18594       6
   18591   18636   18702       6   18588   18627   18693       6   18585   18561
   18588       6   18585   18621   18693       6   18579   18615   18681       6
   18579   18618   18687       6   18576   18552   18579       7   18576   18609
   18669       6   18576   18612   18675       6   18570   18603   18657       6
   18570   18606   18663       6   18567   18543   18570       7   18567   18597
   18645       6   18567   18600   18651       6   18564   18591   18636       6
   18564   18594   18642       6   18561   18540   18564       7   18561   18585
   18621       6   18561   18588   18627       6   18552   18522   18555       8
   18552   18576   18609       8   18552   18576   18612       8   18552   18579
   18615       8   18552   18579   18618       8   18543   18510   18546       8
   18543   18567   18597       8   18543   18567   18600       8   18543   18570
   18603       8   18543   18570   18606       8   18540   18561   18585       8
   18540   18561   18588       8   18540   18564   18591       8   18540   18564
   18594       8   18522   18552   18576       7   18522   18552   18579       7
   18522   18555   18525       6   18510   18543   18567       7   18510   18543
   18570       7   18510   18546   18516       6   18504   18540   18561       7
   18504   18540   18564       7   18498   18504   18540       8   18492   18486
   18516       9   18492   18525   18555      10   18489   18471   18492      10
   18489   18522   18552       8   18489   18522   18555       6   18486   18492
   18525       9   18486   18516   18546      10   18483   18468   18486      10
   18483   18510   18543       8   18483   18510   18546       6   18480   18504
   18498       6   18480   18504   18540       8   18477   18498   18504       6
   18471   18489   18522       6   18471   18492   18486       9   18471   18492
   18525      12   18468   18447   18471      13   18468   18483   18510       6
   18468   18486   18492       9   18468   18486   18516      12   18465   18447
   18468      13   18465   18447   18471      13   18465   18462   18477      12
   18465   18480   18504       6   18462   18465   18480      10   18462   18477
   18498      10   18453   18474   18495       4   18447   18465   18462      14
   18447   18465   18480      15   18447   18468   18483      15   18447   18468
   18486      14   18447   18471   18489      15   18447   18471   18492      14
   18444   18420   18447      14   18444   18462   18465       9   18444   18462
   18477       9   18438   18453   18474       5   18432   18453   18438       6
   18432   18453   18474       5   18426   18444   18462       9   18420   18444
   18426      12   18420   18444   18462       9   18420   18447   18465      13
   18420   18447   18468      13   18420   18447   18471      13   18417   18438
   18453       6   18414   18405   18417       6   18414   18432   18453       6
   18411   18426   18444      10   18408   18402   18411       6   18408   18420
   18444      10   18408   18420   18447      15   18405   18414   18432       6
   18405   18417   18438       6   18402   18399   18405       7   18402   18408
   18420       6   18402   18411   18426       6   18399   18402   18408       8
   18399   18402   18411       8   18399   18405   18414       8   18399   18405
   18417       8   18390   18399   18402       7   18390   18399   18405       7
   18384   18390   18399       8   18378   18390   18384       6   18378   18390
   18399       8   18366   18384   18390       6   18363   18357   18366       6
   18363   18378   18390       6   18357   18354   18360       4   18357   18363
   18378       6   18357   18366   18384       6   18354   18357   18363       5
   18354   18357   18366       5   19221   19245   19263       4   19212   19242
   19260       4   19203   19239   19257       4   19197   19236   19254       4
   19185   19233   19251       4   19176   19230   19248       4   19170   19221
   19245       5   19164   19221   19170       6   19164   19221   19245       5
   19158   19212   19242       5   19152   19212   19158       6   19152   19212
   19242       5   19146   19203   19239       5   19140   19203   19146       6
   19140   19203   19239       5   19134   19197   19236       5   19128   19197
   19134       6   19128   19197   19236       5   19125   19185   19233       5
   19119   19185   19125       6   19119   19185   19233       5   19110   19176
   19230       5   19104   19176   19110       6   19104   19176   19230       5
   19101   19170   19221       6   19098   19062   19101       6   19098   19164
   19221       6   19095   19158   19212       6   19092   19059   19095       6
   19092   19152   19212       6   19089   19146   19203       6   19086   19053
   19089       6   19086   19140   19203       6   19083   19134   19197       6
   19080   19050   19083       6   19080   19128   19197       6   19077   19125
   19185       6   19074   19047   19077       6   19074   19119   19185       6
   19071   19110   19176       6   19068   19044   19071       6   19068   19104
   19176       6   19062   19098   19164       6   19062   19101   19170       6
   19059   19035   19062       7   19059   19092   19152       6   19059   19095
   19158       6   19053   19086   19140       6   19053   19089   19146       6
   19050   19026   19053       7   19050   19080   19128       6   19050   19083
   19134       6   19047   19074   19119       6   19047   19077   19125       6
   19044   19023   19047       7   19044   19068   19104       6   19044   19071
   19110       6   19035   19005   19038       8   19035   19059   19092       8
   19035   19059   19095       8   19035   19062   19098       8   19035   19062
   19101       8   19026   18993   19029       8   19026   19050   19080       8
   19026   19050   19083       8   19026   19053   19086       8   19026   19053
   19089       8   19023   19044   19068       8   19023   19044   19071       8
   19023   19047   19074       8   19023   19047   19077       8   19005   19035
   19059       7   19005   19035   19062       7   19005   19038   19008       6
   18993   19026   19050       7   18993   19026   19053       7   18993   19029
   18999       6   18987   19023   19044       7   18987   19023   19047       7
   18981   18987   19023       8   18975   18969   18999       9   18975   19008
   19038      10   18972   18954   18975      10   18972   19005   19035       8
   18972   19005   19038       6   18969   18975   19008       9   18969   18999
   19029      10   18966   18951   18969      10   18966   18993   19026       8
   18966   18993   19029       6   18963   18987   18981       6   18963   18987
   19023       8   18960   18981   18987       6   18954   18972   19005       6
   18954   18975   18969       9   18954   18975   19008      12   18951   18930
   18954      13   18951   18966   18993       6   18951   18969   18975       9
   18951   18969   18999      12   18948   18930   18951      13   18948   18930
   18954      13   18948   18945   18960      12   18948   18963   18987       6
   18945   18948   18963      10   18945   18960   18981      10   18936   18957
   18978       4   18930   18948   18945      14   18930   18948   18963      15
   18930   18951   18966      15   18930   18951   18969      14   18930   18954
   18972      15   18930   18954   18975      14   18927   18903   18930      14
   18927   18945   18948       9   18927   18945   18960       9   18921   18936
   18957       5   18915   18936   18921       6   18915   18936   18957       5
   18909   18927   18945       9   18903   18927   18909      12   18903   18927
   18945       9   18903   18930   18948      13   18903   18930   18951      13
   18903   18930   18954      13   18900   18921   18936       6   18897   18888
   18900       6   18897   18915   18936       6   18894   18909   18927      10
   18891   18885   18894       6   18891   18903   18927      10   18891   18903
   18930      15   18888   18897   18915       6   18888   18900   18921       6
   18885   18882   18888       7   18885   18891   18903       6   18885   18894
   18909       6   18882   18885   18891       8   18882   18885   18894       8
   18882   18888   18897       8   18882   18888   18900       8   18873   18882
   18885       7   18873   18882   18888       7   18867   18873   18882       8
   18861   18873   18867       6   18861   18873   18882       8   18849   18867
   18873       6   18846   18840   18849       6   18846   18861   18873       6
   18840   18837   18843       4   18840   18846   18861       6   18840   18849
   18867       6   18837   18840   18846       5   18837   18840   18849       5
   19704   19728   19746       4   19695   19725   19743       4   19686   19722
   19740       4   19680   19719   19737       4   19668   19716   19734       4
   19659   19713   19731       4   19653   19704   19728       5   19647   19704
   19653       6   19647   19704   19728       5   19641   19695   19725       5
   19635   19695   19641       6   19635   19695   19725       5   19629   19686
   19722       5   19623   19686   19629       6   19623   19686   19722       5
   19617   19680   19719       5   19611   19680   19617       6   19611   19680
   19719       5   19608   19668   19716       5   19602   19668   19608       6
   19602   19668   19716       5   19593   19659   19713       5   19587   19659
   19593       6   19587   19659   19713       5   19584   19653   19704       6
   19581   19545   19584       6   19581   19647   19704       6   19578   19641
   19695       6   19575   19542   19578       6   19575   19635   19695       6
   19572   19629   19686       6   19569   19536   19572       6   19569   19623
   19686       6   19566   19617   19680       6   19563   19533   19566       6
   19563   19611   19680       6   19560   19608   19668       6   19557   19530
   19560       6   19557   19602   19668       6   19554   19593   19659       6
   19551   19527   19554       6   19551   19587   19659       6   19545   19581
   19647       6   19545   19584   19653       6   19542   19518   19545       7
   19542   19575   19635       6   19542   19578   19641       6   19536   19569
   19623       6   19536   19572   19629       6   19533   19509   19536       7
   19533   19563   19611       6   19533   19566   19617       6   19530   19557
   19602       6   19530   19560   19608       6   19527   19506   19530       7
   19527   19551   19587       6   19527   19554   19593       6   19518   19488
   19521       8   19518   19542   19575       8   19518   19542   19578       8
   19518   19545   19581       8   19518   19545   19584       8   19509   19476
   19512       8   19509   19533   19563       8   19509   19533   19566       8
   19509   19536   19569       8   19509   19536   19572       8   19506   19527
   19551       8   19506   19527   19554       8   19506   19530   19557       8
   19506   19530   19560       8   19488   19518   19542       7   19488   19518
   19545       7   19488   19521   19491       6   19476   19509   19533       7
   19476   19509   19536       7   19476   19512   19482       6   19470   19506
   19527       7   19470   19506   19530       7   19464   19470   19506       8
   19458   19452   19482       9   19458   19491   19521      10   19455   19437
   19458      10   19455   19488   19518       8   19455   19488   19521       6
   19452   19458   19491       9   19452   19482   19512      10   19449   19434
   19452      10   19449   19476   19509       8   19449   19476   19512       6
   19446   19470   19464       6   19446   19470   19506       8   19443   19464
   19470       6   19437   19455   19488       6   19437   19458   19452       9
   19437   19458   19491      12   19434   19413   19437      13   19434   19449
   19476       6   19434   19452   19458       9   19434   19452   19482      12
   19431   19413   19434      13   19431   19413   19437      13   19431   19428
   19443      12   19431   19446   19470       6   19428   19431   19446      10
   19428   19443   19464      10   19419   19440   19461       4   19413   19431
   19428      14   19413   19431   19446      15   19413   19434   19449      15
   19413   19434   19452      14   19413   19437   19455      15   19413   19437
   19458      14   19410   19386   19413      14   19410   19428   19431       9
   19410   19428   19443       9   19404   19419   19440       5   19398   19419
   19404       6   19398   19419   19440       5   19392   19410   19428       9
   19386   19410   19392      12   19386   19410   19428       9   19386   19413
   19431      13   19386   19413   19434      13   19386   19413   19437      13
   19383   19404   19419       6   19380   19371   19383       6   19380   19398
   19419       6   19377   19392   19410      10   19374   19368   19377       6
   19374   19386   19410      10   19374   19386   19413      15   19371   19380
   19398       6   19371   19383   19404       6   19368   19365   19371       7
   19368   19374   19386       6   19368   19377   19392       6   19365   19368
   19374       8   19365   19368   19377       8   19365   19371   19380       8
   19365   19371   19383       8   19356   19365   19368       7   19356   19365
   19371       7   19350   19356   19365       8   19344   19356   19350       6
   19344   19356   19365       8   19332   19350   19356       6   19329   19323
   19332       6   19329   19344   19356       6   19323   19320   19326       4
   19323   19329   19344       6   19323   19332   19350       6   19320   19323
   19329       5   19320   19323   19332       5   20187   20211   20229       4
   20178   20208   20226       4   20169   20205   20223       4   20163   20202
   20220       4   20151   20199   20217       4   20142   20196   20214       4
   20136   20187   20211       5   20130   20187   20136       6   20130   20187
   20211       5   20124   20178   20208       5   20118   20178   20124       6
   20118   20178   20208       5   20112   20169   20205       5   20106   20169
   20112       6   20106   20169   20205       5   20100   20163   20202       5
   20094   20163   20100       6   20094   20163   20202       5   20091   20151
   20199       5   20085   20151   20091       6   20085   20151   20199       5
   20076   20142   20196       5   20070   20142   20076       6   20070   20142
   20196       5   20067   20136   20187       6   20064   20028   20067       6
   20064   20130   20187       6   20061   20124   20178       6   20058   20025
   20061       6   20058   20118   20178       6   20055   20112   20169       6
   20052   20019   20055       6   20052   20106   20169       6   20049   20100
   20163       6   20046   20016   20049       6   20046   20094   20163       6
   20043   20091   20151       6   20040   20013   20043       6   20040   20085
   20151       6   20037   20076   20142       6   20034   20010   20037       6
   20034   20070   20142       6   20028   20064   20130       6   20028   20067
   20136       6   20025   20001   20028       7   20025   20058   20118       6
   20025   20061   20124       6   20019   20052   20106       6   20019   20055
   20112       6   20016   19992   20019       7   20016   20046   20094       6
   20016   20049   20100       6   20013   20040   20085       6   20013   20043
   20091       6   20010   19989   20013       7   20010   20034   20070       6
   20010   20037   20076       6   20001   19971   20004       8   20001   20025
   20058       8   20001   20025   20061       8   20001   20028   20064       8
   20001   20028   20067       8   19992   19959   19995       8   19992   20016
   20046       8   19992   20016   20049       8   19992   20019   20052       8
   19992   20019   20055       8   19989   20010   20034       8   19989   20010
   20037       8   19989   20013   20040       8   19989   20013   20043       8
   19971   20001   20025       7   19971   20001   20028       7   19971   20004
   19974       6   19959   19992   20016       7   19959   19992   20019       7
   19959   19995   19965       6   19953   19989   20010       7   19953   19989
   20013       7   19947   19953   19989       8   19941   19935   19965       9
   19941   19974   20004      10   19938   19920   19941      10   19938   19971
   20001       8   19938   19971   20004       6   19935   19941   19974       9
   19935   19965   19995      10   19932   19917   19935      10   19932   19959
   19992       8   19932   19959   19995       6   19929   19953   19947       6
   19929   19953   19989       8   19926   19947   19953       6   19920   19938
   19971       6   19920   19941   19935       9   19920   19941   19974      12
   19917   19896   19920      13   19917   19932   19959       6   19917   19935
   19941       9   19917   19935   19965      12   19914   19896   19917      13
   19914   19896   19920      13   19914   19911   19926      12   19914   19929
   19953       6   19911   19914   19929      10   19911   19926   19947      10
   19902   19923   19944       4   19896   19914   19911      14   19896   19914
   19929      15   19896   19917   19932      15   19896   19917   19935      14
   19896   19920   19938      15   19896   19920   19941      14   19893   19869
   19896      14   19893   19911   19914       9   19893   19911   19926       9
   19887   19902   19923       5   19881   19902   19887       6   19881   19902
   19923       5   19875   19893   19911       9   19869   19893   19875      12
   19869   19893   19911       9   19869   19896   19914      13   19869   19896
   19917      13   19869   19896   19920      13   19866   19887   19902       6
   19863   19854   19866       6   19863   19881   19902       6   19860   19875
   19893      10   19857   19851   19860       6   19857   19869   19893      10
   19857   19869   19896      15   19854   19863   19881       6   19854   19866
   19887       6   19851   19848   19854       7   19851   19857   19869       6
   19851   19860   19875       6   19848   19851   19857       8   19848   19851
   19860       8   19848   19854   19863       8   19848   19854   19866       8
   19839   19848   19851       7   19839   19848   19854       7   19833   19839
   19848       8   19827   19839   19833       6   19827   19839   19848       8
   19815   19833   19839       6   19812   19806   19815       6   19812   19827
   19839       6   19806   19803   19809       4   19806   19812   19827       6
   19806   19815   19833       6   19803   19806   19812       5   19803   19806
   19815       5   20670   20694   20712       4   20661   20691   20709       4
   20652   20688   20706       4   20646   20685   20703       4   20634   20682
   20700       4   20625   20679   20697       4   20619   20670   20694       5
   20613   20670   20619       6   20613   20670   20694       5   20607   20661
   20691       5   20601   20661   20607       6   20601   20661   20691       5
   20595   20652   20688       5   20589   20652   20595       6   20589   20652
   20688       5   20583   20646   20685       5   20577   20646   20583       6
   20577   20646   20685       5   20574   20634   20682       5   20568   20634
   20574       6   20568   20634   20682       5   20559   20625   20679       5
   20553   20625   20559       6   20553   20625   20679       5   20550   20619
   20670       6   20547   20511   20550       6   20547   20613   20670       6
   20544   20607   20661       6   20541   20508   20544       6   20541   20601
   20661       6   20538   20595   20652       6   20535   20502   20538       6
   20535   20589   20652       6   20532   20583   20646       6   20529   20499
   20532       6   20529   20577   20646       6   20526   20574   20634       6
   20523   20496   20526       6   20523   20568   20634       6   20520   20559
   20625       6   20517   20493   20520       6   20517   20553   20625       6
   20511   20547   20613       6   20511   20550   20619       6   20508   20484
   20511       7   20508   20541   20601       6   20508   20544   20607       6
   20502   20535   20589       6   20502   20538   20595       6   20499   20475
   20502       7   20499   20529   20577       6   20499   20532   20583       6
   20496   20523   20568       6   20496   20526   20574       6   20493   20472
   20496       7   20493   20517   20553       6   20493   20520   20559       6
   20484   20454   20487       8   20484   20508   20541       8   20484   20508
   20544       8   20484   20511   20547       8   20484   20511   20550       8
   20475   20442   20478       8   20475   20499   20529       8   20475   20499
   20532       8   20475   20502   20535       8   20475   20502   20538       8
   20472   20493   20517       8   20472   20493   20520       8   20472   20496
   20523       8   20472   20496   20526       8   20454   20484   20508       7
   20454   20484   20511       7   20454   20487   20457       6   20442   20475
   20499       7   20442   20475   20502       7   20442   20478   20448       6
   20436   20472   20493       7   20436   20472   20496       7   20430   20436
   20472       8   20424   20418   20448       9   20424   20457   20487      10
   20421   20403   20424      10   20421   20454   20484       8   20421   20454
   20487       6   20418   20424   20457       9   20418   20448   20478      10
   20415   20400   20418      10   20415   20442   20475       8   20415   20442
   20478       6   20412   20436   20430       6   20412   20436   20472       8
   20409   20430   20436       6   20403   20421   20454       6   20403   20424
   20418       9   20403   20424   20457      12   20400   20379   20403      13
   20400   20415   20442       6   20400   20418   20424       9   20400   20418
   20448      12   20397   20379   20400      13   20397   20379   20403      13
   20397   20394   20409      12   20397   20412   20436       6   20394   20397
   20412      10   20394   20409   20430      10   20385   20406   20427       4
   20379   20397   20394      14   20379   20397   20412      15   20379   20400
   20415      15   20379   20400   20418      14   20379   20403   20421      15
   20379   20403   20424      14   20376   20352   20379      14   20376   20394
   20397       9   20376   20394   20409       9   20370   20385   20406       5
   20364   20385   20370       6   20364   20385   20406       5   20358   20376
   20394       9   20352   20376   20358      12   20352   20376   20394       9
   20352   20379   20397      13   20352   20379   20400      13   20352   20379
   20403      13   20349   20370   20385       6   20346   20337   20349       6
   20346   20364   20385       6   20343   20358   20376      10   20340   20334
   20343       6   20340   20352   20376      10   20340   20352   20379      15
   20337   20346   20364       6   20337   20349   20370       6   20334   20331
   20337       7   20334   20340   20352       6   20334   20343   20358       6
   20331   20334   20340       8   20331   20334   20343       8   20331   20337
   20346       8   20331   20337   20349       8   20322   20331   20334       7
   20322   20331   20337       7   20316   20322   20331       8   20310   20322
   20316       6   20310   20322   20331       8   20298   20316   20322       6
   20295   20289   20298       6   20295   20310   20322       6   20289   20286
   20292       4   20289   20295   20310       6   20289   20298   20316       6
   20286   20289   20295       5   20286   20289   20298       5   21153   21177
   21195       4   21144   21174   21192       4   21135   21171   21189       4
   21129   21168   21186       4   21117   21165   21183       4   21108   21162
   21180       4   21102   21153   21177       5   21096   21153   21102       6
   21096   21153   21177       5   21090   21144   21174       5   21084   21144
   21090       6   21084   21144   21174       5   21078   21135   21171       5
   21072   21135   21078       6   21072   21135   21171       5   21066   21129
   21168       5   21060   21129   21066       6   21060   21129   21168       5
   21057   21117   21165       5   21051   21117   21057       6   21051   21117
   21165       5   21042   21108   21162       5   21036   21108   21042       6
   21036   21108   21162       5   21033   21102   21153       6   21030   20994
   21033       6   21030   21096   21153       6   21027   21090   21144       6
   21024   20991   21027       6   21024   21084   21144       6   21021   21078
   21135       6   21018   20985   21021       6   21018   21072   21135       6
   21015   21066   21129       6   21012   20982   21015       6   21012   21060
   21129       6   21009   21057   21117       6   21006   20979   21009       6
   21006   21051   21117       6   21003   21042   21108       6   21000   20976
   21003       6   21000   21036   21108       6   20994   21030   21096       6
   20994   21033   21102       6   20991   20967   20994       7   20991   21024
   21084       6   20991   21027   21090       6   20985   21018   21072       6
   20985   21021   21078       6   20982   20958   20985       7   20982   21012
   21060       6   20982   21015   21066       6   20979   21006   21051       6
   20979   21009   21057       6   20976   20955   20979       7   20976   21000
   21036       6   20976   21003   21042       6   20967   20937   20970       8
   20967   20991   21024       8   20967   20991   21027       8   20967   20994
   21030       8   20967   20994   21033       8   20958   20925   20961       8
   20958   20982   21012       8   20958   20982   21015       8   20958   20985
   21018       8   20958   20985   21021       8   20955   20976   21000       8
   20955   20976   21003       8   20955   20979   21006       8   20955   20979
   21009       8   20937   20967   20991       7   20937   20967   20994       7
   20937   20970   20940       6   20925   20958   20982       7   20925   20958
   20985       7   20925   20961   20931       6   20919   20955   20976       7
   20919   20955   20979       7   20913   20919   20955       8   20907   20901
   20931       9   20907   20940   20970      10   20904   20886   20907      10
   20904   20937   20967       8   20904   20937   20970       6   20901   20907
   20940       9   20901   20931   20961      10   20898   20883   20901      10
   20898   20925   20958       8   20898   20925   20961       6   20895   20919
   20913       6   20895   20919   20955       8   20892   20913   20919       6
   20886   20904   20937       6   20886   20907   20901       9   20886   20907
   20940      12   20883   20862   20886      13   20883   20898   20925       6
   20883   20901   20907       9   20883   20901   20931      12   20880   20862
   20883      13   20880   20862   20886      13   20880   20877   20892      12
   20880   20895   20919       6   20877   20880   20895      10   20877   20892
   20913      10   20868   20889   20910       4   20862   20880   20877      14
   20862   20880   20895      15   20862   20883   20898      15   20862   20883
   20901      14   20862   20886   20904      15   20862   20886   20907      14
   20859   20835   20862      14   20859   20877   20880       9   20859   20877
   20892       9   20853   20868   20889       5   20847   20868   20853       6
   20847   20868   20889       5   20841   20859   20877       9   20835   20859
   20841      12   20835   20859   20877       9   20835   20862   20880      13
   20835   20862   20883      13   20835   20862   20886      13   20832   20853
   20868       6   20829   20820   20832       6   20829   20847   20868       6
   20826   20841   20859      10   20823   20817   20826       6   20823   20835
   20859      10   20823   20835   20862      15   20820   20829   20847       6
   20820   20832   20853       6   20817   20814   20820       7   20817   20823
   20835       6   20817   20826   20841       6   20814   20817   20823       8
   20814   20817   20826       8   20814   20820   20829       8   20814   20820
   20832       8   20805   20814   20817       7   20805   20814   20820       7
   20799   20805   20814       8   20793   20805   20799       6   20793   20805
   20814       8   20781   20799   20805       6   20778   20772   20781       6
   20778   20793   20805       6   20772   20769   20775       4   20772   20778
   20793       6   20772   20781   20799       6   20769   20772   20778       5
   20769   20772   20781       5   21636   21660   21678       4   21627   21657
   21675       4   21618   21654   21672       4   21612   21651   21669       4
   21600   21648   21666       4   21591   21645   21663       4   21585   21636
   21660       5   21579   21636   21585       6   21579   21636   21660       5
   21573   21627   21657       5   21567   21627   21573       6   21567   21627
   21657       5   21561   21618   21654       5   21555   21618   21561       6
   21555   21618   21654       5   21549   21612   21651       5   21543   21612
   21549       6   21543   21612   21651       5   21540   21600   21648       5
   21534   21600   21540       6   21534   21600   21648       5   21525   21591
   21645       5   21519   21591   21525       6   21519   21591   21645       5
   21516   21585   21636       6   21513   21477   21516       6   21513   21579
   21636       6   21510   21573   21627       6   21507   21474   21510       6
   21507   21567   21627       6   21504   21561   21618       6   21501   21468
   21504       6   21501   21555   21618       6   21498   21549   21612       6
   21495   21465   21498       6   21495   21543   21612       6   21492   21540
   21600       6   21489   21462   21492       6   21489   21534   21600       6
   21486   21525   21591       6   21483   21459   21486       6   21483   21519
   21591       6   21477   21513   21579       6   21477   21516   21585       6
   21474   21450   21477       7   21474   21507   21567       6   21474   21510
   21573       6   21468   21501   21555       6   21468   21504   21561       6
   21465   21441   21468       7   21465   21495   21543       6   21465   21498
   21549       6   21462   21489   21534       6   21462   21492   21540       6
   21459   21438   21462       7   21459   21483   21519       6   21459   21486
   21525       6   21450   21420   21453       8   21450   21474   21507       8
   21450   21474   21510       8   21450   21477   21513       8   21450   21477
   21516       8   21441   21408   21444       8   21441   21465   21495       8
   21441   21465   21498       8   21441   21468   21501       8   21441   21468
   21504       8   21438   21459   21483       8   21438   21459   21486       8
   21438   21462   21489       8   21438   21462   21492       8   21420   21450
   21474       7   21420   21450   21477       7   21420   21453   21423       6
   21408   21441   21465       7   21408   21441   21468       7   21408   21444
   21414       6   21402   21438   21459       7   21402   21438   21462       7
   21396   21402   21438       8   21390   21384   21414       9   21390   21423
   21453      10   21387   21369   21390      10   21387   21420   21450       8
   21387   21420   21453       6   21384   21390   21423       9   21384   21414
   21444      10   21381   21366   21384      10   21381   21408   21441       8
   21381   21408   21444       6   21378   21402   21396       6   21378   21402
   21438       8   21375   21396   21402       6   21369   21387   21420       6
   21369   21390   21384       9   21369   21390   21423      12   21366   21345
   21369      13   21366   21381   21408       6   21366   21384   21390       9
   21366   21384   21414      12   21363   21345   21366      13   21363   21345
   21369      13   21363   21360   21375      12   21363   21378   21402       6
   21360   21363   21378      10   21360   21375   21396      10   21351   21372
   21393       4   21345   21363   21360      14   21345   21363   21378      15
   21345   21366   21381      15   21345   21366   21384      14   21345   21369
   21387      15   21345   21369   21390      14   21342   21318   21345      14
   21342   21360   21363       9   21342   21360   21375       9   21336   21351
   21372       5   21330   21351   21336       6   21330   21351   21372       5
   21324   21342   21360       9   21318   21342   21324      12   21318   21342
   21360       9   21318   21345   21363      13   21318   21345   21366      13
   21318   21345   21369      13   21315   21336   21351       6   21312   21303
   21315       6   21312   21330   21351       6   21309   21324   21342      10
   21306   21300   21309       6   21306   21318   21342      10   21306   21318
   21345      15   21303   21312   21330       6   21303   21315   21336       6
   21300   21297   21303       7   21300   21306   21318       6   21300   21309
   21324       6   21297   21300   21306       8   21297   21300   21309       8
   21297   21303   21312       8   21297   21303   21315       8   21288   21297
   21300       7   21288   21297   21303       7   21282   21288   21297       8
   21276   21288   21282       6   21276   21288   21297       8   21264   21282
   21288       6   21261   21255   21264       6   21261   21276   21288       6
   21255   21252   21258       4   21255   21261   21276       6   21255   21264
   21282       6   21252   21255   21261       5   21252   21255   21264       5
   22119   22143   22161       4   22110   22140   22158       4   22101   22137
   22155       4   22095   22134   22152       4   22083   22131   22149       4
   22074   22128   22146       4   22068   22119   22143       5   22062   22119
   22068       6   22062   22119   22143       5   22056   22110   22140       5
   22050   22110   22056       6   22050   22110   22140       5   22044   22101
   22137       5   22038   22101   22044       6   22038   22101   22137       5
   22032   22095   22134       5   22026   22095   22032       6   22026   22095
   22134       5   22023   22083   22131       5   22017   22083   22023       6
   22017   22083   22131       5   22008   22074   22128       5   22002   22074
   22008       6   22002   22074   22128       5   21999   22068   22119       6
   21996   21960   21999       6   21996   22062   22119       6   21993   22056
   22110       6   21990   21957   21993       6   21990   22050   22110       6
   21987   22044   22101       6   21984   21951   21987       6   21984   22038
   22101       6   21981   22032   22095       6   21978   21948   21981       6
   21978   22026   22095       6   21975   22023   22083       6   21972   21945
   21975       6   21972   22017   22083       6   21969   22008   22074       6
   21966   21942   21969       6   21966   22002   22074       6   21960   21996
   22062       6   21960   21999   22068       6   21957   21933   21960       7
   21957   21990   22050       6   21957   21993   22056       6   21951   21984
   22038       6   21951   21987   22044       6   21948   21924   21951       7
   21948   21978   22026       6   21948   21981   22032       6   21945   21972
   22017       6   21945   21975   22023       6   21942   21921   21945       7
   21942   21966   22002       6   21942   21969   22008       6   21933   21903
   21936       8   21933   21957   21990       8   21933   21957   21993       8
   21933   21960   21996       8   21933   21960   21999       8   21924   21891
   21927       8   21924   21948   21978       8   21924   21948   21981       8
   21924   21951   21984       8   21924   21951   21987       8   21921   21942
   21966       8   21921   21942   21969       8   21921   21945   21972       8
   21921   21945   21975       8   21903   21933   21957       7   21903   21933
   21960       7   21903   21936   21906       6   21891   21924   21948       7
   21891   21924   21951       7   21891   21927   21897       6   21885   21921
   21942       7   21885   21921   21945       7   21879   21885   21921       8
   21873   21867   21897       9   21873   21906   21936      10   21870   21852
   21873      10   21870   21903   21933       8   21870   21903   21936       6
   21867   21873   21906       9   21867   21897   21927      10   21864   21849
   21867      10   21864   21891   21924       8   21864   21891   21927       6
   21861   21885   21879       6   21861   21885   21921       8   21858   21879
   21885       6   21852   21870   21903       6   21852   21873   21867       9
   21852   21873   21906      12   21849   21828   21852      13   21849   21864
   21891       6   21849   21867   21873       9   21849   21867   21897      12
   21846   21828   21849      13   21846   21828   21852      13   21846   21843
   21858      12   21846   21861   21885       6   21843   21846   21861      10
   21843   21858   21879      10   21834   21855   21876       4   21828   21846
   21843      14   21828   21846   21861      15   21828   21849   21864      15
   21828   21849   21867      14   21828   21852   21870      15   21828   21852
   21873      14   21825   21801   21828      14   21825   21843   21846       9
   21825   21843   21858       9   21819   21834   21855       5   21813   21834
   21819       6   21813   21834   21855       5   21807   21825   21843       9
   21801   21825   21807      12   21801   21825   21843       9   21801   21828
   21846      13   21801   21828   21849      13   21801   21828   21852      13
   21798   21819   21834       6   21795   21786   21798       6   21795   21813
   21834       6   21792   21807   21825      10   21789   21783   21792       6
   21789   21801   21825      10   21789   21801   21828      15   21786   21795
   21813       6   21786   21798   21819       6   21783   21780   21786       7
   21783   21789   21801       6   21783   21792   21807       6   21780   21783
   21789       8   21780   21783   21792       8   21780   21786   21795       8
   21780   21786   21798       8   21771   21780   21783       7   21771   21780
   21786       7   21765   21771   21780       8   21759   21771   21765       6
   21759   21771   21780       8   21747   21765   21771       6   21744   21738
   21747       6   21744   21759   21771       6   21738   21735   21741       4
   21738   21744   21759       6   21738   21747   21765       6   21735   21738
   21744       5   21735   21738   21747       5   22602   22626   22644       4
   22593   22623   22641       4   22584   22620   22638       4   22578   22617
   22635       4   22566   22614   22632       4   22557   22611   22629       4
   22551   22602   22626       5   22545   22602   22551       6   22545   22602
   22626       5   22539   22593   22623       5   22533   22593   22539       6
   22533   22593   22623       5   22527   22584   22620       5   22521   22584
   22527       6   22521   22584   22620       5   22515   22578   22617       5
   22509   22578   22515       6   22509   22578   22617       5   22506   22566
   22614       5   22500   22566   22506       6   22500   22566   22614       5
   22491   22557   22611       5   22485   22557   22491       6   22485   22557
   22611       5   22482   22551   22602       6   22479   22443   22482       6
   22479   22545   22602       6   22476   22539   22593       6   22473   22440
   22476       6   22473   22533   22593       6   22470   22527   22584       6
   22467   22434   22470       6   22467   22521   22584       6   22464   22515
   22578       6   22461   22431   22464       6   22461   22509   22578       6
   22458   22506   22566       6   22455   22428   22458       6   22455   22500
   22566       6   22452   22491   22557       6   22449   22425   22452       6
   22449   22485   22557       6   22443   22479   22545       6   22443   22482
   22551       6   22440   22416   22443       7   22440   22473   22533       6
   22440   22476   22539       6   22434   22467   22521       6   22434   22470
   22527       6   22431   22407   22434       7   22431   22461   22509       6
   22431   22464   22515       6   22428   22455   22500       6   22428   22458
   22506       6   22425   22404   22428       7   22425   22449   22485       6
   22425   22452   22491       6   22416   22386   22419       8   22416   22440
   22473       8   22416   22440   22476       8   22416   22443   22479       8
   22416   22443   22482       8   22407   22374   22410       8   22407   22431
   22461       8   22407   22431   22464       8   22407   22434   22467       8
   22407   22434   22470       8   22404   22425   22449       8   22404   22425
   22452       8   22404   22428   22455       8   22404   22428   22458       8
   22386   22416   22440       7   22386   22416   22443       7   22386   22419
   22389       6   22374   22407   22431       7   22374   22407   22434       7
   22374   22410   22380       6   22368   22404   22425       7   22368   22404
   22428       7   22362   22368   22404       8   22356   22350   22380       9
   22356   22389   22419      10   22353   22335   22356      10   22353   22386
   22416       8   22353   22386   22419       6   22350   22356   22389       9
   22350   22380   22410      10   22347   22332   22350      10   22347   22374
   22407       8   22347   22374   22410       6   22344   22368   22362       6
   22344   22368   22404       8   22341   22362   22368       6   22335   22353
   22386       6   22335   22356   22350       9   22335   22356   22389      12
   22332   22311   22335      13   22332   22347   22374       6   22332   22350
   22356       9   22332   22350   22380      12   22329   22311   22332      13
   22329   22311   22335      13   22329   22326   22341      12   22329   22344
   22368       6   22326   22329   22344      10   22326   22341   22362      10
   22317   22338   22359       4   22311   22329   22326      14   22311   22329
   22344      15   22311   22332   22347      15   22311   22332   22350      14
   22311   22335   22353      15   22311   22335   22356      14   22308   22284
   22311      14   22308   22326   22329       9   22308   22326   22341       9
   22302   22317   22338       5   22296   22317   22302       6   22296   22317
   22338       5   22290   22308   22326       9   22284   22308   22290      12
   22284   22308   22326       9   22284   22311   22329      13   22284   22311
   22332      13   22284   22311   22335      13   22281   22302   22317       6
   22278   22269   22281       6   22278   22296   22317       6   22275   22290
   22308      10   22272   22266   22275       6   22272   22284   22308      10
   22272   22284   22311      15   22269   22278   22296       6   22269   22281
   22302       6   22266   22263   22269       7   22266   22272   22284       6
   22266   22275   22290       6   22263   22266   22272       8   22263   22266
   22275       8   22263   22269   22278       8   22263   22269   22281       8
   22254   22263   22266       7   22254   22263   22269       7   22248   22254
   22263       8   22242   22254   22248       6   22242   22254   22263       8
   22230   22248   22254       6   22227   22221   22230       6   22227   22242
   22254       6   22221   22218   22224       4   22221   22227   22242       6
   22221   22230   22248       6   22218   22221   22227       5   22218   22221
   22230       5   23085   23109   23127       4   23076   23106   23124       4
   23067   23103   23121       4   23061   23100   23118       4   23049   23097
   23115       4   23040   23094   23112       4   23034   23085   23109       5
   23028   23085   23034       6   23028   23085   23109       5   23022   23076
   23106       5   23016   23076   23022       6   23016   23076   23106       5
   23010   23067   23103       5   23004   23067   23010       6   23004   23067
   23103       5   22998   23061   23100       5   22992   23061   22998       6
   22992   23061   23100       5   22989   23049   23097       5   22983   23049
   22989       6   22983   23049   23097       5   22974   23040   23094       5
   22968   23040   22974       6   22968   23040   23094       5   22965   23034
   23085       6   22962   22926   22965       6   22962   23028   23085       6
   22959   23022   23076       6   22956   22923   22959       6   22956   23016
   23076       6   22953   23010   23067       6   22950   22917   22953       6
   22950   23004   23067       6   22947   22998   23061       6   22944   22914
   22947       6   22944   22992   23061       6   22941   22989   23049       6
   22938   22911   22941       6   22938   22983   23049       6   22935   22974
   23040       6   22932   22908   22935       6   22932   22968   23040       6
   22926   22962   23028       6   22926   22965   23034       6   22923   22899
   22926       7   22923   22956   23016       6   22923   22959   23022       6
   22917   22950   23004       6   22917   22953   23010       6   22914   22890
   22917       7   22914   22944   22992       6   22914   22947   22998       6
   22911   22938   22983       6   22911   22941   22989       6   22908   22887
   22911       7   22908   22932   22968       6   22908   22935   22974       6
   22899   22869   22902       8   22899   22923   22956       8   22899   22923
   22959       8   22899   22926   22962       8   22899   22926   22965       8
   22890   22857   22893       8   22890   22914   22944       8   22890   22914
   22947       8   22890   22917   22950       8   22890   22917   22953       8
   22887   22908   22932       8   22887   22908   22935       8   22887   22911
   22938       8   22887   22911   22941       8   22869   22899   22923       7
   22869   22899   22926       7   22869   22902   22872       6   22857   22890
   22914       7   22857   22890   22917       7   22857   22893   22863       6
   22851   22887   22908       7   22851   22887   22911       7   22845   22851
   22887       8   22839   22833   22863       9   22839   22872   22902      10
   22836   22818   22839      10   22836   22869   22899       8   22836   22869
   22902       6   22833   22839   22872       9   22833   22863   22893      10
   22830   22815   22833      10   22830   22857   22890       8   22830   22857
   22893       6   22827   22851   22845       6   22827   22851   22887       8
   22824   22845   22851       6   22818   22836   22869       6   22818   22839
   22833       9   22818   22839   22872      12   22815   22794   22818      13
   22815   22830   22857       6   22815   22833   22839       9   22815   22833
   22863      12   22812   22794   22815      13   22812   22794   22818      13
   22812   22809   22824      12   22812   22827   22851       6   22809   22812
   22827      10   22809   22824   22845      10   22800   22821   22842       4
   22794   22812   22809      14   22794   22812   22827      15   22794   22815
   22830      15   22794   22815   22833      14   22794   22818   22836      15
   22794   22818   22839      14   22791   22767   22794      14   22791   22809
   22812       9   22791   22809   22824       9   22785   22800   22821       5
   22779   22800   22785       6   22779   22800   22821       5   22773   22791
   22809       9   22767   22791   22773      12   22767   22791   22809       9
   22767   22794   22812      13   22767   22794   22815      13   22767   22794
   22818      13   22764   22785   22800       6   22761   22752   22764       6
   22761   22779   22800       6   22758   22773   22791      10   22755   22749
   22758       6   22755   22767   22791      10   22755   22767   22794      15
   22752   22761   22779       6   22752   22764   22785       6   22749   22746
   22752       7   22749   22755   22767       6   22749   22758   22773       6
   22746   22749   22755       8   22746   22749   22758       8   22746   22752
   22761       8   22746   22752   22764       8   22737   22746   22749       7
   22737   22746   22752       7   22731   22737   22746       8   22725   22737
   22731       6   22725   22737   22746       8   22713   22731   22737       6
   22710   22704   22713       6   22710   22725   22737       6   22704   22701
   22707       4   22704   22710   22725       6   22704   22713   22731       6
   22701   22704   22710       5   22701   22704   22713       5   23568   23592
   23610       4   23559   23589   23607       4   23550   23586   23604       4
   23544   23583   23601       4   23532   23580   23598       4   23523   23577
   23595       4   23517   23568   23592       5   23511   23568   23517       6
   23511   23568   23592       5   23505   23559   23589       5   23499   23559
   23505       6   23499   23559   23589       5   23493   23550   23586       5
   23487   23550   23493       6   23487   23550   23586       5   23481   23544
   23583       5   23475   23544   23481       6   23475   23544   23583       5
   23472   23532   23580       5   23466   23532   23472       6   23466   23532
   23580       5   23457   23523   23577       5   23451   23523   23457       6
   23451   23523   23577       5   23448   23517   23568       6   23445   23409
   23448       6   23445   23511   23568       6   23442   23505   23559       6
   23439   23406   23442       6   23439   23499   23559       6   23436   23493
   23550       6   23433   23400   23436       6   23433   23487   23550       6
   23430   23481   23544       6   23427   23397   23430       6   23427   23475
   23544       6   23424   23472   23532       6   23421   23394   23424       6
   23421   23466   23532       6   23418   23457   23523       6   23415   23391
   23418       6   23415   23451   23523       6   23409   23445   23511       6
   23409   23448   23517       6   23406   23382   23409       7   23406   23439
   23499       6   23406   23442   23505       6   23400   23433   23487       6
   23400   23436   23493       6   23397   23373   23400       7   23397   23427
   23475       6   23397   23430   23481       6   23394   23421   23466       6
   23394   23424   23472       6   23391   23370   23394       7   23391   23415
   23451       6   23391   23418   23457       6   23382   23352   23385       8
   23382   23406   23439       8   23382   23406   23442       8   23382   23409
   23445       8   23382   23409   23448       8   23373   23340   23376       8
   23373   23397   23427       8   23373   23397   23430       8   23373   23400
   23433       8   23373   23400   23436       8   23370   23391   23415       8
   23370   23391   23418       8   23370   23394   23421       8   23370   23394
   23424       8   23352   23382   23406       7   23352   23382   23409       7
   23352   23385   23355       6   23340   23373   23397       7   23340   23373
   23400       7   23340   23376   23346       6   23334   23370   23391       7
   23334   23370   23394       7   23328   23334   23370       8   23322   23316
   23346       9   23322   23355   23385      10   23319   23301   23322      10
   23319   23352   23382       8   23319   23352   23385       6   23316   23322
   23355       9   23316   23346   23376      10   23313   23298   23316      10
   23313   23340   23373       8   23313   23340   23376       6   23310   23334
   23328       6   23310   23334   23370       8   23307   23328   23334       6
   23301   23319   23352       6   23301   23322   23316       9   23301   23322
   23355      12   23298   23277   23301      13   23298   23313   23340       6
   23298   23316   23322       9   23298   23316   23346      12   23295   23277
   23298      13   23295   23277   23301      13   23295   23292   23307      12
   23295   23310   23334       6   23292   23295   23310      10   23292   23307
   23328      10   23283   23304   23325       4   23277   23295   23292      14
   23277   23295   23310      15   23277   23298   23313      15   23277   23298
   23316      14   23277   23301   23319      15   23277   23301   23322      14
   23274   23250   23277      14   23274   23292   23295       9   23274   23292
   23307       9   23268   23283   23304       5   23262   23283   23268       6
   23262   23283   23304       5   23256   23274   23292       9   23250   23274
   23256      12   23250   23274   23292       9   23250   23277   23295      13
   23250   23277   23298      13   23250   23277   23301      13   23247   23268
   23283       6   23244   23235   23247       6   23244   23262   23283       6
   23241   23256   23274      10   23238   23232   23241       6   23238   23250
   23274      10   23238   23250   23277      15   23235   23244   23262       6
   23235   23247   23268       6   23232   23229   23235       7   23232   23238
   23250       6   23232   23241   23256       6   23229   23232   23238       8
   23229   23232   23241       8   23229   23235   23244       8   23229   23235
   23247       8   23220   23229   23232       7   23220   23229   23235       7
   23214   23220   23229       8   23208   23220   23214       6   23208   23220
   23229       8   23196   23214   23220       6   23193   23187   23196       6
   23193   23208   23220       6   23187   23184   23190       4   23187   23193
   23208       6   23187   23196   23214       6   23184   23187   23193       5
   23184   23187   23196       5   24051   24075   24093       4   24042   24072
   24090       4   24033   24069   24087       4   24027   24066   24084       4
   24015   24063   24081       4   24006   24060   24078       4   24000   24051
   24075       5   23994   24051   24000       6   23994   24051   24075       5
   23988   24042   24072       5   23982   24042   23988       6   23982   24042
   24072       5   23976   24033   24069       5   23970   24033   23976       6
   23970   24033   24069       5   23964   24027   24066       5   23958   24027
   23964       6   23958   24027   24066       5   23955   24015   24063       5
   23949   24015   23955       6   23949   24015   24063       5   23940   24006
   24060       5   23934   24006   23940       6   23934   24006   24060       5
   23931   24000   24051       6   23928   23892   23931       6   23928   23994
   24051       6   23925   23988   24042       6   23922   23889   23925       6
   23922   23982   24042       6   23919   23976   24033       6   23916   23883
   23919       6   23916   23970   24033       6   23913   23964   24027       6
   23910   23880   23913       6   23910   23958   24027       6   23907   23955
   24015       6   23904   23877   23907       6   23904   23949   24015       6
   23901   23940   24006       6   23898   23874   23901       6   23898   23934
   24006       6   23892   23928   23994       6   23892   23931   24000       6
   23889   23865   23892       7   23889   23922   23982       6   23889   23925
   23988       6   23883   23916   23970       6   23883   23919   23976       6
   23880   23856   23883       7   23880   23910   23958       6   23880   23913
   23964       6   23877   23904   23949       6   23877   23907   23955       6
   23874   23853   23877       7   23874   23898   23934       6   23874   23901
   23940       6   23865   23835   23868       8   23865   23889   23922       8
   23865   23889   23925       8   23865   23892   23928       8   23865   23892
   23931       8   23856   23823   23859       8   23856   23880   23910       8
   23856   23880   23913       8   23856   23883   23916       8   23856   23883
   23919       8   23853   23874   23898       8   23853   23874   23901       8
   23853   23877   23904       8   23853   23877   23907       8   23835   23865
   23889       7   23835   23865   23892       7   23835   23868   23838       6
   23823   23856   23880       7   23823   23856   23883       7   23823   23859
   23829       6   23817   23853   23874       7   23817   23853   23877       7
   23811   23817   23853       8   23805   23799   23829       9   23805   23838
   23868      10   23802   23784   23805      10   23802   23835   23865       8
   23802   23835   23868       6   23799   23805   23838       9   23799   23829
   23859      10   23796   23781   23799      10   23796   23823   23856       8
   23796   23823   23859       6   23793   23817   23811       6   23793   23817
   23853       8   23790   23811   23817       6   23784   23802   23835       6
   23784   23805   23799       9   23784   23805   23838      12   23781   23760
   23784      13   23781   23796   23823       6   23781   23799   23805       9
   23781   23799   23829      12   23778   23760   23781      13   23778   23760
   23784      13   23778   23775   23790      12   23778   23793   23817       6
   23775   23778   23793      10   23775   23790   23811      10   23766   23787
   23808       4   23760   23778   23775      14   23760   23778   23793      15
   23760   23781   23796      15   23760   23781   23799      14   23760   23784
   23802      15   23760   23784   23805      14   23757   23733   23760      14
   23757   23775   23778       9   23757   23775   23790       9   23751   23766
   23787       5   23745   23766   23751       6   23745   23766   23787       5
   23739   23757   23775       9   23733   23757   23739      12   23733   23757
   23775       9   23733   23760   23778      13   23733   23760   23781      13
   23733   23760   23784      13   23730   23751   23766       6   23727   23718
   23730       6   23727   23745   23766       6   23724   23739   23757      10
   23721   23715   23724       6   23721   23733   23757      10   23721   23733
   23760      15   23718   23727   23745       6   23718   23730   23751       6
   23715   23712   23718       7   23715   23721   23733       6   23715   23724
   23739       6   23712   23715   23721       8   23712   23715   23724       8
   23712   23718   23727       8   23712   23718   23730       8   23703   23712
   23715       7   23703   23712   23718       7   23697   23703   23712       8
   23691   23703   23697       6   23691   23703   23712       8   23679   23697
   23703       6   23676   23670   23679       6   23676   23691   23703       6
   23670   23667   23673       4   23670   23676   23691       6   23670   23679
   23697       6   23667   23670   23676       5   23667   23670   23679       5
   24534   24558   24576       4   24525   24555   24573       4   24516   24552
   24570       4   24510   24549   24567       4   24498   24546   24564       4
   24489   24543   24561       4   24483   24534   24558       5   24477   24534
   24483       6   24477   24534   24558       5   24471   24525   24555       5
   24465   24525   24471       6   24465   24525   24555       5   24459   24516
   24552       5   24453   24516   24459       6   24453   24516   24552       5
   24447   24510   24549       5   24441   24510   24447       6   24441   24510
   24549       5   24438   24498   24546       5   24432   24498   24438       6
   24432   24498   24546       5   24423   24489   24543       5   24417   24489
   24423       6   24417   24489   24543       5   24414   24483   24534       6
   24411   24375   24414       6   24411   24477   24534       6   24408   24471
   24525       6   24405   24372   24408       6   24405   24465   24525       6
   24402   24459   24516       6   24399   24366   24402       6   24399   24453
   24516       6   24396   24447   24510       6   24393   24363   24396       6
   24393   24441   24510       6   24390   24438   24498       6   24387   24360
   24390       6   24387   24432   24498       6   24384   24423   24489       6
   24381   24357   24384       6   24381   24417   24489       6   24375   24411
   24477       6   24375   24414   24483       6   24372   24348   24375       7
   24372   24405   24465       6   24372   24408   24471       6   24366   24399
   24453       6   24366   24402   24459       6   24363   24339   24366       7
   24363   24393   24441       6   24363   24396   24447       6   24360   24387
   24432       6   24360   24390   24438       6   24357   24336   24360       7
   24357   24381   24417       6   24357   24384   24423       6   24348   24318
   24351       8   24348   24372   24405       8   24348   24372   24408       8
   24348   24375   24411       8   24348   24375   24414       8   24339   24306
   24342       8   24339   24363   24393       8   24339   24363   24396       8
   24339   24366   24399       8   24339   24366   24402       8   24336   24357
   24381       8   24336   24357   24384       8   24336   24360   24387       8
   24336   24360   24390       8   24318   24348   24372       7   24318   24348
   24375       7   24318   24351   24321       6   24306   24339   24363       7
   24306   24339   24366       7   24306   24342   24312       6   24300   24336
   24357       7   24300   24336   24360       7   24294   24300   24336       8
   24288   24282   24312       9   24288   24321   24351      10   24285   24267
   24288      10   24285   24318   24348       8   24285   24318   24351       6
   24282   24288   24321       9   24282   24312   24342      10   24279   24264
   24282      10   24279   24306   24339       8   24279   24306   24342       6
   24276   24300   24294       6   24276   24300   24336       8   24273   24294
   24300       6   24267   24285   24318       6   24267   24288   24282       9
   24267   24288   24321      12   24264   24243   24267      13   24264   24279
   24306       6   24264   24282   24288       9   24264   24282   24312      12
   24261   24243   24264      13   24261   24243   24267      13   24261   24258
   24273      12   24261   24276   24300       6   24258   24261   24276      10
   24258   24273   24294      10   24249   24270   24291       4   24243   24261
   24258      14   24243   24261   24276      15   24243   24264   24279      15
   24243   24264   24282      14   24243   24267   24285      15   24243   24267
   24288      14   24240   24216   24243      14   24240   24258   24261       9
   24240   24258   24273       9   24234   24249   24270       5   24228   24249
   24234       6   24228   24249   24270       5   24222   24240   24258       9
   24216   24240   24222      12   24216   24240   24258       9   24216   24243
   24261      13   24216   24243   24264      13   24216   24243   24267      13
   24213   24234   24249       6   24210   24201   24213       6   24210   24228
   24249       6   24207   24222   24240      10   24204   24198   24207       6
   24204   24216   24240      10   24204   24216   24243      15   24201   24210
   24228       6   24201   24213   24234       6   24198   24195   24201       7
   24198   24204   24216       6   24198   24207   24222       6   24195   24198
   24204       8   24195   24198   24207       8   24195   24201   24210       8
   24195   24201   24213       8   24186   24195   24198       7   24186   24195
   24201       7   24180   24186   24195       8   24174   24186   24180       6
   24174   24186   24195       8   24162   24180   24186       6   24159   24153
   24162       6   24159   24174   24186       6   24153   24150   24156       4
   24153   24159   24174       6   24153   24162   24180       6   24150   24153
   24159       5   24150   24153   24162       5   25017   25041   25059       4
   25008   25038   25056       4   24999   25035   25053       4   24993   25032
   25050       4   24981   25029   25047       4   24972   25026   25044       4
   24966   25017   25041       5   24960   25017   24966       6   24960   25017
   25041       5   24954   25008   25038       5   24948   25008   24954       6
   24948   25008   25038       5   24942   24999   25035       5   24936   24999
   24942       6   24936   24999   25035       5   24930   24993   25032       5
   24924   24993   24930       6   24924   24993   25032       5   24921   24981
   25029       5   24915   24981   24921       6   24915   24981   25029       5
   24906   24972   25026       5   24900   24972   24906       6   24900   24972
   25026       5   24897   24966   25017       6   24894   24858   24897       6
   24894   24960   25017       6   24891   24954   25008       6   24888   24855
   24891       6   24888   24948   25008       6   24885   24942   24999       6
   24882   24849   24885       6   24882   24936   24999       6   24879   24930
   24993       6   24876   24846   24879       6   24876   24924   24993       6
   24873   24921   24981       6   24870   24843   24873       6   24870   24915
   24981       6   24867   24906   24972       6   24864   24840   24867       6
   24864   24900   24972       6   24858   24894   24960       6   24858   24897
   24966       6   24855   24831   24858       7   24855   24888   24948       6
   24855   24891   24954       6   24849   24882   24936       6   24849   24885
   24942       6   24846   24822   24849       7   24846   24876   24924       6
   24846   24879   24930       6   24843   24870   24915       6   24843   24873
   24921       6   24840   24819   24843       7   24840   24864   24900       6
   24840   24867   24906       6   24831   24801   24834       8   24831   24855
   24888       8   24831   24855   24891       8   24831   24858   24894       8
   24831   24858   24897       8   24822   24789   24825       8   24822   24846
   24876       8   24822   24846   24879       8   24822   24849   24882       8
   24822   24849   24885       8   24819   24840   24864       8   24819   24840
   24867       8   24819   24843   24870       8   24819   24843   24873       8
   24801   24831   24855       7   24801   24831   24858       7   24801   24834
   24804       6   24789   24822   24846       7   24789   24822   24849       7
   24789   24825   24795       6   24783   24819   24840       7   24783   24819
   24843       7   24777   24783   24819       8   24771   24765   24795       9
   24771   24804   24834      10   24768   24750   24771      10   24768   24801
   24831       8   24768   24801   24834       6   24765   24771   24804       9
   24765   24795   24825      10   24762   24747   24765      10   24762   24789
   24822       8   24762   24789   24825       6   24759   24783   24777       6
   24759   24783   24819       8   24756   24777   24783       6   24750   24768
   24801       6   24750   24771   24765       9   24750   24771   24804      12
   24747   24726   24750      13   24747   24762   24789       6   24747   24765
   24771       9   24747   24765   24795      12   24744   24726   24747      13
   24744   24726   24750      13   24744   24741   24756      12   24744   24759
   24783       6   24741   24744   24759      10   24741   24756   24777      10
   24732   24753   24774       4   24726   24744   24741      14   24726   24744
   24759      15   24726   24747   24762      15   24726   24747   24765      14
   24726   24750   24768      15   24726   24750   24771      14   24723   24699
   24726      14   24723   24741   24744       9   24723   24741   24756       9
   24717   24732   24753       5   24711   24732   24717       6   24711   24732
   24753       5   24705   24723   24741       9   24699   24723   24705      12
   24699   24723   24741       9   24699   24726   24744      13   24699   24726
   24747      13   24699   24726   24750      13   24696   24717   24732       6
   24693   24684   24696       6   24693   24711   24732       6   24690   24705
   24723      10   24687   24681   24690       6   24687   24699   24723      10
   24687   24699   24726      15   24684   24693   24711       6   24684   24696
   24717       6   24681   24678   24684       7   24681   24687   24699       6
   24681   24690   24705       6   24678   24681   24687       8   24678   24681
   24690       8   24678   24684   24693       8   24678   24684   24696       8
   24669   24678   24681       7   24669   24678   24684       7   24663   24669
   24678       8   24657   24669   24663       6   24657   24669   24678       8
   24645   24663   24669       6   24642   24636   24645       6   24642   24657
   24669       6   24636   24633   24639       4   24636   24642   24657       6
   24636   24645   24663       6   24633   24636   24642       5   24633   24636
   24645       5   25500   25524   25542       4   25491   25521   25539       4
   25482   25518   25536       4   25476   25515   25533       4   25464   25512
   25530       4   25455   25509   25527       4   25449   25500   25524       5
   25443   25500   25449       6   25443   25500   25524       5   25437   25491
   25521       5   25431   25491   25437       6   25431   25491   25521       5
   25425   25482   25518       5   25419   25482   25425       6   25419   25482
   25518       5   25413   25476   25515       5   25407   25476   25413       6
   25407   25476   25515       5   25404   25464   25512       5   25398   25464
   25404       6   25398   25464   25512       5   25389   25455   25509       5
   25383   25455   25389       6   25383   25455   25509       5   25380   25449
   25500       6   25377   25341   25380       6   25377   25443   25500       6
   25374   25437   25491       6   25371   25338   25374       6   25371   25431
   25491       6   25368   25425   25482       6   25365   25332   25368       6
   25365   25419   25482       6   25362   25413   25476       6   25359   25329
   25362       6   25359   25407   25476       6   25356   25404   25464       6
   25353   25326   25356       6   25353   25398   25464       6   25350   25389
   25455       6   25347   25323   25350       6   25347   25383   25455       6
   25341   25377   25443       6   25341   25380   25449       6   25338   25314
   25341       7   25338   25371   25431       6   25338   25374   25437       6
   25332   25365   25419       6   25332   25368   25425       6   25329   25305
   25332       7   25329   25359   25407       6   25329   25362   25413       6
   25326   25353   25398       6   25326   25356   25404       6   25323   25302
   25326       7   25323   25347   25383       6   25323   25350   25389       6
   25314   25284   25317       8   25314   25338   25371       8   25314   25338
   25374       8   25314   25341   25377       8   25314   25341   25380       8
   25305   25272   25308       8   25305   25329   25359       8   25305   25329
   25362       8   25305   25332   25365       8   25305   25332   25368       8
   25302   25323   25347       8   25302   25323   25350       8   25302   25326
   25353       8   25302   25326   25356       8   25284   25314   25338       7
   25284   25314   25341       7   25284   25317   25287       6   25272   25305
   25329       7   25272   25305   25332       7   25272   25308   25278       6
   25266   25302   25323       7   25266   25302   25326       7   25260   25266
   25302       8   25254   25248   25278       9   25254   25287   25317      10
   25251   25233   25254      10   25251   25284   25314       8   25251   25284
   25317       6   25248   25254   25287       9   25248   25278   25308      10
   25245   25230   25248      10   25245   25272   25305       8   25245   25272
   25308       6   25242   25266   25260       6   25242   25266   25302       8
   25239   25260   25266       6   25233   25251   25284       6   25233   25254
   25248       9   25233   25254   25287      12   25230   25209   25233      13
   25230   25245   25272       6   25230   25248   25254       9   25230   25248
   25278      12   25227   25209   25230      13   25227   25209   25233      13
   25227   25224   25239      12   25227   25242   25266       6   25224   25227
   25242      10   25224   25239   25260      10   25215   25236   25257       4
   25209   25227   25224      14   25209   25227   25242      15   25209   25230
   25245      15   25209   25230   25248      14   25209   25233   25251      15
   25209   25233   25254      14   25206   25182   25209      14   25206   25224
   25227       9   25206   25224   25239       9   25200   25215   25236       5
   25194   25215   25200       6   25194   25215   25236       5   25188   25206
   25224       9   25182   25206   25188      12   25182   25206   25224       9
   25182   25209   25227      13   25182   25209   25230      13   25182   25209
   25233      13   25179   25200   25215       6   25176   25167   25179       6
   25176   25194   25215       6   25173   25188   25206      10   25170   25164
   25173       6   25170   25182   25206      10   25170   25182   25209      15
   25167   25176   25194       6   25167   25179   25200       6   25164   25161
   25167       7   25164   25170   25182       6   25164   25173   25188       6
   25161   25164   25170       8   25161   25164   25173       8   25161   25167
   25176       8   25161   25167   25179       8   25152   25161   25164       7
   25152   25161   25167       7   25146   25152   25161       8   25140   25152
   25146       6   25140   25152   25161       8   25128   25146   25152       6
   25125   25119   25128       6   25125   25140   25152       6   25119   25116
   25122       4   25119   25125   25140       6   25119   25128   25146       6
   25116   25119   25125       5   25116   25119   25128       5   25983   26007
   26025       4   25974   26004   26022       4   25965   26001   26019       4
   25959   25998   26016       4   25947   25995   26013       4   25938   25992
   26010       4   25932   25983   26007       5   25926   25983   25932       6
   25926   25983   26007       5   25920   25974   26004       5   25914   25974
   25920       6   25914   25974   26004       5   25908   25965   26001       5
   25902   25965   25908       6   25902   25965   26001       5   25896   25959
   25998       5   25890   25959   25896       6   25890   25959   25998       5
   25887   25947   25995       5   25881   25947   25887       6   25881   25947
   25995       5   25872   25938   25992       5   25866   25938   25872       6
   25866   25938   25992       5   25863   25932   25983       6   25860   25824
   25863       6   25860   25926   25983       6   25857   25920   25974       6
   25854   25821   25857       6   25854   25914   25974       6   25851   25908
   25965       6   25848   25815   25851       6   25848   25902   25965       6
   25845   25896   25959       6   25842   25812   25845       6   25842   25890
   25959       6   25839   25887   25947       6   25836   25809   25839       6
   25836   25881   25947       6   25833   25872   25938       6   25830   25806
   25833       6   25830   25866   25938       6   25824   25860   25926       6
   25824   25863   25932       6   25821   25797   25824       7   25821   25854
   25914       6   25821   25857   25920       6   25815   25848   25902       6
   25815   25851   25908       6   25812   25788   25815       7   25812   25842
   25890       6   25812   25845   25896       6   25809   25836   25881       6
   25809   25839   25887       6   25806   25785   25809       7   25806   25830
   25866       6   25806   25833   25872       6   25797   25767   25800       8
   25797   25821   25854       8   25797   25821   25857       8   25797   25824
   25860       8   25797   25824   25863       8   25788   25755   25791       8
   25788   25812   25842       8   25788   25812   25845       8   25788   25815
   25848       8   25788   25815   25851       8   25785   25806   25830       8
   25785   25806   25833       8   25785   25809   25836       8   25785   25809
   25839       8   25767   25797   25821       7   25767   25797   25824       7
   25767   25800   25770       6   25755   25788   25812       7   25755   25788
   25815       7   25755   25791   25761       6   25749   25785   25806       7
   25749   25785   25809       7   25743   25749   25785       8   25737   25731
   25761       9   25737   25770   25800      10   25734   25716   25737      10
   25734   25767   25797       8   25734   25767   25800       6   25731   25737
   25770       9   25731   25761   25791      10   25728   25713   25731      10
   25728   25755   25788       8   25728   25755   25791       6   25725   25749
   25743       6   25725   25749   25785       8   25722   25743   25749       6
   25716   25734   25767       6   25716   25737   25731       9   25716   25737
   25770      12   25713   25692   25716      13   25713   25728   25755       6
   25713   25731   25737       9   25713   25731   25761      12   25710   25692
   25713      13   25710   25692   25716      13   25710   25707   25722      12
   25710   25725   25749       6   25707   25710   25725      10   25707   25722
   25743      10   25698   25719   25740       4   25692   25710   25707      14
   25692   25710   25725      15   25692   25713   25728      15   25692   25713
   25731      14   25692   25716   25734      15   25692   25716   25737      14
   25689   25665   25692      14   25689   25707   25710       9   25689   25707
   25722       9   25683   25698   25719       5   25677   25698   25683       6
   25677   25698   25719       5   25671   25689   25707       9   25665   25689
   25671      12   25665   25689   25707       9   25665   25692   25710      13
   25665   25692   25713      13   25665   25692   25716      13   25662   25683
   25698       6   25659   25650   25662       6   25659   25677   25698       6
   25656   25671   25689      10   25653   25647   25656       6   25653   25665
   25689      10   25653   25665   25692      15   25650   25659   25677       6
   25650   25662   25683       6   25647   25644   25650       7   25647   25653
   25665       6   25647   25656   25671       6   25644   25647   25653       8
   25644   25647   25656       8   25644   25650   25659       8   25644   25650
   25662       8   25635   25644   25647       7   25635   25644   25650       7
   25629   25635   25644       8   25623   25635   25629       6   25623   25635
   25644       8   25611   25629   25635       6   25608   25602   25611       6
   25608   25623   25635       6   25602   25599   25605       4   25602   25608
   25623       6   25602   25611   25629       6   25599   25602   25608       5
   25599   25602   25611       5   26466   26490   26508       4   26457   26487
   26505       4   26448   26484   26502       4   26442   26481   26499       4
   26430   26478   26496       4   26421   26475   26493       4   26415   26466
   26490       5   26409   26466   26415       6   26409   26466   26490       5
   26403   26457   26487       5   26397   26457   26403       6   26397   26457
   26487       5   26391   26448   26484       5   26385   26448   26391       6
   26385   26448   26484       5   26379   26442   26481       5   26373   26442
   26379       6   26373   26442   26481       5   26370   26430   26478       5
   26364   26430   26370       6   26364   26430   26478       5   26355   26421
   26475       5   26349   26421   26355       6   26349   26421   26475       5
   26346   26415   26466       6   26343   26307   26346       6   26343   26409
   26466       6   26340   26403   26457       6   26337   26304   26340       6
   26337   26397   26457       6   26334   26391   26448       6   26331   26298
   26334       6   26331   26385   26448       6   26328   26379   26442       6
   26325   26295   26328       6   26325   26373   26442       6   26322   26370
   26430       6   26319   26292   26322       6   26319   26364   26430       6
   26316   26355   26421       6   26313   26289   26316       6   26313   26349
   26421       6   26307   26343   26409       6   26307   26346   26415       6
   26304   26280   26307       7   26304   26337   26397       6   26304   26340
   26403       6   26298   26331   26385       6   26298   26334   26391       6
   26295   26271   26298       7   26295   26325   26373       6   26295   26328
   26379       6   26292   26319   26364       6   26292   26322   26370       6
   26289   26268   26292       7   26289   26313   26349       6   26289   26316
   26355       6   26280   26250   26283       8   26280   26304   26337       8
   26280   26304   26340       8   26280   26307   26343       8   26280   26307
   26346       8   26271   26238   26274       8   26271   26295   26325       8
   26271   26295   26328       8   26271   26298   26331       8   26271   26298
   26334       8   26268   26289   26313       8   26268   26289   26316       8
   26268   26292   26319       8   26268   26292   26322       8   26250   26280
   26304       7   26250   26280   26307       7   26250   26283   26253       6
   26238   26271   26295       7   26238   26271   26298       7   26238   26274
   26244       6   26232   26268   26289       7   26232   26268   26292       7
   26226   26232   26268       8   26220   26214   26244       9   26220   26253
   26283      10   26217   26199   26220      10   26217   26250   26280       8
   26217   26250   26283       6   26214   26220   26253       9   26214   26244
   26274      10   26211   26196   26214      10   26211   26238   26271       8
   26211   26238   26274       6   26208   26232   26226       6   26208   26232
   26268       8   26205   26226   26232       6   26199   26217   26250       6
   26199   26220   26214       9   26199   26220   26253      12   26196   26175
   26199      13   26196   26211   26238       6   26196   26214   26220       9
   26196   26214   26244      12   26193   26175   26196      13   26193   26175
   26199      13   26193   26190   26205      12   26193   26208   26232       6
   26190   26193   26208      10   26190   26205   26226      10   26181   26202
   26223       4   26175   26193   26190      14   26175   26193   26208      15
   26175   26196   26211      15   26175   26196   26214      14   26175   26199
   26217      15   26175   26199   26220      14   26172   26148   26175      14
   26172   26190   26193       9   26172   26190   26205       9   26166   26181
   26202       5   26160   26181   26166       6   26160   26181   26202       5
   26154   26172   26190       9   26148   26172   26154      12   26148   26172
   26190       9   26148   26175   26193      13   26148   26175   26196      13
   26148   26175   26199      13   26145   26166   26181       6   26142   26133
   26145       6   26142   26160   26181       6   26139   26154   26172      10
   26136   26130   26139       6   26136   26148   26172      10   26136   26148
   26175      15   26133   26142   26160       6   26133   26145   26166       6
   26130   26127   26133       7   26130   26136   26148       6   26130   26139
   26154       6   26127   26130   26136       8   26127   26130   26139       8
   26127   26133   26142       8   26127   26133   26145       8   26118   26127
   26130       7   26118   26127   26133       7   26112   26118   26127       8
   26106   26118   26112       6   26106   26118   26127       8   26094   26112
   26118       6   26091   26085   26094       6   26091   26106   26118       6
   26085   26082   26088       4   26085   26091   26106       6   26085   26094
   26112       6   26082   26085   26091       5   26082   26085   26094       5
   26949   26973   26991       4   26940   26970   26988       4   26931   26967
   26985       4   26925   26964   26982       4   26913   26961   26979       4
   26904   26958   26976       4   26898   26949   26973       5   26892   26949
   26898       6   26892   26949   26973       5   26886   26940   26970       5
   26880   26940   26886       6   26880   26940   26970       5   26874   26931
   26967       5   26868   26931   26874       6   26868   26931   26967       5
   26862   26925   26964       5   26856   26925   26862       6   26856   26925
   26964       5   26853   26913   26961       5   26847   26913   26853       6
   26847   26913   26961       5   26838   26904   26958       5   26832   26904
   26838       6   26832   26904   26958       5   26829   26898   26949       6
   26826   26790   26829       6   26826   26892   26949       6   26823   26886
   26940       6   26820   26787   26823       6   26820   26880   26940       6
   26817   26874   26931       6   26814   26781   26817       6   26814   26868
   26931       6   26811   26862   26925       6   26808   26778   26811       6
   26808   26856   26925       6   26805   26853   26913       6   26802   26775
   26805       6   26802   26847   26913       6   26799   26838   26904       6
   26796   26772   26799       6   26796   26832   26904       6   26790   26826
   26892       6   26790   26829   26898       6   26787   26763   26790       7
   26787   26820   26880       6   26787   26823   26886       6   26781   26814
   26868       6   26781   26817   26874       6   26778   26754   26781       7
   26778   26808   26856       6   26778   26811   26862       6   26775   26802
   26847       6   26775   26805   26853       6   26772   26751   26775       7
   26772   26796   26832       6   26772   26799   26838       6   26763   26733
   26766       8   26763   26787   26820       8   26763   26787   26823       8
   26763   26790   26826       8   26763   26790   26829       8   26754   26721
   26757       8   26754   26778   26808       8   26754   26778   26811       8
   26754   26781   26814       8   26754   26781   26817       8   26751   26772
   26796       8   26751   26772   26799       8   26751   26775   26802       8
   26751   26775   26805       8   26733   26763   26787       7   26733   26763
   26790       7   26733   26766   26736       6   26721   26754   26778       7
   26721   26754   26781       7   26721   26757   26727       6   26715   26751
   26772       7   26715   26751   26775       7   26709   26715   26751       8
   26703   26697   26727       9   26703   26736   26766      10   26700   26682
   26703      10   26700   26733   26763       8   26700   26733   26766       6
   26697   26703   26736       9   26697   26727   26757      10   26694   26679
   26697      10   26694   26721   26754       8   26694   26721   26757       6
   26691   26715   26709       6   26691   26715   26751       8   26688   26709
   26715       6   26682   26700   26733       6   26682   26703   26697       9
   26682   26703   26736      12   26679   26658   26682      13   26679   26694
   26721       6   26679   26697   26703       9   26679   26697   26727      12
   26676   26658   26679      13   26676   26658   26682      13   26676   26673
   26688      12   26676   26691   26715       6   26673   26676   26691      10
   26673   26688   26709      10   26664   26685   26706       4   26658   26676
   26673      14   26658   26676   26691      15   26658   26679   26694      15
   26658   26679   26697      14   26658   26682   26700      15   26658   26682
   26703      14   26655   26631   26658      14   26655   26673   26676       9
   26655   26673   26688       9   26649   26664   26685       5   26643   26664
   26649       6   26643   26664   26685       5   26637   26655   26673       9
   26631   26655   26637      12   26631   26655   26673       9   26631   26658
   26676      13   26631   26658   26679      13   26631   26658   26682      13
   26628   26649   26664       6   26625   26616   26628       6   26625   26643
   26664       6   26622   26637   26655      10   26619   26613   26622       6
   26619   26631   26655      10   26619   26631   26658      15   26616   26625
   26643       6   26616   26628   26649       6   26613   26610   26616       7
   26613   26619   26631       6   26613   26622   26637       6   26610   26613
   26619       8   26610   26613   26622       8   26610   26616   26625       8
   26610   26616   26628       8   26601   26610   26613       7   26601   26610
   26616       7   26595   26601   26610       8   26589   26601   26595       6
   26589   26601   26610       8   26577   26595   26601       6   26574   26568
   26577       6   26574   26589   26601       6   26568   26565   26571       4
   26568   26574   26589       6   26568   26577   26595       6   26565   26568
   26574       5   26565   26568   26577       5   27432   27456   27474       4
   27423   27453   27471       4   27414   27450   27468       4   27408   27447
   27465       4   27396   27444   27462       4   27387   27441   27459       4
   27381   27432   27456       5   27375   27432   27381       6   27375   27432
   27456       5   27369   27423   27453       5   27363   27423   27369       6
   27363   27423   27453       5   27357   27414   27450       5   27351   27414
   27357       6   27351   27414   27450       5   27345   27408   27447       5
   27339   27408   27345       6   27339   27408   27447       5   27336   27396
   27444       5   27330   27396   27336       6   27330   27396   27444       5
   27321   27387   27441       5   27315   27387   27321       6   27315   27387
   27441       5   27312   27381   27432       6   27309   27273   27312       6
   27309   27375   27432       6   27306   27369   27423       6   27303   27270
   27306       6   27303   27363   27423       6   27300   27357   27414       6
   27297   27264   27300       6   27297   27351   27414       6   27294   27345
   27408       6   27291   27261   27294       6   27291   27339   27408       6
   27288   27336   27396       6   27285   27258   27288       6   27285   27330
   27396       6   27282   27321   27387       6   27279   27255   27282       6
   27279   27315   27387       6   27273   27309   27375       6   27273   27312
   27381       6   27270   27246   27273       7   27270   27303   27363       6
   27270   27306   27369       6   27264   27297   27351       6   27264   27300
   27357       6   27261   27237   27264       7   27261   27291   27339       6
   27261   27294   27345       6   27258   27285   27330       6   27258   27288
   27336       6   27255   27234   27258       7   27255   27279   27315       6
   27255   27282   27321       6   27246   27216   27249       8   27246   27270
   27303       8   27246   27270   27306       8   27246   27273   27309       8
   27246   27273   27312       8   27237   27204   27240       8   27237   27261
   27291       8   27237   27261   27294       8   27237   27264   27297       8
   27237   27264   27300       8   27234   27255   27279       8   27234   27255
   27282       8   27234   27258   27285       8   27234   27258   27288       8
   27216   27246   27270       7   27216   27246   27273       7   27216   27249
   27219       6   27204   27237   27261       7   27204   27237   27264       7
   27204   27240   27210       6   27198   27234   27255       7   27198   27234
   27258       7   27192   27198   27234       8   27186   27180   27210       9
   27186   27219   27249      10   27183   27165   27186      10   27183   27216
   27246       8   27183   27216   27249       6   27180   27186   27219       9
   27180   27210   27240      10   27177   27162   27180      10   27177   27204
   27237       8   27177   27204   27240       6   27174   27198   27192       6
   27174   27198   27234       8   27171   27192   27198       6   27165   27183
   27216       6   27165   27186   27180       9   27165   27186   27219      12
   27162   27141   27165      13   27162   27177   27204       6   27162   27180
   27186       9   27162   27180   27210      12   27159   27141   27162      13
   27159   27141   27165      13   27159   27156   27171      12   27159   27174
   27198       6   27156   27159   27174      10   27156   27171   27192      10
   27147   27168   27189       4   27141   27159   27156      14   27141   27159
   27174      15   27141   27162   27177      15   27141   27162   27180      14
   27141   27165   27183      15   27141   27165   27186      14   27138   27114
   27141      14   27138   27156   27159       9   27138   27156   27171       9
   27132   27147   27168       5   27126   27147   27132       6   27126   27147
   27168       5   27120   27138   27156       9   27114   27138   27120      12
   27114   27138   27156       9   27114   27141   27159      13   27114   27141
   27162      13   27114   27141   27165      13   27111   27132   27147       6
   27108   27099   27111       6   27108   27126   27147       6   27105   27120
   27138      10   27102   27096   27105       6   27102   27114   27138      10
   27102   27114   27141      15   27099   27108   27126       6   27099   27111
   27132       6   27096   27093   27099       7   27096   27102   27114       6
   27096   27105   27120       6   27093   27096   27102       8   27093   27096
   27105       8   27093   27099   27108       8   27093   27099   27111       8
   27084   27093   27096       7   27084   27093   27099       7   27078   27084
   27093       8   27072   27084   27078       6   27072   27084   27093       8
   27060   27078   27084       6   27057   27051   27060       6   27057   27072
   27084       6   27051   27048   27054       4   27051   27057   27072       6
   27051   27060   27078       6   27048   27051   27057       5   27048   27051
   27060       5   27915   27939   27957       4   27906   27936   27954       4
   27897   27933   27951       4   27891   27930   27948       4   27879   27927
   27945       4   27870   27924   27942       4   27864   27915   27939       5
   27858   27915   27864       6   27858   27915   27939       5   27852   27906
   27936       5   27846   27906   27852       6   27846   27906   27936       5
   27840   27897   27933       5   27834   27897   27840       6   27834   27897
   27933       5   27828   27891   27930       5   27822   27891   27828       6
   27822   27891   27930       5   27819   27879   27927       5   27813   27879
   27819       6   27813   27879   27927       5   27804   27870   27924       5
   27798   27870   27804       6   27798   27870   27924       5   27795   27864
   27915       6   27792   27756   27795       6   27792   27858   27915       6
   27789   27852   27906       6   27786   27753   27789       6   27786   27846
   27906       6   27783   27840   27897       6   27780   27747   27783       6
   27780   27834   27897       6   27777   27828   27891       6   27774   27744
   27777       6   27774   27822   27891       6   27771   27819   27879       6
   27768   27741   27771       6   27768   27813   27879       6   27765   27804
   27870       6   27762   27738   27765       6   27762   27798   27870       6
   27756   27792   27858       6   27756   27795   27864       6   27753   27729
   27756       7   27753   27786   27846       6   27753   27789   27852       6
   27747   27780   27834       6   27747   27783   27840       6   27744   27720
   27747       7   27744   27774   27822       6   27744   27777   27828       6
   27741   27768   27813       6   27741   27771   27819       6   27738   27717
   27741       7   27738   27762   27798       6   27738   27765   27804       6
   27729   27699   27732       8   27729   27753   27786       8   27729   27753
   27789       8   27729   27756   27792       8   27729   27756   27795       8
   27720   27687   27723       8   27720   27744   27774       8   27720   27744
   27777       8   27720   27747   27780       8   27720   27747   27783       8
   27717   27738   27762       8   27717   27738   27765       8   27717   27741
   27768       8   27717   27741   27771       8   27699   27729   27753       7
   27699   27729   27756       7   27699   27732   27702       6   27687   27720
   27744       7   27687   27720   27747       7   27687   27723   27693       6
   27681   27717   27738       7   27681   27717   27741       7   27675   27681
   27717       8   27669   27663   27693       9   27669   27702   27732      10
   27666   27648   27669      10   27666   27699   27729       8   27666   27699
   27732       6   27663   27669   27702       9   27663   27693   27723      10
   27660   27645   27663      10   27660   27687   27720       8   27660   27687
   27723       6   27657   27681   27675       6   27657   27681   27717       8
   27654   27675   27681       6   27648   27666   27699       6   27648   27669
   27663       9   27648   27669   27702      12   27645   27624   27648      13
   27645   27660   27687       6   27645   27663   27669       9   27645   27663
   27693      12   27642   27624   27645      13   27642   27624   27648      13
   27642   27639   27654      12   27642   27657   27681       6   27639   27642
   27657      10   27639   27654   27675      10   27630   27651   27672       4
   27624   27642   27639      14   27624   27642   27657      15   27624   27645
   27660      15   27624   27645   27663      14   27624   27648   27666      15
   27624   27648   27669      14   27621   27597   27624      14   27621   27639
   27642       9   27621   27639   27654       9   27615   27630   27651       5
   27609   27630   27615       6   27609   27630   27651       5   27603   27621
   27639       9   27597   27621   27603      12   27597   27621   27639       9
   27597   27624   27642      13   27597   27624   27645      13   27597   27624
   27648      13   27594   27615   27630       6   27591   27582   27594       6
   27591   27609   27630       6   27588   27603   27621      10   27585   27579
   27588       6   27585   27597   27621      10   27585   27597   27624      15
   27582   27591   27609       6   27582   27594   27615       6   27579   27576
   27582       7   27579   27585   27597       6   27579   27588   27603       6
   27576   27579   27585       8   27576   27579   27588       8   27576   27582
   27591       8   27576   27582   27594       8   27567   27576   27579       7
   27567   27576   27582       7   27561   27567   27576       8   27555   27567
   27561       6   27555   27567   27576       8   27543   27561   27567       6
   27540   27534   27543       6   27540   27555   27567       6   27534   27531
   27537       4   27534   27540   27555       6   27534   27543   27561       6
   27531   27534   27540       5   27531   27534   27543       5   28398   28422
   28440       4   28389   28419   28437       4   28380   28416   28434       4
   28374   28413   28431       4   28362   28410   28428       4   28353   28407
   28425       4   28347   28398   28422       5   28341   28398   28347       6
   28341   28398   28422       5   28335   28389   28419       5   28329   28389
   28335       6   28329   28389   28419       5   28323   28380   28416       5
   28317   28380   28323       6   28317   28380   28416       5   28311   28374
   28413       5   28305   28374   28311       6   28305   28374   28413       5
   28302   28362   28410       5   28296   28362   28302       6   28296   28362
   28410       5   28287   28353   28407       5   28281   28353   28287       6
   28281   28353   28407       5   28278   28347   28398       6   28275   28239
   28278       6   28275   28341   28398       6   28272   28335   28389       6
   28269   28236   28272       6   28269   28329   28389       6   28266   28323
   28380       6   28263   28230   28266       6   28263   28317   28380       6
   28260   28311   28374       6   28257   28227   28260       6   28257   28305
   28374       6   28254   28302   28362       6   28251   28224   28254       6
   28251   28296   28362       6   28248   28287   28353       6   28245   28221
   28248       6   28245   28281   28353       6   28239   28275   28341       6
   28239   28278   28347       6   28236   28212   28239       7   28236   28269
   28329       6   28236   28272   28335       6   28230   28263   28317       6
   28230   28266   28323       6   28227   28203   28230       7   28227   28257
   28305       6   28227   28260   28311       6   28224   28251   28296       6
   28224   28254   28302       6   28221   28200   28224       7   28221   28245
   28281       6   28221   28248   28287       6   28212   28182   28215       8
   28212   28236   28269       8   28212   28236   28272       8   28212   28239
   28275       8   28212   28239   28278       8   28203   28170   28206       8
   28203   28227   28257       8   28203   28227   28260       8   28203   28230
   28263       8   28203   28230   28266       8   28200   28221   28245       8
   28200   28221   28248       8   28200   28224   28251       8   28200   28224
   28254       8   28182   28212   28236       7   28182   28212   28239       7
   28182   28215   28185       6   28170   28203   28227       7   28170   28203
   28230       7   28170   28206   28176       6   28164   28200   28221       7
   28164   28200   28224       7   28158   28164   28200       8   28152   28146
   28176       9   28152   28185   28215      10   28149   28131   28152      10
   28149   28182   28212       8   28149   28182   28215       6   28146   28152
   28185       9   28146   28176   28206      10   28143   28128   28146      10
   28143   28170   28203       8   28143   28170   28206       6   28140   28164
   28158       6   28140   28164   28200       8   28137   28158   28164       6
   28131   28149   28182       6   28131   28152   28146       9   28131   28152
   28185      12   28128   28107   28131      13   28128   28143   28170       6
   28128   28146   28152       9   28128   28146   28176      12   28125   28107
   28128      13   28125   28107   28131      13   28125   28122   28137      12
   28125   28140   28164       6   28122   28125   28140      10   28122   28137
   28158      10   28113   28134   28155       4   28107   28125   28122      14
   28107   28125   28140      15   28107   28128   28143      15   28107   28128
   28146      14   28107   28131   28149      15   28107   28131   28152      14
   28104   28080   28107      14   28104   28122   28125       9   28104   28122
   28137       9   28098   28113   28134       5   28092   28113   28098       6
   28092   28113   28134       5   28086   28104   28122       9   28080   28104
   28086      12   28080   28104   28122       9   28080   28107   28125      13
   28080   28107   28128      13   28080   28107   28131      13   28077   28098
   28113       6   28074   28065   28077       6   28074   28092   28113       6
   28071   28086   28104      10   28068   28062   28071       6   28068   28080
   28104      10   28068   28080   28107      15   28065   28074   28092       6
   28065   28077   28098       6   28062   28059   28065       7   28062   28068
   28080       6   28062   28071   28086       6   28059   28062   28068       8
   28059   28062   28071       8   28059   28065   28074       8   28059   28065
   28077       8   28050   28059   28062       7   28050   28059   28065       7
   28044   28050   28059       8   28038   28050   28044       6   28038   28050
   28059       8   28026   28044   28050       6   28023   28017   28026       6
   28023   28038   28050       6   28017   28014   28020       4   28017   28023
   28038       6   28017   28026   28044       6   28014   28017   28023       5
   28014   28017   28026       5   28881   28905   28923       4   28872   28902
   28920       4   28863   28899   28917       4   28857   28896   28914       4
   28845   28893   28911       4   28836   28890   28908       4   28830   28881
   28905       5   28824   28881   28830       6   28824   28881   28905       5
   28818   28872   28902       5   28812   28872   28818       6   28812   28872
   28902       5   28806   28863   28899       5   28800   28863   28806       6
   28800   28863   28899       5   28794   28857   28896       5   28788   28857
   28794       6   28788   28857   28896       5   28785   28845   28893       5
   28779   28845   28785       6   28779   28845   28893       5   28770   28836
   28890       5   28764   28836   28770       6   28764   28836   28890       5
   28761   28830   28881       6   28758   28722   28761       6   28758   28824
   28881       6   28755   28818   28872       6   28752   28719   28755       6
   28752   28812   28872       6   28749   28806   28863       6   28746   28713
   28749       6   28746   28800   28863       6   28743   28794   28857       6
   28740   28710   28743       6   28740   28788   28857       6   28737   28785
   28845       6   28734   28707   28737       6   28734   28779   28845       6
   28731   28770   28836       6   28728   28704   28731       6   28728   28764
   28836       6   28722   28758   28824       6   28722   28761   28830       6
   28719   28695   28722       7   28719   28752   28812       6   28719   28755
   28818       6   28713   28746   28800       6   28713   28749   28806       6
   28710   28686   28713       7   28710   28740   28788       6   28710   28743
   28794       6   28707   28734   28779       6   28707   28737   28785       6
   28704   28683   28707       7   28704   28728   28764       6   28704   28731
   28770       6   28695   28665   28698       8   28695   28719   28752       8
   28695   28719   28755       8   28695   28722   28758       8   28695   28722
   28761       8   28686   28653   28689       8   28686   28710   28740       8
   28686   28710   28743       8   28686   28713   28746       8   28686   28713
   28749       8   28683   28704   28728       8   28683   28704   28731       8
   28683   28707   28734       8   28683   28707   28737       8   28665   28695
   28719       7   28665   28695   28722       7   28665   28698   28668       6
   28653   28686   28710       7   28653   28686   28713       7   28653   28689
   28659       6   28647   28683   28704       7   28647   28683   28707       7
   28641   28647   28683       8   28635   28629   28659       9   28635   28668
   28698      10   28632   28614   28635      10   28632   28665   28695       8
   28632   28665   28698       6   28629   28635   28668       9   28629   28659
   28689      10   28626   28611   28629      10   28626   28653   28686       8
   28626   28653   28689       6   28623   28647   28641       6   28623   28647
   28683       8   28620   28641   28647       6   28614   28632   28665       6
   28614   28635   28629       9   28614   28635   28668      12   28611   28590
   28614      13   28611   28626   28653       6   28611   28629   28635       9
   28611   28629   28659      12   28608   28590   28611      13   28608   28590
   28614      13   28608   28605   28620      12   28608   28623   28647       6
   28605   28608   28623      10   28605   28620   28641      10   28596   28617
   28638       4   28590   28608   28605      14   28590   28608   28623      15
   28590   28611   28626      15   28590   28611   28629      14   28590   28614
   28632      15   28590   28614   28635      14   28587   28563   28590      14
   28587   28605   28608       9   28587   28605   28620       9   28581   28596
   28617       5   28575   28596   28581       6   28575   28596   28617       5
   28569   28587   28605       9   28563   28587   28569      12   28563   28587
   28605       9   28563   28590   28608      13   28563   28590   28611      13
   28563   28590   28614      13   28560   28581   28596       6   28557   28548
   28560       6   28557   28575   28596       6   28554   28569   28587      10
   28551   28545   28554       6   28551   28563   28587      10   28551   28563
   28590      15   28548   28557   28575       6   28548   28560   28581       6
   28545   28542   28548       7   28545   28551   28563       6   28545   28554
   28569       6   28542   28545   28551       8   28542   28545   28554       8
   28542   28548   28557       8   28542   28548   28560       8   28533   28542
   28545       7   28533   28542   28548       7   28527   28533   28542       8
   28521   28533   28527       6   28521   28533   28542       8   28509   28527
   28533       6   28506   28500   28509       6   28506   28521   28533       6
   28500   28497   28503       4   28500   28506   28521       6   28500   28509
   28527       6   28497   28500   28506       5   28497   28500   28509       5
   29364   29388   29406       4   29355   29385   29403       4   29346   29382
   29400       4   29340   29379   29397       4   29328   29376   29394       4
   29319   29373   29391       4   29313   29364   29388       5   29307   29364
   29313       6   29307   29364   29388       5   29301   29355   29385       5
   29295   29355   29301       6   29295   29355   29385       5   29289   29346
   29382       5   29283   29346   29289       6   29283   29346   29382       5
   29277   29340   29379       5   29271   29340   29277       6   29271   29340
   29379       5   29268   29328   29376       5   29262   29328   29268       6
   29262   29328   29376       5   29253   29319   29373       5   29247   29319
   29253       6   29247   29319   29373       5   29244   29313   29364       6
   29241   29205   29244       6   29241   29307   29364       6   29238   29301
   29355       6   29235   29202   29238       6   29235   29295   29355       6
   29232   29289   29346       6   29229   29196   29232       6   29229   29283
   29346       6   29226   29277   29340       6   29223   29193   29226       6
   29223   29271   29340       6   29220   29268   29328       6   29217   29190
   29220       6   29217   29262   29328       6   29214   29253   29319       6
   29211   29187   29214       6   29211   29247   29319       6   29205   29241
   29307       6   29205   29244   29313       6   29202   29178   29205       7
   29202   29235   29295       6   29202   29238   29301       6   29196   29229
   29283       6   29196   29232   29289       6   29193   29169   29196       7
   29193   29223   29271       6   29193   29226   29277       6   29190   29217
   29262       6   29190   29220   29268       6   29187   29166   29190       7
   29187   29211   29247       6   29187   29214   29253       6   29178   29148
   29181       8   29178   29202   29235       8   29178   29202   29238       8
   29178   29205   29241       8   29178   29205   29244       8   29169   29136
   29172       8   29169   29193   29223       8   29169   29193   29226       8
   29169   29196   29229       8   29169   29196   29232       8   29166   29187
   29211       8   29166   29187   29214       8   29166   29190   29217       8
   29166   29190   29220       8   29148   29178   29202       7   29148   29178
   29205       7   29148   29181   29151       6   29136   29169   29193       7
   29136   29169   29196       7   29136   29172   29142       6   29130   29166
   29187       7   29130   29166   29190       7   29124   29130   29166       8
   29118   29112   29142       9   29118   29151   29181      10   29115   29097
   29118      10   29115   29148   29178       8   29115   29148   29181       6
   29112   29118   29151       9   29112   29142   29172      10   29109   29094
   29112      10   29109   29136   29169       8   29109   29136   29172       6
   29106   29130   29124       6   29106   29130   29166       8   29103   29124
   29130       6   29097   29115   29148       6   29097   29118   29112       9
   29097   29118   29151      12   29094   29073   29097      13   29094   29109
   29136       6   29094   29112   29118       9   29094   29112   29142      12
   29091   29073   29094      13   29091   29073   29097      13   29091   29088
   29103      12   29091   29106   29130       6   29088   29091   29106      10
   29088   29103   29124      10   29079   29100   29121       4   29073   29091
   29088      14   29073   29091   29106      15   29073   29094   29109      15
   29073   29094   29112      14   29073   29097   29115      15   29073   29097
   29118      14   29070   29046   29073      14   29070   29088   29091       9
   29070   29088   29103       9   29064   29079   29100       5   29058   29079
   29064       6   29058   29079   29100       5   29052   29070   29088       9
   29046   29070   29052      12   29046   29070   29088       9   29046   29073
   29091      13   29046   29073   29094      13   29046   29073   29097      13
   29043   29064   29079       6   29040   29031   29043       6   29040   29058
   29079       6   29037   29052   29070      10   29034   29028   29037       6
   29034   29046   29070      10   29034   29046   29073      15   29031   29040
   29058       6   29031   29043   29064       6   29028   29025   29031       7
   29028   29034   29046       6   29028   29037   29052       6   29025   29028
   29034       8   29025   29028   29037       8   29025   29031   29040       8
   29025   29031   29043       8   29016   29025   29028       7   29016   29025
   29031       7   29010   29016   29025       8   29004   29016   29010       6
   29004   29016   29025       8   28992   29010   29016       6   28989   28983
   28992       6   28989   29004   29016       6   28983   28980   28986       4
   28983   28989   29004       6   28983   28992   29010       6   28980   28983
   28989       5   28980   28983   28992       5   29847   29871   29889       4
   29838   29868   29886       4   29829   29865   29883       4   29823   29862
   29880       4   29811   29859   29877       4   29802   29856   29874       4
   29796   29847   29871       5   29790   29847   29796       6   29790   29847
   29871       5   29784   29838   29868       5   29778   29838   29784       6
   29778   29838   29868       5   29772   29829   29865       5   29766   29829
   29772       6   29766   29829   29865       5   29760   29823   29862       5
   29754   29823   29760       6   29754   29823   29862       5   29751   29811
   29859       5   29745   29811   29751       6   29745   29811   29859       5
   29736   29802   29856       5   29730   29802   29736       6   29730   29802
   29856       5   29727   29796   29847       6   29724   29688   29727       6
   29724   29790   29847       6   29721   29784   29838       6   29718   29685
   29721       6   29718   29778   29838       6   29715   29772   29829       6
   29712   29679   29715       6   29712   29766   29829       6   29709   29760
   29823       6   29706   29676   29709       6   29706   29754   29823       6
   29703   29751   29811       6   29700   29673   29703       6   29700   29745
   29811       6   29697   29736   29802       6   29694   29670   29697       6
   29694   29730   29802       6   29688   29724   29790       6   29688   29727
   29796       6   29685   29661   29688       7   29685   29718   29778       6
   29685   29721   29784       6   29679   29712   29766       6   29679   29715
   29772       6   29676   29652   29679       7   29676   29706   29754       6
   29676   29709   29760       6   29673   29700   29745       6   29673   29703
   29751       6   29670   29649   29673       7   29670   29694   29730       6
   29670   29697   29736       6   29661   29631   29664       8   29661   29685
   29718       8   29661   29685   29721       8   29661   29688   29724       8
   29661   29688   29727       8   29652   29619   29655       8   29652   29676
   29706       8   29652   29676   29709       8   29652   29679   29712       8
   29652   29679   29715       8   29649   29670   29694       8   29649   29670
   29697       8   29649   29673   29700       8   29649   29673   29703       8
   29631   29661   29685       7   29631   29661   29688       7   29631   29664
   29634       6   29619   29652   29676       7   29619   29652   29679       7
   29619   29655   29625       6   29613   29649   29670       7   29613   29649
   29673       7   29607   29613   29649       8   29601   29595   29625       9
   29601   29634   29664      10   29598   29580   29601      10   29598   29631
   29661       8   29598   29631   29664       6   29595   29601   29634       9
   29595   29625   29655      10   29592   29577   29595      10   29592   29619
   29652       8   29592   29619   29655       6   29589   29613   29607       6
   29589   29613   29649       8   29586   29607   29613       6   29580   29598
   29631       6   29580   29601   29595       9   29580   29601   29634      12
   29577   29556   29580      13   29577   29592   29619       6   29577   29595
   29601       9   29577   29595   29625      12   29574   29556   29577      13
   29574   29556   29580      13   29574   29571   29586      12   29574   29589
   29613       6   29571   29574   29589      10   29571   29586   29607      10
   29562   29583   29604       4   29556   29574   29571      14   29556   29574
   29589      15   29556   29577   29592      15   29556   29577   29595      14
   29556   29580   29598      15   29556   29580   29601      14   29553   29529
   29556      14   29553   29571   29574       9   29553   29571   29586       9
   29547   29562   29583       5   29541   29562   29547       6   29541   29562
   29583       5   29535   29553   29571       9   29529   29553   29535      12
   29529   29553   29571       9   29529   29556   29574      13   29529   29556
   29577      13   29529   29556   29580      13   29526   29547   29562       6
   29523   29514   29526       6   29523   29541   29562       6   29520   29535
   29553      10   29517   29511   29520       6   29517   29529   29553      10
   29517   29529   29556      15   29514   29523   29541       6   29514   29526
   29547       6   29511   29508   29514       7   29511   29517   29529       6
   29511   29520   29535       6   29508   29511   29517       8   29508   29511
   29520       8   29508   29514   29523       8   29508   29514   29526       8
   29499   29508   29511       7   29499   29508   29514       7   29493   29499
   29508       8   29487   29499   29493       6   29487   29499   29508       8
   29475   29493   29499       6   29472   29466   29475       6   29472   29487
   29499       6   29466   29463   29469       4   29466   29472   29487       6
   29466   29475   29493       6   29463   29466   29472       5   29463   29466
   29475       5   30330   30354   30372       4   30321   30351   30369       4
   30312   30348   30366       4   30306   30345   30363       4   30294   30342
   30360       4   30285   30339   30357       4   30279   30330   30354       5
   30273   30330   30279       6   30273   30330   30354       5   30267   30321
   30351       5   30261   30321   30267       6   30261   30321   30351       5
   30255   30312   30348       5   30249   30312   30255       6   30249   30312
   30348       5   30243   30306   30345       5   30237   30306   30243       6
   30237   30306   30345       5   30234   30294   30342       5   30228   30294
   30234       6   30228   30294   30342       5   30219   30285   30339       5
   30213   30285   30219       6   30213   30285   30339       5   30210   30279
   30330       6   30207   30171   30210       6   30207   30273   30330       6
   30204   30267   30321       6   30201   30168   30204       6   30201   30261
   30321       6   30198   30255   30312       6   30195   30162   30198       6
   30195   30249   30312       6   30192   30243   30306       6   30189   30159
   30192       6   30189   30237   30306       6   30186   30234   30294       6
   30183   30156   30186       6   30183   30228   30294       6   30180   30219
   30285       6   30177   30153   30180       6   30177   30213   30285       6
   30171   30207   30273       6   30171   30210   30279       6   30168   30144
   30171       7   30168   30201   30261       6   30168   30204   30267       6
   30162   30195   30249       6   30162   30198   30255       6   30159   30135
   30162       7   30159   30189   30237       6   30159   30192   30243       6
   30156   30183   30228       6   30156   30186   30234       6   30153   30132
   30156       7   30153   30177   30213       6   30153   30180   30219       6
   30144   30114   30147       8   30144   30168   30201       8   30144   30168
   30204       8   30144   30171   30207       8   30144   30171   30210       8
   30135   30102   30138       8   30135   30159   30189       8   30135   30159
   30192       8   30135   30162   30195       8   30135   30162   30198       8
   30132   30153   30177       8   30132   30153   30180       8   30132   30156
   30183       8   30132   30156   30186       8   30114   30144   30168       7
   30114   30144   30171       7   30114   30147   30117       6   30102   30135
   30159       7   30102   30135   30162       7   30102   30138   30108       6
   30096   30132   30153       7   30096   30132   30156       7   30090   30096
   30132       8   30084   30078   30108       9   30084   30117   30147      10
   30081   30063   30084      10   30081   30114   30144       8   30081   30114
   30147       6   30078   30084   30117       9   30078   30108   30138      10
   30075   30060   30078      10   30075   30102   30135       8   30075   30102
   30138       6   30072   30096   30090       6   30072   30096   30132       8
   30069   30090   30096       6   30063   30081   30114       6   30063   30084
   30078       9   30063   30084   30117      12   30060   30039   30063      13
   30060   30075   30102       6   30060   30078   30084       9   30060   30078
   30108      12   30057   30039   30060      13   30057   30039   30063      13
   30057   30054   30069      12   30057   30072   30096       6   30054   30057
   30072      10   30054   30069   30090      10   30045   30066   30087       4
   30039   30057   30054      14   30039   30057   30072      15   30039   30060
   30075      15   30039   30060   30078      14   30039   30063   30081      15
   30039   30063   30084      14   30036   30012   30039      14   30036   30054
   30057       9   30036   30054   30069       9   30030   30045   30066       5
   30024   30045   30030       6   30024   30045   30066       5   30018   30036
   30054       9   30012   30036   30018      12   30012   30036   30054       9
   30012   30039   30057      13   30012   30039   30060      13   30012   30039
   30063      13   30009   30030   30045       6   30006   29997   30009       6
   30006   30024   30045       6   30003   30018   30036      10   30000   29994
   30003       6   30000   30012   30036      10   30000   30012   30039      15
   29997   30006   30024       6   29997   30009   30030       6   29994   29991
   29997       7   29994   30000   30012       6   29994   30003   30018       6
   29991   29994   30000       8   29991   29994   30003       8   29991   29997
   30006       8   29991   29997   30009       8   29982   29991   29994       7
   29982   29991   29997       7   29976   29982   29991       8   29970   29982
   29976       6   29970   29982   29991       8   29958   29976   29982       6
   29955   29949   29958       6   29955   29970   29982       6   29949   29946
   29952       4   29949   29955   29970       6   29949   29958   29976       6
   29946   29949   29955       5   29946   29949   29958       5   30813   30837
   30855       4   30804   30834   30852       4   30795   30831   30849       4
   30789   30828   30846       4   30777   30825   30843       4   30768   30822
   30840       4   30762   30813   30837       5   30756   30813   30762       6
   30756   30813   30837       5   30750   30804   30834       5   30744   30804
   30750       6   30744   30804   30834       5   30738   30795   30831       5
   30732   30795   30738       6   30732   30795   30831       5   30726   30789
   30828       5   30720   30789   30726       6   30720   30789   30828       5
   30717   30777   30825       5   30711   30777   30717       6   30711   30777
   30825       5   30702   30768   30822       5   30696   30768   30702       6
   30696   30768   30822       5   30693   30762   30813       6   30690   30654
   30693       6   30690   30756   30813       6   30687   30750   30804       6
   30684   30651   30687       6   30684   30744   30804       6   30681   30738
   30795       6   30678   30645   30681       6   30678   30732   30795       6
   30675   30726   30789       6   30672   30642   30675       6   30672   30720
   30789       6   30669   30717   30777       6   30666   30639   30669       6
   30666   30711   30777       6   30663   30702   30768       6   30660   30636
   30663       6   30660   30696   30768       6   30654   30690   30756       6
   30654   30693   30762       6   30651   30627   30654       7   30651   30684
   30744       6   30651   30687   30750       6   30645   30678   30732       6
   30645   30681   30738       6   30642   30618   30645       7   30642   30672
   30720       6   30642   30675   30726       6   30639   30666   30711       6
   30639   30669   30717       6   30636   30615   30639       7   30636   30660
   30696       6   30636   30663   30702       6   30627   30597   30630       8
   30627   30651   30684       8   30627   30651   30687       8   30627   30654
   30690       8   30627   30654   30693       8   30618   30585   30621       8
   30618   30642   30672       8   30618   30642   30675       8   30618   30645
   30678       8   30618   30645   30681       8   30615   30636   30660       8
   30615   30636   30663       8   30615   30639   30666       8   30615   30639
   30669       8   30597   30627   30651       7   30597   30627   30654       7
   30597   30630   30600       6   30585   30618   30642       7   30585   30618
   30645       7   30585   30621   30591       6   30579   30615   30636       7
   30579   30615   30639       7   30573   30579   30615       8   30567   30561
   30591       9   30567   30600   30630      10   30564   30546   30567      10
   30564   30597   30627       8   30564   30597   30630       6   30561   30567
   30600       9   30561   30591   30621      10   30558   30543   30561      10
   30558   30585   30618       8   30558   30585   30621       6   30555   30579
   30573       6   30555   30579   30615       8   30552   30573   30579       6
   30546   30564   30597       6   30546   30567   30561       9   30546   30567
   30600      12   30543   30522   30546      13   30543   30558   30585       6
   30543   30561   30567       9   30543   30561   30591      12   30540   30522
   30543      13   30540   30522   30546      13   30540   30537   30552      12
   30540   30555   30579       6   30537   30540   30555      10   30537   30552
   30573      10   30528   30549   30570       4   30522   30540   30537      14
   30522   30540   30555      15   30522   30543   30558      15   30522   30543
   30561      14   30522   30546   30564      15   30522   30546   30567      14
   30519   30495   30522      14   30519   30537   30540       9   30519   30537
   30552       9   30513   30528   30549       5   30507   30528   30513       6
   30507   30528   30549       5   30501   30519   30537       9   30495   30519
   30501      12   30495   30519   30537       9   30495   30522   30540      13
   30495   30522   30543      13   30495   30522   30546      13   30492   30513
   30528       6   30489   30480   30492       6   30489   30507   30528       6
   30486   30501   30519      10   30483   30477   30486       6   30483   30495
   30519      10   30483   30495   30522      15   30480   30489   30507       6
   30480   30492   30513       6   30477   30474   30480       7   30477   30483
   30495       6   30477   30486   30501       6   30474   30477   30483       8
   30474   30477   30486       8   30474   30480   30489       8   30474   30480
   30492       8   30465   30474   30477       7   30465   30474   30480       7
   30459   30465   30474       8   30453   30465   30459       6   30453   30465
   30474       8   30441   30459   30465       6   30438   30432   30441       6
   30438   30453   30465       6   30432   30429   30435       4   30432   30438
   30453       6   30432   30441   30459       6   30429   30432   30438       5
   30429   30432   30441       5   31296   31320   31338       4   31287   31317
   31335       4   31278   31314   31332       4   31272   31311   31329       4
   31260   31308   31326       4   31251   31305   31323       4   31245   31296
   31320       5   31239   31296   31245       6   31239   31296   31320       5
   31233   31287   31317       5   31227   31287   31233       6   31227   31287
   31317       5   31221   31278   31314       5   31215   31278   31221       6
   31215   31278   31314       5   31209   31272   31311       5   31203   31272
   31209       6   31203   31272   31311       5   31200   31260   31308       5
   31194   31260   31200       6   31194   31260   31308       5   31185   31251
   31305       5   31179   31251   31185       6   31179   31251   31305       5
   31176   31245   31296       6   31173   31137   31176       6   31173   31239
   31296       6   31170   31233   31287       6   31167   31134   31170       6
   31167   31227   31287       6   31164   31221   31278       6   31161   31128
   31164       6   31161   31215   31278       6   31158   31209   31272       6
   31155   31125   31158       6   31155   31203   31272       6   31152   31200
   31260       6   31149   31122   31152       6   31149   31194   31260       6
   31146   31185   31251       6   31143   31119   31146       6   31143   31179
   31251       6   31137   31173   31239       6   31137   31176   31245       6
   31134   31110   31137       7   31134   31167   31227       6   31134   31170
   31233       6   31128   31161   31215       6   31128   31164   31221       6
   31125   31101   31128       7   31125   31155   31203       6   31125   31158
   31209       6   31122   31149   31194       6   31122   31152   31200       6
   31119   31098   31122       7   31119   31143   31179       6   31119   31146
   31185       6   31110   31080   31113       8   31110   31134   31167       8
   31110   31134   31170       8   31110   31137   31173       8   31110   31137
   31176       8   31101   31068   31104       8   31101   31125   31155       8
   31101   31125   31158       8   31101   31128   31161       8   31101   31128
   31164       8   31098   31119   31143       8   31098   31119   31146       8
   31098   31122   31149       8   31098   31122   31152       8   31080   31110
   31134       7   31080   31110   31137       7   31080   31113   31083       6
   31068   31101   31125       7   31068   31101   31128       7   31068   31104
   31074       6   31062   31098   31119       7   31062   31098   31122       7
   31056   31062   31098       8   31050   31044   31074       9   31050   31083
   31113      10   31047   31029   31050      10   31047   31080   31110       8
   31047   31080   31113       6   31044   31050   31083       9   31044   31074
   31104      10   31041   31026   31044      10   31041   31068   31101       8
   31041   31068   31104       6   31038   31062   31056       6   31038   31062
   31098       8   31035   31056   31062       6   31029   31047   31080       6
   31029   31050   31044       9   31029   31050   31083      12   31026   31005
   31029      13   31026   31041   31068       6   31026   31044   31050       9
   31026   31044   31074      12   31023   31005   31026      13   31023   31005
   31029      13   31023   31020   31035      12   31023   31038   31062       6
   31020   31023   31038      10   31020   31035   31056      10   31011   31032
   31053       4   31005   31023   31020      14   31005   31023   31038      15
   31005   31026   31041      15   31005   31026   31044      14   31005   31029
   31047      15   31005   31029   31050      14   31002   30978   31005      14
   31002   31020   31023       9   31002   31020   31035       9   30996   31011
   31032       5   30990   31011   30996       6   30990   31011   31032       5
   30984   31002   31020       9   30978   31002   30984      12   30978   31002
   31020       9   30978   31005   31023      13   30978   31005   31026      13
   30978   31005   31029      13   30975   30996   31011       6   30972   30963
   30975       6   30972   30990   31011       6   30969   30984   31002      10
   30966   30960   30969       6   30966   30978   31002      10   30966   30978
   31005      15   30963   30972   30990       6   30963   30975   30996       6
   30960   30957   30963       7   30960   30966   30978       6   30960   30969
   30984       6   30957   30960   30966       8   30957   30960   30969       8
   30957   30963   30972       8   30957   30963   30975       8   30948   30957
   30960       7   30948   30957   30963       7   30942   30948   30957       8
   30936   30948   30942       6   30936   30948   30957       8   30924   30942
   30948       6   30921   30915   30924       6   30921   30936   30948       6
   30915   30912   30918       4   30915   30921   30936       6   30915   30924
   30942       6   30912   30915   30921       5   30912   30915   30924       5
   31779   31803   31821       4   31770   31800   31818       4   31761   31797
   31815       4   31755   31794   31812       4   31743   31791   31809       4
   31734   31788   31806       4   31728   31779   31803       5   31722   31779
   31728       6   31722   31779   31803       5   31716   31770   31800       5
   31710   31770   31716       6   31710   31770   31800       5   31704   31761
   31797       5   31698   31761   31704       6   31698   31761   31797       5
   31692   31755   31794       5   31686   31755   31692       6   31686   31755
   31794       5   31683   31743   31791       5   31677   31743   31683       6
   31677   31743   31791       5   31668   31734   31788       5   31662   31734
   31668       6   31662   31734   31788       5   31659   31728   31779       6
   31656   31620   31659       6   31656   31722   31779       6   31653   31716
   31770       6   31650   31617   31653       6   31650   31710   31770       6
   31647   31704   31761       6   31644   31611   31647       6   31644   31698
   31761       6   31641   31692   31755       6   31638   31608   31641       6
   31638   31686   31755       6   31635   31683   31743       6   31632   31605
   31635       6   31632   31677   31743       6   31629   31668   31734       6
   31626   31602   31629       6   31626   31662   31734       6   31620   31656
   31722       6   31620   31659   31728       6   31617   31593   31620       7
   31617   31650   31710       6   31617   31653   31716       6   31611   31644
   31698       6   31611   31647   31704       6   31608   31584   31611       7
   31608   31638   31686       6   31608   31641   31692       6   31605   31632
   31677       6   31605   31635   31683       6   31602   31581   31605       7
   31602   31626   31662       6   31602   31629   31668       6   31593   31563
   31596       8   31593   31617   31650       8   31593   31617   31653       8
   31593   31620   31656       8   31593   31620   31659       8   31584   31551
   31587       8   31584   31608   31638       8   31584   31608   31641       8
   31584   31611   31644       8   31584   31611   31647       8   31581   31602
   31626       8   31581   31602   31629       8   31581   31605   31632       8
   31581   31605   31635       8   31563   31593   31617       7   31563   31593
   31620       7   31563   31596   31566       6   31551   31584   31608       7
   31551   31584   31611       7   31551   31587   31557       6   31545   31581
   31602       7   31545   31581   31605       7   31539   31545   31581       8
   31533   31527   31557       9   31533   31566   31596      10   31530   31512
   31533      10   31530   31563   31593       8   31530   31563   31596       6
   31527   31533   31566       9   31527   31557   31587      10   31524   31509
   31527      10   31524   31551   31584       8   31524   31551   31587       6
   31521   31545   31539       6   31521   31545   31581       8   31518   31539
   31545       6   31512   31530   31563       6   31512   31533   31527       9
   31512   31533   31566      12   31509   31488   31512      13   31509   31524
   31551       6   31509   31527   31533       9   31509   31527   31557      12
   31506   31488   31509      13   31506   31488   31512      13   31506   31503
   31518      12   31506   31521   31545       6   31503   31506   31521      10
   31503   31518   31539      10   31494   31515   31536       4   31488   31506
   31503      14   31488   31506   31521      15   31488   31509   31524      15
   31488   31509   31527      14   31488   31512   31530      15   31488   31512
   31533      14   31485   31461   31488      14   31485   31503   31506       9
   31485   31503   31518       9   31479   31494   31515       5   31473   31494
   31479       6   31473   31494   31515       5   31467   31485   31503       9
   31461   31485   31467      12   31461   31485   31503       9   31461   31488
   31506      13   31461   31488   31509      13   31461   31488   31512      13
   31458   31479   31494       6   31455   31446   31458       6   31455   31473
   31494       6   31452   31467   31485      10   31449   31443   31452       6
   31449   31461   31485      10   31449   31461   31488      15   31446   31455
   31473       6   31446   31458   31479       6   31443   31440   31446       7
   31443   31449   31461       6   31443   31452   31467       6   31440   31443
   31449       8   31440   31443   31452       8   31440   31446   31455       8
   31440   31446   31458       8   31431   31440   31443       7   31431   31440
   31446       7   31425   31431   31440       8   31419   31431   31425       6
   31419   31431   31440       8   31407   31425   31431       6   31404   31398
   31407       6   31404   31419   31431       6   31398   31395   31401       4
   31398   31404   31419       6   31398   31407   31425       6   31395   31398
   31404       5   31395   31398   31407       5   32262   32286   32304       4
   32253   32283   32301       4   32244   32280   32298       4   32238   32277
   32295       4   32226   32274   32292       4   32217   32271   32289       4
   32211   32262   32286       5   32205   32262   32211       6   32205   32262
   32286       5   32199   32253   32283       5   32193   32253   32199       6
   32193   32253   32283       5   32187   32244   32280       5   32181   32244
   32187       6   32181   32244   32280       5   32175   32238   32277       5
   32169   32238   32175       6   32169   32238   32277       5   32166   32226
   32274       5   32160   32226   32166       6   32160   32226   32274       5
   32151   32217   32271       5   32145   32217   32151       6   32145   32217
   32271       5   32142   32211   32262       6   32139   32103   32142       6
   32139   32205   32262       6   32136   32199   32253       6   32133   32100
   32136       6   32133   32193   32253       6   32130   32187   32244       6
   32127   32094   32130       6   32127   32181   32244       6   32124   32175
   32238       6   32121   32091   32124       6   32121   32169   32238       6
   32118   32166   32226       6   32115   32088   32118       6   32115   32160
   32226       6   32112   32151   32217       6   32109   32085   32112       6
   32109   32145   32217       6   32103   32139   32205       6   32103   32142
   32211       6   32100   32076   32103       7   32100   32133   32193       6
   32100   32136   32199       6   32094   32127   32181       6   32094   32130
   32187       6   32091   32067   32094       7   32091   32121   32169       6
   32091   32124   32175       6   32088   32115   32160       6   32088   32118
   32166       6   32085   32064   32088       7   32085   32109   32145       6
   32085   32112   32151       6   32076   32046   32079       8   32076   32100
   32133       8   32076   32100   32136       8   32076   32103   32139       8
   32076   32103   32142       8   32067   32034   32070       8   32067   32091
   32121       8   32067   32091   32124       8   32067   32094   32127       8
   32067   32094   32130       8   32064   32085   32109       8   32064   32085
   32112       8   32064   32088   32115       8   32064   32088   32118       8
   32046   32076   32100       7   32046   32076   32103       7   32046   32079
   32049       6   32034   32067   32091       7   32034   32067   32094       7
   32034   32070   32040       6   32028   32064   32085       7   32028   32064
   32088       7   32022   32028   32064       8   32016   32010   32040       9
   32016   32049   32079      10   32013   31995   32016      10   32013   32046
   32076       8   32013   32046   32079       6   32010   32016   32049       9
   32010   32040   32070      10   32007   31992   32010      10   32007   32034
   32067       8   32007   32034   32070       6   32004   32028   32022       6
   32004   32028   32064       8   32001   32022   32028       6   31995   32013
   32046       6   31995   32016   32010       9   31995   32016   32049      12
   31992   31971   31995      13   31992   32007   32034       6   31992   32010
   32016       9   31992   32010   32040      12   31989   31971   31992      13
   31989   31971   31995      13   31989   31986   32001      12   31989   32004
   32028       6   31986   31989   32004      10   31986   32001   32022      10
   31977   31998   32019       4   31971   31989   31986      14   31971   31989
   32004      15   31971   31992   32007      15   31971   31992   32010      14
   31971   31995   32013      15   31971   31995   32016      14   31968   31944
   31971      14   31968   31986   31989       9   31968   31986   32001       9
   31962   31977   31998       5   31956   31977   31962       6   31956   31977
   31998       5   31950   31968   31986       9   31944   31968   31950      12
   31944   31968   31986       9   31944   31971   31989      13   31944   31971
   31992      13   31944   31971   31995      13   31941   31962   31977       6
   31938   31929   31941       6   31938   31956   31977       6   31935   31950
   31968      10   31932   31926   31935       6   31932   31944   31968      10
   31932   31944   31971      15   31929   31938   31956       6   31929   31941
   31962       6   31926   31923   31929       7   31926   31932   31944       6
   31926   31935   31950       6   31923   31926   31932       8   31923   31926
   31935       8   31923   31929   31938       8   31923   31929   31941       8
   31914   31923   31926       7   31914   31923   31929       7   31908   31914
   31923       8   31902   31914   31908       6   31902   31914   31923       8
   31890   31908   31914       6   31887   31881   31890       6   31887   31902
   31914       6   31881   31878   31884       4   31881   31887   31902       6
   31881   31890   31908       6   31878   31881   31887       5   31878   31881
   31890       5   32745   32769   32787       4   32736   32766   32784       4
   32727   32763   32781       4   32721   32760   32778       4   32709   32757
   32775       4   32700   32754   32772       4   32694   32745   32769       5
   32688   32745   32694       6   32688   32745   32769       5   32682   32736
   32766       5   32676   32736   32682       6   32676   32736   32766       5
   32670   32727   32763       5   32664   32727   32670       6   32664   32727
   32763       5   32658   32721   32760       5   32652   32721   32658       6
   32652   32721   32760       5   32649   32709   32757       5   32643   32709
   32649       6   32643   32709   32757       5   32634   32700   32754       5
   32628   32700   32634       6   32628   32700   32754       5   32625   32694
   32745       6   32622   32586   32625       6   32622   32688   32745       6
   32619   32682   32736       6   32616   32583   32619       6   32616   32676
   32736       6   32613   32670   32727       6   32610   32577   32613       6
   32610   32664   32727       6   32607   32658   32721       6   32604   32574
   32607       6   32604   32652   32721       6   32601   32649   32709       6
   32598   32571   32601       6   32598   32643   32709       6   32595   32634
   32700       6   32592   32568   32595       6   32592   32628   32700       6
   32586   32622   32688       6   32586   32625   32694       6   32583   32559
   32586       7   32583   32616   32676       6   32583   32619   32682       6
   32577   32610   32664       6   32577   32613   32670       6   32574   32550
   32577       7   32574   32604   32652       6   32574   32607   32658       6
   32571   32598   32643       6   32571   32601   32649       6   32568   32547
   32571       7   32568   32592   32628       6   32568   32595   32634       6
   32559   32529   32562       8   32559   32583   32616       8   32559   32583
   32619       8   32559   32586   32622       8   32559   32586   32625       8
   32550   32517   32553       8   32550   32574   32604       8   32550   32574
   32607       8   32550   32577   32610       8   32550   32577   32613       8
   32547   32568   32592       8   32547   32568   32595       8   32547   32571
   32598       8   32547   32571   32601       8   32529   32559   32583       7
   32529   32559   32586       7   32529   32562   32532       6   32517   32550
   32574       7   32517   32550   32577       7   32517   32553   32523       6
   32511   32547   32568       7   32511   32547   32571       7   32505   32511
   32547       8   32499   32493   32523       9   32499   32532   32562      10
   32496   32478   32499      10   32496   32529   32559       8   32496   32529
   32562       6   32493   32499   32532       9   32493   32523   32553      10
   32490   32475   32493      10   32490   32517   32550       8   32490   32517
   32553       6   32487   32511   32505       6   32487   32511   32547       8
   32484   32505   32511       6   32478   32496   32529       6   32478   32499
   32493       9   32478   32499   32532      12   32475   32454   32478      13
   32475   32490   32517       6   32475   32493   32499       9   32475   32493
   32523      12   32472   32454   32475      13   32472   32454   32478      13
   32472   32469   32484      12   32472   32487   32511       6   32469   32472
   32487      10   32469   32484   32505      10   32460   32481   32502       4
   32454   32472   32469      14   32454   32472   32487      15   32454   32475
   32490      15   32454   32475   32493      14   32454   32478   32496      15
   32454   32478   32499      14   32451   32427   32454      14   32451   32469
   32472       9   32451   32469   32484       9   32445   32460   32481       5
   32439   32460   32445       6   32439   32460   32481       5   32433   32451
   32469       9   32427   32451   32433      12   32427   32451   32469       9
   32427   32454   32472      13   32427   32454   32475      13   32427   32454
   32478      13   32424   32445   32460       6   32421   32412   32424       6
   32421   32439   32460       6   32418   32433   32451      10   32415   32409
   32418       6   32415   32427   32451      10   32415   32427   32454      15
   32412   32421   32439       6   32412   32424   32445       6   32409   32406
   32412       7   32409   32415   32427       6   32409   32418   32433       6
   32406   32409   32415       8   32406   32409   32418       8   32406   32412
   32421       8   32406   32412   32424       8   32397   32406   32409       7
   32397   32406   32412       7   32391   32397   32406       8   32385   32397
   32391       6   32385   32397   32406       8   32373   32391   32397       6
   32370   32364   32373       6   32370   32385   32397       6   32364   32361
   32367       4   32364   32370   32385       6   32364   32373   32391       6
   32361   32364   32370       5   32361   32364   32373       5   33228   33252
   33270       4   33219   33249   33267       4   33210   33246   33264       4
   33204   33243   33261       4   33192   33240   33258       4   33183   33237
   33255       4   33177   33228   33252       5   33171   33228   33177       6
   33171   33228   33252       5   33165   33219   33249       5   33159   33219
   33165       6   33159   33219   33249       5   33153   33210   33246       5
   33147   33210   33153       6   33147   33210   33246       5   33141   33204
   33243       5   33135   33204   33141       6   33135   33204   33243       5
   33132   33192   33240       5   33126   33192   33132       6   33126   33192
   33240       5   33117   33183   33237       5   33111   33183   33117       6
   33111   33183   33237       5   33108   33177   33228       6   33105   33069
   33108       6   33105   33171   33228       6   33102   33165   33219       6
   33099   33066   33102       6   33099   33159   33219       6   33096   33153
   33210       6   33093   33060   33096       6   33093   33147   33210       6
   33090   33141   33204       6   33087   33057   33090       6   33087   33135
   33204       6   33084   33132   33192       6   33081   33054   33084       6
   33081   33126   33192       6   33078   33117   33183       6   33075   33051
   33078       6   33075   33111   33183       6   33069   33105   33171       6
   33069   33108   33177       6   33066   33042   33069       7   33066   33099
   33159       6   33066   33102   33165       6   33060   33093   33147       6
   33060   33096   33153       6   33057   33033   33060       7   33057   33087
   33135       6   33057   33090   33141       6   33054   33081   33126       6
   33054   33084   33132       6   33051   33030   33054       7   33051   33075
   33111       6   33051   33078   33117       6   33042   33012   33045       8
   33042   33066   33099       8   33042   33066   33102       8   33042   33069
   33105       8   33042   33069   33108       8   33033   33000   33036       8
   33033   33057   33087       8   33033   33057   33090       8   33033   33060
   33093       8   33033   33060   33096       8   33030   33051   33075       8
   33030   33051   33078       8   33030   33054   33081       8   33030   33054
   33084       8   33012   33042   33066       7   33012   33042   33069       7
   33012   33045   33015       6   33000   33033   33057       7   33000   33033
   33060       7   33000   33036   33006       6   32994   33030   33051       7
   32994   33030   33054       7   32988   32994   33030       8   32982   32976
   33006       9   32982   33015   33045      10   32979   32961   32982      10
   32979   33012   33042       8   32979   33012   33045       6   32976   32982
   33015       9   32976   33006   33036      10   32973   32958   32976      10
   32973   33000   33033       8   32973   33000   33036       6   32970   32994
   32988       6   32970   32994   33030       8   32967   32988   32994       6
   32961   32979   33012       6   32961   32982   32976       9   32961   32982
   33015      12   32958   32937   32961      13   32958   32973   33000       6
   32958   32976   32982       9   32958   32976   33006      12   32955   32937
   32958      13   32955   32937   32961      13   32955   32952   32967      12
   32955   32970   32994       6   32952   32955   32970      10   32952   32967
   32988      10   32943   32964   32985       4   32937   32955   32952      14
   32937   32955   32970      15   32937   32958   32973      15   32937   32958
   32976      14   32937   32961   32979      15   32937   32961   32982      14
   32934   32910   32937      14   32934   32952   32955       9   32934   32952
   32967       9   32928   32943   32964       5   32922   32943   32928       6
   32922   32943   32964       5   32916   32934   32952       9   32910   32934
   32916      12   32910   32934   32952       9   32910   32937   32955      13
   32910   32937   32958      13   32910   32937   32961      13   32907   32928
   32943       6   32904   32895   32907       6   32904   32922   32943       6
   32901   32916   32934      10   32898   32892   32901       6   32898   32910
   32934      10   32898   32910   32937      15   32895   32904   32922       6
   32895   32907   32928       6   32892   32889   32895       7   32892   32898
   32910       6   32892   32901   32916       6   32889   32892   32898       8
   32889   32892   32901       8   32889   32895   32904       8   32889   32895
   32907       8   32880   32889   32892       7   32880   32889   32895       7
   32874   32880   32889       8   32868   32880   32874       6   32868   32880
   32889       8   32856   32874   32880       6   32853   32847   32856       6
   32853   32868   32880       6   32847   32844   32850       4   32847   32853
   32868       6   32847   32856   32874       6   32844   32847   32853       5
   32844   32847   32856       5   33711   33735   33753       4   33702   33732
   33750       4   33693   33729   33747       4   33687   33726   33744       4
   33675   33723   33741       4   33666   33720   33738       4   33660   33711
   33735       5   33654   33711   33660       6   33654   33711   33735       5
   33648   33702   33732       5   33642   33702   33648       6   33642   33702
   33732       5   33636   33693   33729       5   33630   33693   33636       6
   33630   33693   33729       5   33624   33687   33726       5   33618   33687
   33624       6   33618   33687   33726       5   33615   33675   33723       5
   33609   33675   33615       6   33609   33675   33723       5   33600   33666
   33720       5   33594   33666   33600       6   33594   33666   33720       5
   33591   33660   33711       6   33588   33552   33591       6   33588   33654
   33711       6   33585   33648   33702       6   33582   33549   33585       6
   33582   33642   33702       6   33579   33636   33693       6   33576   33543
   33579       6   33576   33630   33693       6   33573   33624   33687       6
   33570   33540   33573       6   33570   33618   33687       6   33567   33615
   33675       6   33564   33537   33567       6   33564   33609   33675       6
   33561   33600   33666       6   33558   33534   33561       6   33558   33594
   33666       6   33552   33588   33654       6   33552   33591   33660       6
   33549   33525   33552       7   33549   33582   33642       6   33549   33585
   33648       6   33543   33576   33630       6   33543   33579   33636       6
   33540   33516   33543       7   33540   33570   33618       6   33540   33573
   33624       6   33537   33564   33609       6   33537   33567   33615       6
   33534   33513   33537       7   33534   33558   33594       6   33534   33561
   33600       6   33525   33495   33528       8   33525   33549   33582       8
   33525   33549   33585       8   33525   33552   33588       8   33525   33552
   33591       8   33516   33483   33519       8   33516   33540   33570       8
   33516   33540   33573       8   33516   33543   33576       8   33516   33543
   33579       8   33513   33534   33558       8   33513   33534   33561       8
   33513   33537   33564       8   33513   33537   33567       8   33495   33525
   33549       7   33495   33525   33552       7   33495   33528   33498       6
   33483   33516   33540       7   33483   33516   33543       7   33483   33519
   33489       6   33477   33513   33534       7   33477   33513   33537       7
   33471   33477   33513       8   33465   33459   33489       9   33465   33498
   33528      10   33462   33444   33465      10   33462   33495   33525       8
   33462   33495   33528       6   33459   33465   33498       9   33459   33489
   33519      10   33456   33441   33459      10   33456   33483   33516       8
   33456   33483   33519       6   33453   33477   33471       6   33453   33477
   33513       8   33450   33471   33477       6   33444   33462   33495       6
   33444   33465   33459       9   33444   33465   33498      12   33441   33420
   33444      13   33441   33456   33483       6   33441   33459   33465       9
   33441   33459   33489      12   33438   33420   33441      13   33438   33420
   33444      13   33438   33435   33450      12   33438   33453   33477       6
   33435   33438   33453      10   33435   33450   33471      10   33426   33447
   33468       4   33420   33438   33435      14   33420   33438   33453      15
   33420   33441   33456      15   33420   33441   33459      14   33420   33444
   33462      15   33420   33444   33465      14   33417   33393   33420      14
   33417   33435   33438       9   33417   33435   33450       9   33411   33426
   33447       5   33405   33426   33411       6   33405   33426   33447       5
   33399   33417   33435       9   33393   33417   33399      12   33393   33417
   33435       9   33393   33420   33438      13   33393   33420   33441      13
   33393   33420   33444      13   33390   33411   33426       6   33387   33378
   33390       6   33387   33405   33426       6   33384   33399   33417      10
   33381   33375   33384       6   33381   33393   33417      10   33381   33393
   33420      15   33378   33387   33405       6   33378   33390   33411       6
   33375   33372   33378       7   33375   33381   33393       6   33375   33384
   33399       6   33372   33375   33381       8   33372   33375   33384       8
   33372   33378   33387       8   33372   33378   33390       8   33363   33372
   33375       7   33363   33372   33378       7   33357   33363   33372       8
   33351   33363   33357       6   33351   33363   33372       8   33339   33357
   33363       6   33336   33330   33339       6   33336   33351   33363       6
   33330   33327   33333       4   33330   33336   33351       6   33330   33339
   33357       6   33327   33330   33336       5   33327   33330   33339       5
   34194   34218   34236       4   34185   34215   34233       4   34176   34212
   34230       4   34170   34209   34227       4   34158   34206   34224       4
   34149   34203   34221       4   34143   34194   34218       5   34137   34194
   34143       6   34137   34194   34218       5   34131   34185   34215       5
   34125   34185   34131       6   34125   34185   34215       5   34119   34176
   34212       5   34113   34176   34119       6   34113   34176   34212       5
   34107   34170   34209       5   34101   34170   34107       6   34101   34170
   34209       5   34098   34158   34206       5   34092   34158   34098       6
   34092   34158   34206       5   34083   34149   34203       5   34077   34149
   34083       6   34077   34149   34203       5   34074   34143   34194       6
   34071   34035   34074       6   34071   34137   34194       6   34068   34131
   34185       6   34065   34032   34068       6   34065   34125   34185       6
   34062   34119   34176       6   34059   34026   34062       6   34059   34113
   34176       6   34056   34107   34170       6   34053   34023   34056       6
   34053   34101   34170       6   34050   34098   34158       6   34047   34020
   34050       6   34047   34092   34158       6   34044   34083   34149       6
   34041   34017   34044       6   34041   34077   34149       6   34035   34071
   34137       6   34035   34074   34143       6   34032   34008   34035       7
   34032   34065   34125       6   34032   34068   34131       6   34026   34059
   34113       6   34026   34062   34119       6   34023   33999   34026       7
   34023   34053   34101       6   34023   34056   34107       6   34020   34047
   34092       6   34020   34050   34098       6   34017   33996   34020       7
   34017   34041   34077       6   34017   34044   34083       6   34008   33978
   34011       8   34008   34032   34065       8   34008   34032   34068       8
   34008   34035   34071       8   34008   34035   34074       8   33999   33966
   34002       8   33999   34023   34053       8   33999   34023   34056       8
   33999   34026   34059       8   33999   34026   34062       8   33996   34017
   34041       8   33996   34017   34044       8   33996   34020   34047       8
   33996   34020   34050       8   33978   34008   34032       7   33978   34008
   34035       7   33978   34011   33981       6   33966   33999   34023       7
   33966   33999   34026       7   33966   34002   33972       6   33960   33996
   34017       7   33960   33996   34020       7   33954   33960   33996       8
   33948   33942   33972       9   33948   33981   34011      10   33945   33927
   33948      10   33945   33978   34008       8   33945   33978   34011       6
   33942   33948   33981       9   33942   33972   34002      10   33939   33924
   33942      10   33939   33966   33999       8   33939   33966   34002       6
   33936   33960   33954       6   33936   33960   33996       8   33933   33954
   33960       6   33927   33945   33978       6   33927   33948   33942       9
   33927   33948   33981      12   33924   33903   33927      13   33924   33939
   33966       6   33924   33942   33948       9   33924   33942   33972      12
   33921   33903   33924      13   33921   33903   33927      13   33921   33918
   33933      12   33921   33936   33960       6   33918   33921   33936      10
   33918   33933   33954      10   33909   33930   33951       4   33903   33921
   33918      14   33903   33921   33936      15   33903   33924   33939      15
   33903   33924   33942      14   33903   33927   33945      15   33903   33927
   33948      14   33900   33876   33903      14   33900   33918   33921       9
   33900   33918   33933       9   33894   33909   33930       5   33888   33909
   33894       6   33888   33909   33930       5   33882   33900   33918       9
   33876   33900   33882      12   33876   33900   33918       9   33876   33903
   33921      13   33876   33903   33924      13   33876   33903   33927      13
   33873   33894   33909       6   33870   33861   33873       6   33870   33888
   33909       6   33867   33882   33900      10   33864   33858   33867       6
   33864   33876   33900      10   33864   33876   33903      15   33861   33870
   33888       6   33861   33873   33894       6   33858   33855   33861       7
   33858   33864   33876       6   33858   33867   33882       6   33855   33858
   33864       8   33855   33858   33867       8   33855   33861   33870       8
   33855   33861   33873       8   33846   33855   33858       7   33846   33855
   33861       7   33840   33846   33855       8   33834   33846   33840       6
   33834   33846   33855       8   33822   33840   33846       6   33819   33813
   33822       6   33819   33834   33846       6   33813   33810   33816       4
   33813   33819   33834       6   33813   33822   33840       6   33810   33813
   33819       5   33810   33813   33822       5   34677   34701   34719       4
   34668   34698   34716       4   34659   34695   34713       4   34653   34692
   34710       4   34641   34689   34707       4   34632   34686   34704       4
   34626   34677   34701       5   34620   34677   34626       6   34620   34677
   34701       5   34614   34668   34698       5   34608   34668   34614       6
   34608   34668   34698       5   34602   34659   34695       5   34596   34659
   34602       6   34596   34659   34695       5   34590   34653   34692       5
   34584   34653   34590       6   34584   34653   34692       5   34581   34641
   34689       5   34575   34641   34581       6   34575   34641   34689       5
   34566   34632   34686       5   34560   34632   34566       6   34560   34632
   34686       5   34557   34626   34677       6   34554   34518   34557       6
   34554   34620   34677       6   34551   34614   34668       6   34548   34515
   34551       6   34548   34608   34668       6   34545   34602   34659       6
   34542   34509   34545       6   34542   34596   34659       6   34539   34590
   34653       6   34536   34506   34539       6   34536   34584   34653       6
   34533   34581   34641       6   34530   34503   34533       6   34530   34575
   34641       6   34527   34566   34632       6   34524   34500   34527       6
   34524   34560   34632       6   34518   34554   34620       6   34518   34557
   34626       6   34515   34491   34518       7   34515   34548   34608       6
   34515   34551   34614       6   34509   34542   34596       6   34509   34545
   34602       6   34506   34482   34509       7   34506   34536   34584       6
   34506   34539   34590       6   34503   34530   34575       6   34503   34533
   34581       6   34500   34479   34503       7   34500   34524   34560       6
   34500   34527   34566       6   34491   34461   34494       8   34491   34515
   34548       8   34491   34515   34551       8   34491   34518   34554       8
   34491   34518   34557       8   34482   34449   34485       8   34482   34506
   34536       8   34482   34506   34539       8   34482   34509   34542       8
   34482   34509   34545       8   34479   34500   34524       8   34479   34500
   34527       8   34479   34503   34530       8   34479   34503   34533       8
   34461   34491   34515       7   34461   34491   34518       7   34461   34494
   34464       6   34449   34482   34506       7   34449   34482   34509       7
   34449   34485   34455       6   34443   34479   34500       7   34443   34479
   34503       7   34437   34443   34479       8   34431   34425   34455       9
   34431   34464   34494      10   34428   34410   34431      10   34428   34461
   34491       8   34428   34461   34494       6   34425   34431   34464       9
   34425   34455   34485      10   34422   34407   34425      10   34422   34449
   34482       8   34422   34449   34485       6   34419   34443   34437       6
   34419   34443   34479       8   34416   34437   34443       6   34410   34428
   34461       6   34410   34431   34425       9   34410   34431   34464      12
   34407   34386   34410      13   34407   34422   34449       6   34407   34425
   34431       9   34407   34425   34455      12   34404   34386   34407      13
   34404   34386   34410      13   34404   34401   34416      12   34404   34419
   34443       6   34401   34404   34419      10   34401   34416   34437      10
   34392   34413   34434       4   34386   34404   34401      14   34386   34404
   34419      15   34386   34407   34422      15   34386   34407   34425      14
   34386   34410   34428      15   34386   34410   34431      14   34383   34359
   34386      14   34383   34401   34404       9   34383   34401   34416       9
   34377   34392   34413       5   34371   34392   34377       6   34371   34392
   34413       5   34365   34383   34401       9   34359   34383   34365      12
   34359   34383   34401       9   34359   34386   34404      13   34359   34386
   34407      13   34359   34386   34410      13   34356   34377   34392       6
   34353   34344   34356       6   34353   34371   34392       6   34350   34365
   34383      10   34347   34341   34350       6   34347   34359   34383      10
   34347   34359   34386      15   34344   34353   34371       6   34344   34356
   34377       6   34341   34338   34344       7   34341   34347   34359       6
   34341   34350   34365       6   34338   34341   34347       8   34338   34341
   34350       8   34338   34344   34353       8   34338   34344   34356       8
   34329   34338   34341       7   34329   34338   34344       7   34323   34329
   34338       8   34317   34329   34323       6   34317   34329   34338       8
   34305   34323   34329       6   34302   34296   34305       6   34302   34317
   34329       6   34296   34293   34299       4   34296   34302   34317       6
   34296   34305   34323       6   34293   34296   34302       5   34293   34296
   34305       5   35160   35184   35202       4   35151   35181   35199       4
   35142   35178   35196       4   35136   35175   35193       4   35124   35172
   35190       4   35115   35169   35187       4   35109   35160   35184       5
   35103   35160   35109       6   35103   35160   35184       5   35097   35151
   35181       5   35091   35151   35097       6   35091   35151   35181       5
   35085   35142   35178       5   35079   35142   35085       6   35079   35142
   35178       5   35073   35136   35175       5   35067   35136   35073       6
   35067   35136   35175       5   35064   35124   35172       5   35058   35124
   35064       6   35058   35124   35172       5   35049   35115   35169       5
   35043   35115   35049       6   35043   35115   35169       5   35040   35109
   35160       6   35037   35001   35040       6   35037   35103   35160       6
   35034   35097   35151       6   35031   34998   35034       6   35031   35091
   35151       6   35028   35085   35142       6   35025   34992   35028       6
   35025   35079   35142       6   35022   35073   35136       6   35019   34989
   35022       6   35019   35067   35136       6   35016   35064   35124       6
   35013   34986   35016       6   35013   35058   35124       6   35010   35049
   35115       6   35007   34983   35010       6   35007   35043   35115       6
   35001   35037   35103       6   35001   35040   35109       6   34998   34974
   35001       7   34998   35031   35091       6   34998   35034   35097       6
   34992   35025   35079       6   34992   35028   35085       6   34989   34965
   34992       7   34989   35019   35067       6   34989   35022   35073       6
   34986   35013   35058       6   34986   35016   35064       6   34983   34962
   34986       7   34983   35007   35043       6   34983   35010   35049       6
   34974   34944   34977       8   34974   34998   35031       8   34974   34998
   35034       8   34974   35001   35037       8   34974   35001   35040       8
   34965   34932   34968       8   34965   34989   35019       8   34965   34989
   35022       8   34965   34992   35025       8   34965   34992   35028       8
   34962   34983   35007       8   34962   34983   35010       8   34962   34986
   35013       8   34962   34986   35016       8   34944   34974   34998       7
   34944   34974   35001       7   34944   34977   34947       6   34932   34965
   34989       7   34932   34965   34992       7   34932   34968   34938       6
   34926   34962   34983       7   34926   34962   34986       7   34920   34926
   34962       8   34914   34908   34938       9   34914   34947   34977      10
   34911   34893   34914      10   34911   34944   34974       8   34911   34944
   34977       6   34908   34914   34947       9   34908   34938   34968      10
   34905   34890   34908      10   34905   34932   34965       8   34905   34932
   34968       6   34902   34926   34920       6   34902   34926   34962       8
   34899   34920   34926       6   34893   34911   34944       6   34893   34914
   34908       9   34893   34914   34947      12   34890   34869   34893      13
   34890   34905   34932       6   34890   34908   34914       9   34890   34908
   34938      12   34887   34869   34890      13   34887   34869   34893      13
   34887   34884   34899      12   34887   34902   34926       6   34884   34887
   34902      10   34884   34899   34920      10   34875   34896   34917       4
   34869   34887   34884      14   34869   34887   34902      15   34869   34890
   34905      15   34869   34890   34908      14   34869   34893   34911      15
   34869   34893   34914      14   34866   34842   34869      14   34866   34884
   34887       9   34866   34884   34899       9   34860   34875   34896       5
   34854   34875   34860       6   34854   34875   34896       5   34848   34866
   34884       9   34842   34866   34848      12   34842   34866   34884       9
   34842   34869   34887      13   34842   34869   34890      13   34842   34869
   34893      13   34839   34860   34875       6   34836   34827   34839       6
   34836   34854   34875       6   34833   34848   34866      10   34830   34824
   34833       6   34830   34842   34866      10   34830   34842   34869      15
   34827   34836   34854       6   34827   34839   34860       6   34824   34821
   34827       7   34824   34830   34842       6   34824   34833   34848       6
   34821   34824   34830       8   34821   34824   34833       8   34821   34827
   34836       8   34821   34827   34839       8   34812   34821   34824       7
   34812   34821   34827       7   34806   34812   34821       8   34800   34812
   34806       6   34800   34812   34821       8   34788   34806   34812       6
   34785   34779   34788       6   34785   34800   34812       6   34779   34776
   34782       4   34779   34785   34800       6   34779   34788   34806       6
   34776   34779   34785       5   34776   34779   34788       5   35643   35667
   35685       4   35634   35664   35682       4   35625   35661   35679       4
   35619   35658   35676       4   35607   35655   35673       4   35598   35652
   35670       4   35592   35643   35667       5   35586   35643   35592       6
   35586   35643   35667       5   35580   35634   35664       5   35574   35634
   35580       6   35574   35634   35664       5   35568   35625   35661       5
   35562   35625   35568       6   35562   35625   35661       5   35556   35619
   35658       5   35550   35619   35556       6   35550   35619   35658       5
   35547   35607   35655       5   35541   35607   35547       6   35541   35607
   35655       5   35532   35598   35652       5   35526   35598   35532       6
   35526   35598   35652       5   35523   35592   35643       6   35520   35484
   35523       6   35520   35586   35643       6   35517   35580   35634       6
   35514   35481   35517       6   35514   35574   35634       6   35511   35568
   35625       6   35508   35475   35511       6   35508   35562   35625       6
   35505   35556   35619       6   35502   35472   35505       6   35502   35550
   35619       6   35499   35547   35607       6   35496   35469   35499       6
   35496   35541   35607       6   35493   35532   35598       6   35490   35466
   35493       6   35490   35526   35598       6   35484   35520   35586       6
   35484   35523   35592       6   35481   35457   35484       7   35481   35514
   35574       6   35481   35517   35580       6   35475   35508   35562       6
   35475   35511   35568       6   35472   35448   35475       7   35472   35502
   35550       6   35472   35505   35556       6   35469   35496   35541       6
   35469   35499   35547       6   35466   35445   35469       7   35466   35490
   35526       6   35466   35493   35532       6   35457   35427   35460       8
   35457   35481   35514       8   35457   35481   35517       8   35457   35484
   35520       8   35457   35484   35523       8   35448   35415   35451       8
   35448   35472   35502       8   35448   35472   35505       8   35448   35475
   35508       8   35448   35475   35511       8   35445   35466   35490       8
   35445   35466   35493       8   35445   35469   35496       8   35445   35469
   35499       8   35427   35457   35481       7   35427   35457   35484       7
   35427   35460   35430       6   35415   35448   35472       7   35415   35448
   35475       7   35415   35451   35421       6   35409   35445   35466       7
   35409   35445   35469       7   35403   35409   35445       8   35397   35391
   35421       9   35397   35430   35460      10   35394   35376   35397      10
   35394   35427   35457       8   35394   35427   35460       6   35391   35397
   35430       9   35391   35421   35451      10   35388   35373   35391      10
   35388   35415   35448       8   35388   35415   35451       6   35385   35409
   35403       6   35385   35409   35445       8   35382   35403   35409       6
   35376   35394   35427       6   35376   35397   35391       9   35376   35397
   35430      12   35373   35352   35376      13   35373   35388   35415       6
   35373   35391   35397       9   35373   35391   35421      12   35370   35352
   35373      13   35370   35352   35376      13   35370   35367   35382      12
   35370   35385   35409       6   35367   35370   35385      10   35367   35382
   35403      10   35358   35379   35400       4   35352   35370   35367      14
   35352   35370   35385      15   35352   35373   35388      15   35352   35373
   35391      14   35352   35376   35394      15   35352   35376   35397      14
   35349   35325   35352      14   35349   35367   35370       9   35349   35367
   35382       9   35343   35358   35379       5   35337   35358   35343       6
   35337   35358   35379       5   35331   35349   35367       9   35325   35349
   35331      12   35325   35349   35367       9   35325   35352   35370      13
   35325   35352   35373      13   35325   35352   35376      13   35322   35343
   35358       6   35319   35310   35322       6   35319   35337   35358       6
   35316   35331   35349      10   35313   35307   35316       6   35313   35325
   35349      10   35313   35325   35352      15   35310   35319   35337       6
   35310   35322   35343       6   35307   35304   35310       7   35307   35313
   35325       6   35307   35316   35331       6   35304   35307   35313       8
   35304   35307   35316       8   35304   35310   35319       8   35304   35310
   35322       8   35295   35304   35307       7   35295   35304   35310       7
   35289   35295   35304       8   35283   35295   35289       6   35283   35295
   35304       8   35271   35289   35295       6   35268   35262   35271       6
   35268   35283   35295       6   35262   35259   35265       4   35262   35268
   35283       6   35262   35271   35289       6   35259   35262   35268       5
   35259   35262   35271       5   36126   36150   36168       4   36117   36147
   36165       4   36108   36144   36162       4   36102   36141   36159       4
   36090   36138   36156       4   36081   36135   36153       4   36075   36126
   36150       5   36069   36126   36075       6   36069   36126   36150       5
   36063   36117   36147       5   36057   36117   36063       6   36057   36117
   36147       5   36051   36108   36144       5   36045   36108   36051       6
   36045   36108   36144       5   36039   36102   36141       5   36033   36102
   36039       6   36033   36102   36141       5   36030   36090   36138       5
   36024   36090   36030       6   36024   36090   36138       5   36015   36081
   36135       5   36009   36081   36015       6   36009   36081   36135       5
   36006   36075   36126       6   36003   35967   36006       6   36003   36069
   36126       6   36000   36063   36117       6   35997   35964   36000       6
   35997   36057   36117       6   35994   36051   36108       6   35991   35958
   35994       6   35991   36045   36108       6   35988   36039   36102       6
   35985   35955   35988       6   35985   36033   36102       6   35982   36030
   36090       6   35979   35952   35982       6   35979   36024   36090       6
   35976   36015   36081       6   35973   35949   35976       6   35973   36009
   36081       6   35967   36003   36069       6   35967   36006   36075       6
   35964   35940   35967       7   35964   35997   36057       6   35964   36000
   36063       6   35958   35991   36045       6   35958   35994   36051       6
   35955   35931   35958       7   35955   35985   36033       6   35955   35988
   36039       6   35952   35979   36024       6   35952   35982   36030       6
   35949   35928   35952       7   35949   35973   36009       6   35949   35976
   36015       6   35940   35910   35943       8   35940   35964   35997       8
   35940   35964   36000       8   35940   35967   36003       8   35940   35967
   36006       8   35931   35898   35934       8   35931   35955   35985       8
   35931   35955   35988       8   35931   35958   35991       8   35931   35958
   35994       8   35928   35949   35973       8   35928   35949   35976       8
   35928   35952   35979       8   35928   35952   35982       8   35910   35940
   35964       7   35910   35940   35967       7   35910   35943   35913       6
   35898   35931   35955       7   35898   35931   35958       7   35898   35934
   35904       6   35892   35928   35949       7   35892   35928   35952       7
   35886   35892   35928       8   35880   35874   35904       9   35880   35913
   35943      10   35877   35859   35880      10   35877   35910   35940       8
   35877   35910   35943       6   35874   35880   35913       9   35874   35904
   35934      10   35871   35856   35874      10   35871   35898   35931       8
   35871   35898   35934       6   35868   35892   35886       6   35868   35892
   35928       8   35865   35886   35892       6   35859   35877   35910       6
   35859   35880   35874       9   35859   35880   35913      12   35856   35835
   35859      13   35856   35871   35898       6   35856   35874   35880       9
   35856   35874   35904      12   35853   35835   35856      13   35853   35835
   35859      13   35853   35850   35865      12   35853   35868   35892       6
   35850   35853   35868      10   35850   35865   35886      10   35841   35862
   35883       4   35835   35853   35850      14   35835   35853   35868      15
   35835   35856   35871      15   35835   35856   35874      14   35835   35859
   35877      15   35835   35859   35880      14   35832   35808   35835      14
   35832   35850   35853       9   35832   35850   35865       9   35826   35841
   35862       5   35820   35841   35826       6   35820   35841   35862       5
   35814   35832   35850       9   35808   35832   35814      12   35808   35832
   35850       9   35808   35835   35853      13   35808   35835   35856      13
   35808   35835   35859      13   35805   35826   35841       6   35802   35793
   35805       6   35802   35820   35841       6   35799   35814   35832      10
   35796   35790   35799       6   35796   35808   35832      10   35796   35808
   35835      15   35793   35802   35820       6   35793   35805   35826       6
   35790   35787   35793       7   35790   35796   35808       6   35790   35799
   35814       6   35787   35790   35796       8   35787   35790   35799       8
   35787   35793   35802       8   35787   35793   35805       8   35778   35787
   35790       7   35778   35787   35793       7   35772   35778   35787       8
   35766   35778   35772       6   35766   35778   35787       8   35754   35772
   35778       6   35751   35745   35754       6   35751   35766   35778       6
   35745   35742   35748       4   35745   35751   35766       6   35745   35754
   35772       6   35742   35745   35751       5   35742   35745   35754       5
   36609   36633   36651       4   36600   36630   36648       4   36591   36627
   36645       4   36585   36624   36642       4   36573   36621   36639       4
   36564   36618   36636       4   36558   36609   36633       5   36552   36609
   36558       6   36552   36609   36633       5   36546   36600   36630       5
   36540   36600   36546       6   36540   36600   36630       5   36534   36591
   36627       5   36528   36591   36534       6   36528   36591   36627       5
   36522   36585   36624       5   36516   36585   36522       6   36516   36585
   36624       5   36513   36573   36621       5   36507   36573   36513       6
   36507   36573   36621       5   36498   36564   36618       5   36492   36564
   36498       6   36492   36564   36618       5   36489   36558   36609       6
   36486   36450   36489       6   36486   36552   36609       6   36483   36546
   36600       6   36480   36447   36483       6   36480   36540   36600       6
   36477   36534   36591       6   36474   36441   36477       6   36474   36528
   36591       6   36471   36522   36585       6   36468   36438   36471       6
   36468   36516   36585       6   36465   36513   36573       6   36462   36435
   36465       6   36462   36507   36573       6   36459   36498   36564       6
   36456   36432   36459       6   36456   36492   36564       6   36450   36486
   36552       6   36450   36489   36558       6   36447   36423   36450       7
   36447   36480   36540       6   36447   36483   36546       6   36441   36474
   36528       6   36441   36477   36534       6   36438   36414   36441       7
   36438   36468   36516       6   36438   36471   36522       6   36435   36462
   36507       6   36435   36465   36513       6   36432   36411   36435       7
   36432   36456   36492       6   36432   36459   36498       6   36423   36393
   36426       8   36423   36447   36480       8   36423   36447   36483       8
   36423   36450   36486       8   36423   36450   36489       8   36414   36381
   36417       8   36414   36438   36468       8   36414   36438   36471       8
   36414   36441   36474       8   36414   36441   36477       8   36411   36432
   36456       8   36411   36432   36459       8   36411   36435   36462       8
   36411   36435   36465       8   36393   36423   36447       7   36393   36423
   36450       7   36393   36426   36396       6   36381   36414   36438       7
   36381   36414   36441       7   36381   36417   36387       6   36375   36411
   36432       7   36375   36411   36435       7   36369   36375   36411       8
   36363   36357   36387       9   36363   36396   36426      10   36360   36342
   36363      10   36360   36393   36423       8   36360   36393   36426       6
   36357   36363   36396       9   36357   36387   36417      10   36354   36339
   36357      10   36354   36381   36414       8   36354   36381   36417       6
   36351   36375   36369       6   36351   36375   36411       8   36348   36369
   36375       6   36342   36360   36393       6   36342   36363   36357       9
   36342   36363   36396      12   36339   36318   36342      13   36339   36354
   36381       6   36339   36357   36363       9   36339   36357   36387      12
   36336   36318   36339      13   36336   36318   36342      13   36336   36333
   36348      12   36336   36351   36375       6   36333   36336   36351      10
   36333   36348   36369      10   36324   36345   36366       4   36318   36336
   36333      14   36318   36336   36351      15   36318   36339   36354      15
   36318   36339   36357      14   36318   36342   36360      15   36318   36342
   36363      14   36315   36291   36318      14   36315   36333   36336       9
   36315   36333   36348       9   36309   36324   36345       5   36303   36324
   36309       6   36303   36324   36345       5   36297   36315   36333       9
   36291   36315   36297      12   36291   36315   36333       9   36291   36318
   36336      13   36291   36318   36339      13   36291   36318   36342      13
   36288   36309   36324       6   36285   36276   36288       6   36285   36303
   36324       6   36282   36297   36315      10   36279   36273   36282       6
   36279   36291   36315      10   36279   36291   36318      15   36276   36285
   36303       6   36276   36288   36309       6   36273   36270   36276       7
   36273   36279   36291       6   36273   36282   36297       6   36270   36273
   36279       8   36270   36273   36282       8   36270   36276   36285       8
   36270   36276   36288       8   36261   36270   36273       7   36261   36270
   36276       7   36255   36261   36270       8   36249   36261   36255       6
   36249   36261   36270       8   36237   36255   36261       6   36234   36228
   36237       6   36234   36249   36261       6   36228   36225   36231       4
   36228   36234   36249       6   36228   36237   36255       6   36225   36228
   36234       5   36225   36228   36237       5   37092   37116   37134       4
   37083   37113   37131       4   37074   37110   37128       4   37068   37107
   37125       4   37056   37104   37122       4   37047   37101   37119       4
   37041   37092   37116       5   37035   37092   37041       6   37035   37092
   37116       5   37029   37083   37113       5   37023   37083   37029       6
   37023   37083   37113       5   37017   37074   37110       5   37011   37074
   37017       6   37011   37074   37110       5   37005   37068   37107       5
   36999   37068   37005       6   36999   37068   37107       5   36996   37056
   37104       5   36990   37056   36996       6   36990   37056   37104       5
   36981   37047   37101       5   36975   37047   36981       6   36975   37047
   37101       5   36972   37041   37092       6   36969   36933   36972       6
   36969   37035   37092       6   36966   37029   37083       6   36963   36930
   36966       6   36963   37023   37083       6   36960   37017   37074       6
   36957   36924   36960       6   36957   37011   37074       6   36954   37005
   37068       6   36951   36921   36954       6   36951   36999   37068       6
   36948   36996   37056       6   36945   36918   36948       6   36945   36990
   37056       6   36942   36981   37047       6   36939   36915   36942       6
   36939   36975   37047       6   36933   36969   37035       6   36933   36972
   37041       6   36930   36906   36933       7   36930   36963   37023       6
   36930   36966   37029       6   36924   36957   37011       6   36924   36960
   37017       6   36921   36897   36924       7   36921   36951   36999       6
   36921   36954   37005       6   36918   36945   36990       6   36918   36948
   36996       6   36915   36894   36918       7   36915   36939   36975       6
   36915   36942   36981       6   36906   36876   36909       8   36906   36930
   36963       8   36906   36930   36966       8   36906   36933   36969       8
   36906   36933   36972       8   36897   36864   36900       8   36897   36921
   36951       8   36897   36921   36954       8   36897   36924   36957       8
   36897   36924   36960       8   36894   36915   36939       8   36894   36915
   36942       8   36894   36918   36945       8   36894   36918   36948       8
   36876   36906   36930       7   36876   36906   36933       7   36876   36909
   36879       6   36864   36897   36921       7   36864   36897   36924       7
   36864   36900   36870       6   36858   36894   36915       7   36858   36894
   36918       7   36852   36858   36894       8   36846   36840   36870       9
   36846   36879   36909      10   36843   36825   36846      10   36843   36876
   36906       8   36843   36876   36909       6   36840   36846   36879       9
   36840   36870   36900      10   36837   36822   36840      10   36837   36864
   36897       8   36837   36864   36900       6   36834   36858   36852       6
   36834   36858   36894       8   36831   36852   36858       6   36825   36843
   36876       6   36825   36846   36840       9   36825   36846   36879      12
   36822   36801   36825      13   36822   36837   36864       6   36822   36840
   36846       9   36822   36840   36870      12   36819   36801   36822      13
   36819   36801   36825      13   36819   36816   36831      12   36819   36834
   36858       6   36816   36819   36834      10   36816   36831   36852      10
   36807   36828   36849       4   36801   36819   36816      14   36801   36819
   36834      15   36801   36822   36837      15   36801   36822   36840      14
   36801   36825   36843      15   36801   36825   36846      14   36798   36774
   36801      14   36798   36816   36819       9   36798   36816   36831       9
   36792   36807   36828       5   36786   36807   36792       6   36786   36807
   36828       5   36780   36798   36816       9   36774   36798   36780      12
   36774   36798   36816       9   36774   36801   36819      13   36774   36801
   36822      13   36774   36801   36825      13   36771   36792   36807       6
   36768   36759   36771       6   36768   36786   36807       6   36765   36780
   36798      10   36762   36756   36765       6   36762   36774   36798      10
   36762   36774   36801      15   36759   36768   36786       6   36759   36771
   36792       6   36756   36753   36759       7   36756   36762   36774       6
   36756   36765   36780       6   36753   36756   36762       8   36753   36756
   36765       8   36753   36759   36768       8   36753   36759   36771       8
   36744   36753   36756       7   36744   36753   36759       7   36738   36744
   36753       8   36732   36744   36738       6   36732   36744   36753       8
   36720   36738   36744       6   36717   36711   36720       6   36717   36732
   36744       6   36711   36708   36714       4   36711   36717   36732       6
   36711   36720   36738       6   36708   36711   36717       5   36708   36711
   36720       5   37575   37599   37617       4   37566   37596   37614       4
   37557   37593   37611       4   37551   37590   37608       4   37539   37587
   37605       4   37530   37584   37602       4   37524   37575   37599       5
   37518   37575   37524       6   37518   37575   37599       5   37512   37566
   37596       5   37506   37566   37512       6   37506   37566   37596       5
   37500   37557   37593       5   37494   37557   37500       6   37494   37557
   37593       5   37488   37551   37590       5   37482   37551   37488       6
   37482   37551   37590       5   37479   37539   37587       5   37473   37539
   37479       6   37473   37539   37587       5   37464   37530   37584       5
   37458   37530   37464       6   37458   37530   37584       5   37455   37524
   37575       6   37452   37416   37455       6   37452   37518   37575       6
   37449   37512   37566       6   37446   37413   37449       6   37446   37506
   37566       6   37443   37500   37557       6   37440   37407   37443       6
   37440   37494   37557       6   37437   37488   37551       6   37434   37404
   37437       6   37434   37482   37551       6   37431   37479   37539       6
   37428   37401   37431       6   37428   37473   37539       6   37425   37464
   37530       6   37422   37398   37425       6   37422   37458   37530       6
   37416   37452   37518       6   37416   37455   37524       6   37413   37389
   37416       7   37413   37446   37506       6   37413   37449   37512       6
   37407   37440   37494       6   37407   37443   37500       6   37404   37380
   37407       7   37404   37434   37482       6   37404   37437   37488       6
   37401   37428   37473       6   37401   37431   37479       6   37398   37377
   37401       7   37398   37422   37458       6   37398   37425   37464       6
   37389   37359   37392       8   37389   37413   37446       8   37389   37413
   37449       8   37389   37416   37452       8   37389   37416   37455       8
   37380   37347   37383       8   37380   37404   37434       8   37380   37404
   37437       8   37380   37407   37440       8   37380   37407   37443       8
   37377   37398   37422       8   37377   37398   37425       8   37377   37401
   37428       8   37377   37401   37431       8   37359   37389   37413       7
   37359   37389   37416       7   37359   37392   37362       6   37347   37380
   37404       7   37347   37380   37407       7   37347   37383   37353       6
   37341   37377   37398       7   37341   37377   37401       7   37335   37341
   37377       8   37329   37323   37353       9   37329   37362   37392      10
   37326   37308   37329      10   37326   37359   37389       8   37326   37359
   37392       6   37323   37329   37362       9   37323   37353   37383      10
   37320   37305   37323      10   37320   37347   37380       8   37320   37347
   37383       6   37317   37341   37335       6   37317   37341   37377       8
   37314   37335   37341       6   37308   37326   37359       6   37308   37329
   37323       9   37308   37329   37362      12   37305   37284   37308      13
   37305   37320   37347       6   37305   37323   37329       9   37305   37323
   37353      12   37302   37284   37305      13   37302   37284   37308      13
   37302   37299   37314      12   37302   37317   37341       6   37299   37302
   37317      10   37299   37314   37335      10   37290   37311   37332       4
   37284   37302   37299      14   37284   37302   37317      15   37284   37305
   37320      15   37284   37305   37323      14   37284   37308   37326      15
   37284   37308   37329      14   37281   37257   37284      14   37281   37299
   37302       9   37281   37299   37314       9   37275   37290   37311       5
   37269   37290   37275       6   37269   37290   37311       5   37263   37281
   37299       9   37257   37281   37263      12   37257   37281   37299       9
   37257   37284   37302      13   37257   37284   37305      13   37257   37284
   37308      13   37254   37275   37290       6   37251   37242   37254       6
   37251   37269   37290       6   37248   37263   37281      10   37245   37239
   37248       6   37245   37257   37281      10   37245   37257   37284      15
   37242   37251   37269       6   37242   37254   37275       6   37239   37236
   37242       7   37239   37245   37257       6   37239   37248   37263       6
   37236   37239   37245       8   37236   37239   37248       8   37236   37242
   37251       8   37236   37242   37254       8   37227   37236   37239       7
   37227   37236   37242       7   37221   37227   37236       8   37215   37227
   37221       6   37215   37227   37236       8   37203   37221   37227       6
   37200   37194   37203       6   37200   37215   37227       6   37194   37191
   37197       4   37194   37200   37215       6   37194   37203   37221       6
   37191   37194   37200       5   37191   37194   37203       5   38058   38082
   38100       4   38049   38079   38097       4   38040   38076   38094       4
   38034   38073   38091       4   38022   38070   38088       4   38013   38067
   38085       4   38007   38058   38082       5   38001   38058   38007       6
   38001   38058   38082       5   37995   38049   38079       5   37989   38049
   37995       6   37989   38049   38079       5   37983   38040   38076       5
   37977   38040   37983       6   37977   38040   38076       5   37971   38034
   38073       5   37965   38034   37971       6   37965   38034   38073       5
   37962   38022   38070       5   37956   38022   37962       6   37956   38022
   38070       5   37947   38013   38067       5   37941   38013   37947       6
   37941   38013   38067       5   37938   38007   38058       6   37935   37899
   37938       6   37935   38001   38058       6   37932   37995   38049       6
   37929   37896   37932       6   37929   37989   38049       6   37926   37983
   38040       6   37923   37890   37926       6   37923   37977   38040       6
   37920   37971   38034       6   37917   37887   37920       6   37917   37965
   38034       6   37914   37962   38022       6   37911   37884   37914       6
   37911   37956   38022       6   37908   37947   38013       6   37905   37881
   37908       6   37905   37941   38013       6   37899   37935   38001       6
   37899   37938   38007       6   37896   37872   37899       7   37896   37929
   37989       6   37896   37932   37995       6   37890   37923   37977       6
   37890   37926   37983       6   37887   37863   37890       7   37887   37917
   37965       6   37887   37920   37971       6   37884   37911   37956       6
   37884   37914   37962       6   37881   37860   37884       7   37881   37905
   37941       6   37881   37908   37947       6   37872   37842   37875       8
   37872   37896   37929       8   37872   37896   37932       8   37872   37899
   37935       8   37872   37899   37938       8   37863   37830   37866       8
   37863   37887   37917       8   37863   37887   37920       8   37863   37890
   37923       8   37863   37890   37926       8   37860   37881   37905       8
   37860   37881   37908       8   37860   37884   37911       8   37860   37884
   37914       8   37842   37872   37896       7   37842   37872   37899       7
   37842   37875   37845       6   37830   37863   37887       7   37830   37863
   37890       7   37830   37866   37836       6   37824   37860   37881       7
   37824   37860   37884       7   37818   37824   37860       8   37812   37806
   37836       9   37812   37845   37875      10   37809   37791   37812      10
   37809   37842   37872       8   37809   37842   37875       6   37806   37812
   37845       9   37806   37836   37866      10   37803   37788   37806      10
   37803   37830   37863       8   37803   37830   37866       6   37800   37824
   37818       6   37800   37824   37860       8   37797   37818   37824       6
   37791   37809   37842       6   37791   37812   37806       9   37791   37812
   37845      12   37788   37767   37791      13   37788   37803   37830       6
   37788   37806   37812       9   37788   37806   37836      12   37785   37767
   37788      13   37785   37767   37791      13   37785   37782   37797      12
   37785   37800   37824       6   37782   37785   37800      10   37782   37797
   37818      10   37773   37794   37815       4   37767   37785   37782      14
   37767   37785   37800      15   37767   37788   37803      15   37767   37788
   37806      14   37767   37791   37809      15   37767   37791   37812      14
   37764   37740   37767      14   37764   37782   37785       9   37764   37782
   37797       9   37758   37773   37794       5   37752   37773   37758       6
   37752   37773   37794       5   37746   37764   37782       9   37740   37764
   37746      12   37740   37764   37782       9   37740   37767   37785      13
   37740   37767   37788      13   37740   37767   37791      13   37737   37758
   37773       6   37734   37725   37737       6   37734   37752   37773       6
   37731   37746   37764      10   37728   37722   37731       6   37728   37740
   37764      10   37728   37740   37767      15   37725   37734   37752       6
   37725   37737   37758       6   37722   37719   37725       7   37722   37728
   37740       6   37722   37731   37746       6   37719   37722   37728       8
   37719   37722   37731       8   37719   37725   37734       8   37719   37725
   37737       8   37710   37719   37722       7   37710   37719   37725       7
   37704   37710   37719       8   37698   37710   37704       6   37698   37710
   37719       8   37686   37704   37710       6   37683   37677   37686       6
   37683   37698   37710       6   37677   37674   37680       4   37677   37683
   37698       6   37677   37686   37704       6   37674   37677   37683       5
   37674   37677   37686       5   38541   38565   38583       4   38532   38562
   38580       4   38523   38559   38577       4   38517   38556   38574       4
   38505   38553   38571       4   38496   38550   38568       4   38490   38541
   38565       5   38484   38541   38490       6   38484   38541   38565       5
   38478   38532   38562       5   38472   38532   38478       6   38472   38532
   38562       5   38466   38523   38559       5   38460   38523   38466       6
   38460   38523   38559       5   38454   38517   38556       5   38448   38517
   38454       6   38448   38517   38556       5   38445   38505   38553       5
   38439   38505   38445       6   38439   38505   38553       5   38430   38496
   38550       5   38424   38496   38430       6   38424   38496   38550       5
   38421   38490   38541       6   38418   38382   38421       6   38418   38484
   38541       6   38415   38478   38532       6   38412   38379   38415       6
   38412   38472   38532       6   38409   38466   38523       6   38406   38373
   38409       6   38406   38460   38523       6   38403   38454   38517       6
   38400   38370   38403       6   38400   38448   38517       6   38397   38445
   38505       6   38394   38367   38397       6   38394   38439   38505       6
   38391   38430   38496       6   38388   38364   38391       6   38388   38424
   38496       6   38382   38418   38484       6   38382   38421   38490       6
   38379   38355   38382       7   38379   38412   38472       6   38379   38415
   38478       6   38373   38406   38460       6   38373   38409   38466       6
   38370   38346   38373       7   38370   38400   38448       6   38370   38403
   38454       6   38367   38394   38439       6   38367   38397   38445       6
   38364   38343   38367       7   38364   38388   38424       6   38364   38391
   38430       6   38355   38325   38358       8   38355   38379   38412       8
   38355   38379   38415       8   38355   38382   38418       8   38355   38382
   38421       8   38346   38313   38349       8   38346   38370   38400       8
   38346   38370   38403       8   38346   38373   38406       8   38346   38373
   38409       8   38343   38364   38388       8   38343   38364   38391       8
   38343   38367   38394       8   38343   38367   38397       8   38325   38355
   38379       7   38325   38355   38382       7   38325   38358   38328       6
   38313   38346   38370       7   38313   38346   38373       7   38313   38349
   38319       6   38307   38343   38364       7   38307   38343   38367       7
   38301   38307   38343       8   38295   38289   38319       9   38295   38328
   38358      10   38292   38274   38295      10   38292   38325   38355       8
   38292   38325   38358       6   38289   38295   38328       9   38289   38319
   38349      10   38286   38271   38289      10   38286   38313   38346       8
   38286   38313   38349       6   38283   38307   38301       6   38283   38307
   38343       8   38280   38301   38307       6   38274   38292   38325       6
   38274   38295   38289       9   38274   38295   38328      12   38271   38250
   38274      13   38271   38286   38313       6   38271   38289   38295       9
   38271   38289   38319      12   38268   38250   38271      13   38268   38250
   38274      13   38268   38265   38280      12   38268   38283   38307       6
   38265   38268   38283      10   38265   38280   38301      10   38256   38277
   38298       4   38250   38268   38265      14   38250   38268   38283      15
   38250   38271   38286      15   38250   38271   38289      14   38250   38274
   38292      15   38250   38274   38295      14   38247   38223   38250      14
   38247   38265   38268       9   38247   38265   38280       9   38241   38256
   38277       5   38235   38256   38241       6   38235   38256   38277       5
   38229   38247   38265       9   38223   38247   38229      12   38223   38247
   38265       9   38223   38250   38268      13   38223   38250   38271      13
   38223   38250   38274      13   38220   38241   38256       6   38217   38208
   38220       6   38217   38235   38256       6   38214   38229   38247      10
   38211   38205   38214       6   38211   38223   38247      10   38211   38223
   38250      15   38208   38217   38235       6   38208   38220   38241       6
   38205   38202   38208       7   38205   38211   38223       6   38205   38214
   38229       6   38202   38205   38211       8   38202   38205   38214       8
   38202   38208   38217       8   38202   38208   38220       8   38193   38202
   38205       7   38193   38202   38208       7   38187   38193   38202       8
   38181   38193   38187       6   38181   38193   38202       8   38169   38187
   38193       6   38166   38160   38169       6   38166   38181   38193       6
   38160   38157   38163       4   38160   38166   38181       6   38160   38169
   38187       6   38157   38160   38166       5   38157   38160   38169       5
   39024   39048   39066       4   39015   39045   39063       4   39006   39042
   39060       4   39000   39039   39057       4   38988   39036   39054       4
   38979   39033   39051       4   38973   39024   39048       5   38967   39024
   38973       6   38967   39024   39048       5   38961   39015   39045       5
   38955   39015   38961       6   38955   39015   39045       5   38949   39006
   39042       5   38943   39006   38949       6   38943   39006   39042       5
   38937   39000   39039       5   38931   39000   38937       6   38931   39000
   39039       5   38928   38988   39036       5   38922   38988   38928       6
   38922   38988   39036       5   38913   38979   39033       5   38907   38979
   38913       6   38907   38979   39033       5   38904   38973   39024       6
   38901   38865   38904       6   38901   38967   39024       6   38898   38961
   39015       6   38895   38862   38898       6   38895   38955   39015       6
   38892   38949   39006       6   38889   38856   38892       6   38889   38943
   39006       6   38886   38937   39000       6   38883   38853   38886       6
   38883   38931   39000       6   38880   38928   38988       6   38877   38850
   38880       6   38877   38922   38988       6   38874   38913   38979       6
   38871   38847   38874       6   38871   38907   38979       6   38865   38901
   38967       6   38865   38904   38973       6   38862   38838   38865       7
   38862   38895   38955       6   38862   38898   38961       6   38856   38889
   38943       6   38856   38892   38949       6   38853   38829   38856       7
   38853   38883   38931       6   38853   38886   38937       6   38850   38877
   38922       6   38850   38880   38928       6   38847   38826   38850       7
   38847   38871   38907       6   38847   38874   38913       6   38838   38808
   38841       8   38838   38862   38895       8   38838   38862   38898       8
   38838   38865   38901       8   38838   38865   38904       8   38829   38796
   38832       8   38829   38853   38883       8   38829   38853   38886       8
   38829   38856   38889       8   38829   38856   38892       8   38826   38847
   38871       8   38826   38847   38874       8   38826   38850   38877       8
   38826   38850   38880       8   38808   38838   38862       7   38808   38838
   38865       7   38808   38841   38811       6   38796   38829   38853       7
   38796   38829   38856       7   38796   38832   38802       6   38790   38826
   38847       7   38790   38826   38850       7   38784   38790   38826       8
   38778   38772   38802       9   38778   38811   38841      10   38775   38757
   38778      10   38775   38808   38838       8   38775   38808   38841       6
   38772   38778   38811       9   38772   38802   38832      10   38769   38754
   38772      10   38769   38796   38829       8   38769   38796   38832       6
   38766   38790   38784       6   38766   38790   38826       8   38763   38784
   38790       6   38757   38775   38808       6   38757   38778   38772       9
   38757   38778   38811      12   38754   38733   38757      13   38754   38769
   38796       6   38754   38772   38778       9   38754   38772   38802      12
   38751   38733   38754      13   38751   38733   38757      13   38751   38748
   38763      12   38751   38766   38790       6   38748   38751   38766      10
   38748   38763   38784      10   38739   38760   38781       4   38733   38751
   38748      14   38733   38751   38766      15   38733   38754   38769      15
   38733   38754   38772      14   38733   38757   38775      15   38733   38757
   38778      14   38730   38706   38733      14   38730   38748   38751       9
   38730   38748   38763       9   38724   38739   38760       5   38718   38739
   38724       6   38718   38739   38760       5   38712   38730   38748       9
   38706   38730   38712      12   38706   38730   38748       9   38706   38733
   38751      13   38706   38733   38754      13   38706   38733   38757      13
   38703   38724   38739       6   38700   38691   38703       6   38700   38718
   38739       6   38697   38712   38730      10   38694   38688   38697       6
   38694   38706   38730      10   38694   38706   38733      15   38691   38700
   38718       6   38691   38703   38724       6   38688   38685   38691       7
   38688   38694   38706       6   38688   38697   38712       6   38685   38688
   38694       8   38685   38688   38697       8   38685   38691   38700       8
   38685   38691   38703       8   38676   38685   38688       7   38676   38685
   38691       7   38670   38676   38685       8   38664   38676   38670       6
   38664   38676   38685       8   38652   38670   38676       6   38649   38643
   38652       6   38649   38664   38676       6   38643   38640   38646       4
   38643   38649   38664       6   38643   38652   38670       6   38640   38643
   38649       5   38640   38643   38652       5   39507   39531   39549       4
   39498   39528   39546       4   39489   39525   39543       4   39483   39522
   39540       4   39471   39519   39537       4   39462   39516   39534       4
   39456   39507   39531       5   39450   39507   39456       6   39450   39507
   39531       5   39444   39498   39528       5   39438   39498   39444       6
   39438   39498   39528       5   39432   39489   39525       5   39426   39489
   39432       6   39426   39489   39525       5   39420   39483   39522       5
   39414   39483   39420       6   39414   39483   39522       5   39411   39471
   39519       5   39405   39471   39411       6   39405   39471   39519       5
   39396   39462   39516       5   39390   39462   39396       6   39390   39462
   39516       5   39387   39456   39507       6   39384   39348   39387       6
   39384   39450   39507       6   39381   39444   39498       6   39378   39345
   39381       6   39378   39438   39498       6   39375   39432   39489       6
   39372   39339   39375       6   39372   39426   39489       6   39369   39420
   39483       6   39366   39336   39369       6   39366   39414   39483       6
   39363   39411   39471       6   39360   39333   39363       6   39360   39405
   39471       6   39357   39396   39462       6   39354   39330   39357       6
   39354   39390   39462       6   39348   39384   39450       6   39348   39387
   39456       6   39345   39321   39348       7   39345   39378   39438       6
   39345   39381   39444       6   39339   39372   39426       6   39339   39375
   39432       6   39336   39312   39339       7   39336   39366   39414       6
   39336   39369   39420       6   39333   39360   39405       6   39333   39363
   39411       6   39330   39309   39333       7   39330   39354   39390       6
   39330   39357   39396       6   39321   39291   39324       8   39321   39345
   39378       8   39321   39345   39381       8   39321   39348   39384       8
   39321   39348   39387       8   39312   39279   39315       8   39312   39336
   39366       8   39312   39336   39369       8   39312   39339   39372       8
   39312   39339   39375       8   39309   39330   39354       8   39309   39330
   39357       8   39309   39333   39360       8   39309   39333   39363       8
   39291   39321   39345       7   39291   39321   39348       7   39291   39324
   39294       6   39279   39312   39336       7   39279   39312   39339       7
   39279   39315   39285       6   39273   39309   39330       7   39273   39309
   39333       7   39267   39273   39309       8   39261   39255   39285       9
   39261   39294   39324      10   39258   39240   39261      10   39258   39291
   39321       8   39258   39291   39324       6   39255   39261   39294       9
   39255   39285   39315      10   39252   39237   39255      10   39252   39279
   39312       8   39252   39279   39315       6   39249   39273   39267       6
   39249   39273   39309       8   39246   39267   39273       6   39240   39258
   39291       6   39240   39261   39255       9   39240   39261   39294      12
   39237   39216   39240      13   39237   39252   39279       6   39237   39255
   39261       9   39237   39255   39285      12   39234   39216   39237      13
   39234   39216   39240      13   39234   39231   39246      12   39234   39249
   39273       6   39231   39234   39249      10   39231   39246   39267      10
   39222   39243   39264       4   39216   39234   39231      14   39216   39234
   39249      15   39216   39237   39252      15   39216   39237   39255      14
   39216   39240   39258      15   39216   39240   39261      14   39213   39189
   39216      14   39213   39231   39234       9   39213   39231   39246       9
   39207   39222   39243       5   39201   39222   39207       6   39201   39222
   39243       5   39195   39213   39231       9   39189   39213   39195      12
   39189   39213   39231       9   39189   39216   39234      13   39189   39216
   39237      13   39189   39216   39240      13   39186   39207   39222       6
   39183   39174   39186       6   39183   39201   39222       6   39180   39195
   39213      10   39177   39171   39180       6   39177   39189   39213      10
   39177   39189   39216      15   39174   39183   39201       6   39174   39186
   39207       6   39171   39168   39174       7   39171   39177   39189       6
   39171   39180   39195       6   39168   39171   39177       8   39168   39171
   39180       8   39168   39174   39183       8   39168   39174   39186       8
   39159   39168   39171       7   39159   39168   39174       7   39153   39159
   39168       8   39147   39159   39153       6   39147   39159   39168       8
   39135   39153   39159       6   39132   39126   39135       6   39132   39147
   39159       6   39126   39123   39129       4   39126   39132   39147       6
   39126   39135   39153       6   39123   39126   39132       5   39123   39126
   39135       5   39990   40014   40032       4   39981   40011   40029       4
   39972   40008   40026       4   39966   40005   40023       4   39954   40002
   40020       4   39945   39999   40017       4   39939   39990   40014       5
   39933   39990   39939       6   39933   39990   40014       5   39927   39981
   40011       5   39921   39981   39927       6   39921   39981   40011       5
   39915   39972   40008       5   39909   39972   39915       6   39909   39972
   40008       5   39903   39966   40005       5   39897   39966   39903       6
   39897   39966   40005       5   39894   39954   40002       5   39888   39954
   39894       6   39888   39954   40002       5   39879   39945   39999       5
   39873   39945   39879       6   39873   39945   39999       5   39870   39939
   39990       6   39867   39831   39870       6   39867   39933   39990       6
   39864   39927   39981       6   39861   39828   39864       6   39861   39921
   39981       6   39858   39915   39972       6   39855   39822   39858       6
   39855   39909   39972       6   39852   39903   39966       6   39849   39819
   39852       6   39849   39897   39966       6   39846   39894   39954       6
   39843   39816   39846       6   39843   39888   39954       6   39840   39879
   39945       6   39837   39813   39840       6   39837   39873   39945       6
   39831   39867   39933       6   39831   39870   39939       6   39828   39804
   39831       7   39828   39861   39921       6   39828   39864   39927       6
   39822   39855   39909       6   39822   39858   39915       6   39819   39795
   39822       7   39819   39849   39897       6   39819   39852   39903       6
   39816   39843   39888       6   39816   39846   39894       6   39813   39792
   39816       7   39813   39837   39873       6   39813   39840   39879       6
   39804   39774   39807       8   39804   39828   39861       8   39804   39828
   39864       8   39804   39831   39867       8   39804   39831   39870       8
   39795   39762   39798       8   39795   39819   39849       8   39795   39819
   39852       8   39795   39822   39855       8   39795   39822   39858       8
   39792   39813   39837       8   39792   39813   39840       8   39792   39816
   39843       8   39792   39816   39846       8   39774   39804   39828       7
   39774   39804   39831       7   39774   39807   39777       6   39762   39795
   39819       7   39762   39795   39822       7   39762   39798   39768       6
   39756   39792   39813       7   39756   39792   39816       7   39750   39756
   39792       8   39744   39738   39768       9   39744   39777   39807      10
   39741   39723   39744      10   39741   39774   39804       8   39741   39774
   39807       6   39738   39744   39777       9   39738   39768   39798      10
   39735   39720   39738      10   39735   39762   39795       8   39735   39762
   39798       6   39732   39756   39750       6   39732   39756   39792       8
   39729   39750   39756       6   39723   39741   39774       6   39723   39744
   39738       9   39723   39744   39777      12   39720   39699   39723      13
   39720   39735   39762       6   39720   39738   39744       9   39720   39738
   39768      12   39717   39699   39720      13   39717   39699   39723      13
   39717   39714   39729      12   39717   39732   39756       6   39714   39717
   39732      10   39714   39729   39750      10   39705   39726   39747       4
   39699   39717   39714      14   39699   39717   39732      15   39699   39720
   39735      15   39699   39720   39738      14   39699   39723   39741      15
   39699   39723   39744      14   39696   39672   39699      14   39696   39714
   39717       9   39696   39714   39729       9   39690   39705   39726       5
   39684   39705   39690       6   39684   39705   39726       5   39678   39696
   39714       9   39672   39696   39678      12   39672   39696   39714       9
   39672   39699   39717      13   39672   39699   39720      13   39672   39699
   39723      13   39669   39690   39705       6   39666   39657   39669       6
   39666   39684   39705       6   39663   39678   39696      10   39660   39654
   39663       6   39660   39672   39696      10   39660   39672   39699      15
   39657   39666   39684       6   39657   39669   39690       6   39654   39651
   39657       7   39654   39660   39672       6   39654   39663   39678       6
   39651   39654   39660       8   39651   39654   39663       8   39651   39657
   39666       8   39651   39657   39669       8   39642   39651   39654       7
   39642   39651   39657       7   39636   39642   39651       8   39630   39642
   39636       6   39630   39642   39651       8   39618   39636   39642       6
   39615   39609   39618       6   39615   39630   39642       6   39609   39606
   39612       4   39609   39615   39630       6   39609   39618   39636       6
   39606   39609   39615       5   39606   39609   39618       5   40473   40497
   40515       4   40464   40494   40512       4   40455   40491   40509       4
   40449   40488   40506       4   40437   40485   40503       4   40428   40482
   40500       4   40422   40473   40497       5   40416   40473   40422       6
   40416   40473   40497       5   40410   40464   40494       5   40404   40464
   40410       6   40404   40464   40494       5   40398   40455   40491       5
   40392   40455   40398       6   40392   40455   40491       5   40386   40449
   40488       5   40380   40449   40386       6   40380   40449   40488       5
   40377   40437   40485       5   40371   40437   40377       6   40371   40437
   40485       5   40362   40428   40482       5   40356   40428   40362       6
   40356   40428   40482       5   40353   40422   40473       6   40350   40314
   40353       6   40350   40416   40473       6   40347   40410   40464       6
   40344   40311   40347       6   40344   40404   40464       6   40341   40398
   40455       6   40338   40305   40341       6   40338   40392   40455       6
   40335   40386   40449       6   40332   40302   40335       6   40332   40380
   40449       6   40329   40377   40437       6   40326   40299   40329       6
   40326   40371   40437       6   40323   40362   40428       6   40320   40296
   40323       6   40320   40356   40428       6   40314   40350   40416       6
   40314   40353   40422       6   40311   40287   40314       7   40311   40344
   40404       6   40311   40347   40410       6   40305   40338   40392       6
   40305   40341   40398       6   40302   40278   40305       7   40302   40332
   40380       6   40302   40335   40386       6   40299   40326   40371       6
   40299   40329   40377       6   40296   40275   40299       7   40296   40320
   40356       6   40296   40323   40362       6   40287   40257   40290       8
   40287   40311   40344       8   40287   40311   40347       8   40287   40314
   40350       8   40287   40314   40353       8   40278   40245   40281       8
   40278   40302   40332       8   40278   40302   40335       8   40278   40305
   40338       8   40278   40305   40341       8   40275   40296   40320       8
   40275   40296   40323       8   40275   40299   40326       8   40275   40299
   40329       8   40257   40287   40311       7   40257   40287   40314       7
   40257   40290   40260       6   40245   40278   40302       7   40245   40278
   40305       7   40245   40281   40251       6   40239   40275   40296       7
   40239   40275   40299       7   40233   40239   40275       8   40227   40221
   40251       9   40227   40260   40290      10   40224   40206   40227      10
   40224   40257   40287       8   40224   40257   40290       6   40221   40227
   40260       9   40221   40251   40281      10   40218   40203   40221      10
   40218   40245   40278       8   40218   40245   40281       6   40215   40239
   40233       6   40215   40239   40275       8   40212   40233   40239       6
   40206   40224   40257       6   40206   40227   40221       9   40206   40227
   40260      12   40203   40182   40206      13   40203   40218   40245       6
   40203   40221   40227       9   40203   40221   40251      12   40200   40182
   40203      13   40200   40182   40206      13   40200   40197   40212      12
   40200   40215   40239       6   40197   40200   40215      10   40197   40212
   40233      10   40188   40209   40230       4   40182   40200   40197      14
   40182   40200   40215      15   40182   40203   40218      15   40182   40203
   40221      14   40182   40206   40224      15   40182   40206   40227      14
   40179   40155   40182      14   40179   40197   40200       9   40179   40197
   40212       9   40173   40188   40209       5   40167   40188   40173       6
   40167   40188   40209       5   40161   40179   40197       9   40155   40179
   40161      12   40155   40179   40197       9   40155   40182   40200      13
   40155   40182   40203      13   40155   40182   40206      13   40152   40173
   40188       6   40149   40140   40152       6   40149   40167   40188       6
   40146   40161   40179      10   40143   40137   40146       6   40143   40155
   40179      10   40143   40155   40182      15   40140   40149   40167       6
   40140   40152   40173       6   40137   40134   40140       7   40137   40143
   40155       6   40137   40146   40161       6   40134   40137   40143       8
   40134   40137   40146       8   40134   40140   40149       8   40134   40140
   40152       8   40125   40134   40137       7   40125   40134   40140       7
   40119   40125   40134       8   40113   40125   40119       6   40113   40125
   40134       8   40101   40119   40125       6   40098   40092   40101       6
   40098   40113   40125       6   40092   40089   40095       4   40092   40098
   40113       6   40092   40101   40119       6   40089   40092   40098       5
   40089   40092   40101       5   40956   40980   40998       4   40947   40977
   40995       4   40938   40974   40992       4   40932   40971   40989       4
   40920   40968   40986       4   40911   40965   40983       4   40905   40956
   40980       5   40899   40956   40905       6   40899   40956   40980       5
   40893   40947   40977       5   40887   40947   40893       6   40887   40947
   40977       5   40881   40938   40974       5   40875   40938   40881       6
   40875   40938   40974       5   40869   40932   40971       5   40863   40932
   40869       6   40863   40932   40971       5   40860   40920   40968       5
   40854   40920   40860       6   40854   40920   40968       5   40845   40911
   40965       5   40839   40911   40845       6   40839   40911   40965       5
   40836   40905   40956       6   40833   40797   40836       6   40833   40899
   40956       6   40830   40893   40947       6   40827   40794   40830       6
   40827   40887   40947       6   40824   40881   40938       6   40821   40788
   40824       6   40821   40875   40938       6   40818   40869   40932       6
   40815   40785   40818       6   40815   40863   40932       6   40812   40860
   40920       6   40809   40782   40812       6   40809   40854   40920       6
   40806   40845   40911       6   40803   40779   40806       6   40803   40839
   40911       6   40797   40833   40899       6   40797   40836   40905       6
   40794   40770   40797       7   40794   40827   40887       6   40794   40830
   40893       6   40788   40821   40875       6   40788   40824   40881       6
   40785   40761   40788       7   40785   40815   40863       6   40785   40818
   40869       6   40782   40809   40854       6   40782   40812   40860       6
   40779   40758   40782       7   40779   40803   40839       6   40779   40806
   40845       6   40770   40740   40773       8   40770   40794   40827       8
   40770   40794   40830       8   40770   40797   40833       8   40770   40797
   40836       8   40761   40728   40764       8   40761   40785   40815       8
   40761   40785   40818       8   40761   40788   40821       8   40761   40788
   40824       8   40758   40779   40803       8   40758   40779   40806       8
   40758   40782   40809       8   40758   40782   40812       8   40740   40770
   40794       7   40740   40770   40797       7   40740   40773   40743       6
   40728   40761   40785       7   40728   40761   40788       7   40728   40764
   40734       6   40722   40758   40779       7   40722   40758   40782       7
   40716   40722   40758       8   40710   40704   40734       9   40710   40743
   40773      10   40707   40689   40710      10   40707   40740   40770       8
   40707   40740   40773       6   40704   40710   40743       9   40704   40734
   40764      10   40701   40686   40704      10   40701   40728   40761       8
   40701   40728   40764       6   40698   40722   40716       6   40698   40722
   40758       8   40695   40716   40722       6   40689   40707   40740       6
   40689   40710   40704       9   40689   40710   40743      12   40686   40665
   40689      13   40686   40701   40728       6   40686   40704   40710       9
   40686   40704   40734      12   40683   40665   40686      13   40683   40665
   40689      13   40683   40680   40695      12   40683   40698   40722       6
   40680   40683   40698      10   40680   40695   40716      10   40671   40692
   40713       4   40665   40683   40680      14   40665   40683   40698      15
   40665   40686   40701      15   40665   40686   40704      14   40665   40689
   40707      15   40665   40689   40710      14   40662   40638   40665      14
   40662   40680   40683       9   40662   40680   40695       9   40656   40671
   40692       5   40650   40671   40656       6   40650   40671   40692       5
   40644   40662   40680       9   40638   40662   40644      12   40638   40662
   40680       9   40638   40665   40683      13   40638   40665   40686      13
   40638   40665   40689      13   40635   40656   40671       6   40632   40623
   40635       6   40632   40650   40671       6   40629   40644   40662      10
   40626   40620   40629       6   40626   40638   40662      10   40626   40638
   40665      15   40623   40632   40650       6   40623   40635   40656       6
   40620   40617   40623       7   40620   40626   40638       6   40620   40629
   40644       6   40617   40620   40626       8   40617   40620   40629       8
   40617   40623   40632       8   40617   40623   40635       8   40608   40617
   40620       7   40608   40617   40623       7   40602   40608   40617       8
   40596   40608   40602       6   40596   40608   40617       8   40584   40602
   40608       6   40581   40575   40584       6   40581   40596   40608       6
   40575   40572   40578       4   40575   40581   40596       6   40575   40584
   40602       6   40572   40575   40581       5   40572   40575   40584       5
   41439   41463   41481       4   41430   41460   41478       4   41421   41457
   41475       4   41415   41454   41472       4   41403   41451   41469       4
   41394   41448   41466       4   41388   41439   41463       5   41382   41439
   41388       6   41382   41439   41463       5   41376   41430   41460       5
   41370   41430   41376       6   41370   41430   41460       5   41364   41421
   41457       5   41358   41421   41364       6   41358   41421   41457       5
   41352   41415   41454       5   41346   41415   41352       6   41346   41415
   41454       5   41343   41403   41451       5   41337   41403   41343       6
   41337   41403   41451       5   41328   41394   41448       5   41322   41394
   41328       6   41322   41394   41448       5   41319   41388   41439       6
   41316   41280   41319       6   41316   41382   41439       6   41313   41376
   41430       6   41310   41277   41313       6   41310   41370   41430       6
   41307   41364   41421       6   41304   41271   41307       6   41304   41358
   41421       6   41301   41352   41415       6   41298   41268   41301       6
   41298   41346   41415       6   41295   41343   41403       6   41292   41265
   41295       6   41292   41337   41403       6   41289   41328   41394       6
   41286   41262   41289       6   41286   41322   41394       6   41280   41316
   41382       6   41280   41319   41388       6   41277   41253   41280       7
   41277   41310   41370       6   41277   41313   41376       6   41271   41304
   41358       6   41271   41307   41364       6   41268   41244   41271       7
   41268   41298   41346       6   41268   41301   41352       6   41265   41292
   41337       6   41265   41295   41343       6   41262   41241   41265       7
   41262   41286   41322       6   41262   41289   41328       6   41253   41223
   41256       8   41253   41277   41310       8   41253   41277   41313       8
   41253   41280   41316       8   41253   41280   41319       8   41244   41211
   41247       8   41244   41268   41298       8   41244   41268   41301       8
   41244   41271   41304       8   41244   41271   41307       8   41241   41262
   41286       8   41241   41262   41289       8   41241   41265   41292       8
   41241   41265   41295       8   41223   41253   41277       7   41223   41253
   41280       7   41223   41256   41226       6   41211   41244   41268       7
   41211   41244   41271       7   41211   41247   41217       6   41205   41241
   41262       7   41205   41241   41265       7   41199   41205   41241       8
   41193   41187   41217       9   41193   41226   41256      10   41190   41172
   41193      10   41190   41223   41253       8   41190   41223   41256       6
   41187   41193   41226       9   41187   41217   41247      10   41184   41169
   41187      10   41184   41211   41244       8   41184   41211   41247       6
   41181   41205   41199       6   41181   41205   41241       8   41178   41199
   41205       6   41172   41190   41223       6   41172   41193   41187       9
   41172   41193   41226      12   41169   41148   41172      13   41169   41184
   41211       6   41169   41187   41193       9   41169   41187   41217      12
   41166   41148   41169      13   41166   41148   41172      13   41166   41163
   41178      12   41166   41181   41205       6   41163   41166   41181      10
   41163   41178   41199      10   41154   41175   41196       4   41148   41166
   41163      14   41148   41166   41181      15   41148   41169   41184      15
   41148   41169   41187      14   41148   41172   41190      15   41148   41172
   41193      14   41145   41121   41148      14   41145   41163   41166       9
   41145   41163   41178       9   41139   41154   41175       5   41133   41154
   41139       6   41133   41154   41175       5   41127   41145   41163       9
   41121   41145   41127      12   41121   41145   41163       9   41121   41148
   41166      13   41121   41148   41169      13   41121   41148   41172      13
   41118   41139   41154       6   41115   41106   41118       6   41115   41133
   41154       6   41112   41127   41145      10   41109   41103   41112       6
   41109   41121   41145      10   41109   41121   41148      15   41106   41115
   41133       6   41106   41118   41139       6   41103   41100   41106       7
   41103   41109   41121       6   41103   41112   41127       6   41100   41103
   41109       8   41100   41103   41112       8   41100   41106   41115       8
   41100   41106   41118       8   41091   41100   41103       7   41091   41100
   41106       7   41085   41091   41100       8   41079   41091   41085       6
   41079   41091   41100       8   41067   41085   41091       6   41064   41058
   41067       6   41064   41079   41091       6   41058   41055   41061       4
   41058   41064   41079       6   41058   41067   41085       6   41055   41058
   41064       5   41055   41058   41067       5   41922   41946   41964       4
   41913   41943   41961       4   41904   41940   41958       4   41898   41937
   41955       4   41886   41934   41952       4   41877   41931   41949       4
   41871   41922   41946       5   41865   41922   41871       6   41865   41922
   41946       5   41859   41913   41943       5   41853   41913   41859       6
   41853   41913   41943       5   41847   41904   41940       5   41841   41904
   41847       6   41841   41904   41940       5   41835   41898   41937       5
   41829   41898   41835       6   41829   41898   41937       5   41826   41886
   41934       5   41820   41886   41826       6   41820   41886   41934       5
   41811   41877   41931       5   41805   41877   41811       6   41805   41877
   41931       5   41802   41871   41922       6   41799   41763   41802       6
   41799   41865   41922       6   41796   41859   41913       6   41793   41760
   41796       6   41793   41853   41913       6   41790   41847   41904       6
   41787   41754   41790       6   41787   41841   41904       6   41784   41835
   41898       6   41781   41751   41784       6   41781   41829   41898       6
   41778   41826   41886       6   41775   41748   41778       6   41775   41820
   41886       6   41772   41811   41877       6   41769   41745   41772       6
   41769   41805   41877       6   41763   41799   41865       6   41763   41802
   41871       6   41760   41736   41763       7   41760   41793   41853       6
   41760   41796   41859       6   41754   41787   41841       6   41754   41790
   41847       6   41751   41727   41754       7   41751   41781   41829       6
   41751   41784   41835       6   41748   41775   41820       6   41748   41778
   41826       6   41745   41724   41748       7   41745   41769   41805       6
   41745   41772   41811       6   41736   41706   41739       8   41736   41760
   41793       8   41736   41760   41796       8   41736   41763   41799       8
   41736   41763   41802       8   41727   41694   41730       8   41727   41751
   41781       8   41727   41751   41784       8   41727   41754   41787       8
   41727   41754   41790       8   41724   41745   41769       8   41724   41745
   41772       8   41724   41748   41775       8   41724   41748   41778       8
   41706   41736   41760       7   41706   41736   41763       7   41706   41739
   41709       6   41694   41727   41751       7   41694   41727   41754       7
   41694   41730   41700       6   41688   41724   41745       7   41688   41724
   41748       7   41682   41688   41724       8   41676   41670   41700       9
   41676   41709   41739      10   41673   41655   41676      10   41673   41706
   41736       8   41673   41706   41739       6   41670   41676   41709       9
   41670   41700   41730      10   41667   41652   41670      10   41667   41694
   41727       8   41667   41694   41730       6   41664   41688   41682       6
   41664   41688   41724       8   41661   41682   41688       6   41655   41673
   41706       6   41655   41676   41670       9   41655   41676   41709      12
   41652   41631   41655      13   41652   41667   41694       6   41652   41670
   41676       9   41652   41670   41700      12   41649   41631   41652      13
   41649   41631   41655      13   41649   41646   41661      12   41649   41664
   41688       6   41646   41649   41664      10   41646   41661   41682      10
   41637   41658   41679       4   41631   41649   41646      14   41631   41649
   41664      15   41631   41652   41667      15   41631   41652   41670      14
   41631   41655   41673      15   41631   41655   41676      14   41628   41604
   41631      14   41628   41646   41649       9   41628   41646   41661       9
   41622   41637   41658       5   41616   41637   41622       6   41616   41637
   41658       5   41610   41628   41646       9   41604   41628   41610      12
   41604   41628   41646       9   41604   41631   41649      13   41604   41631
   41652      13   41604   41631   41655      13   41601   41622   41637       6
   41598   41589   41601       6   41598   41616   41637       6   41595   41610
   41628      10   41592   41586   41595       6   41592   41604   41628      10
   41592   41604   41631      15   41589   41598   41616       6   41589   41601
   41622       6   41586   41583   41589       7   41586   41592   41604       6
   41586   41595   41610       6   41583   41586   41592       8   41583   41586
   41595       8   41583   41589   41598       8   41583   41589   41601       8
   41574   41583   41586       7   41574   41583   41589       7   41568   41574
   41583       8   41562   41574   41568       6   41562   41574   41583       8
   41550   41568   41574       6   41547   41541   41550       6   41547   41562
   41574       6   41541   41538   41544       4   41541   41547   41562       6
   41541   41550   41568       6   41538   41541   41547       5   41538   41541
   41550       5   42405   42429   42447       4   42396   42426   42444       4
   42387   42423   42441       4   42381   42420   42438       4   42369   42417
   42435       4   42360   42414   42432       4   42354   42405   42429       5
   42348   42405   42354       6   42348   42405   42429       5   42342   42396
   42426       5   42336   42396   42342       6   42336   42396   42426       5
   42330   42387   42423       5   42324   42387   42330       6   42324   42387
   42423       5   42318   42381   42420       5   42312   42381   42318       6
   42312   42381   42420       5   42309   42369   42417       5   42303   42369
   42309       6   42303   42369   42417       5   42294   42360   42414       5
   42288   42360   42294       6   42288   42360   42414       5   42285   42354
   42405       6   42282   42246   42285       6   42282   42348   42405       6
   42279   42342   42396       6   42276   42243   42279       6   42276   42336
   42396       6   42273   42330   42387       6   42270   42237   42273       6
   42270   42324   42387       6   42267   42318   42381       6   42264   42234
   42267       6   42264   42312   42381       6   42261   42309   42369       6
   42258   42231   42261       6   42258   42303   42369       6   42255   42294
   42360       6   42252   42228   42255       6   42252   42288   42360       6
   42246   42282   42348       6   42246   42285   42354       6   42243   42219
   42246       7   42243   42276   42336       6   42243   42279   42342       6
   42237   42270   42324       6   42237   42273   42330       6   42234   42210
   42237       7   42234   42264   42312       6   42234   42267   42318       6
   42231   42258   42303       6   42231   42261   42309       6   42228   42207
   42231       7   42228   42252   42288       6   42228   42255   42294       6
   42219   42189   42222       8   42219   42243   42276       8   42219   42243
   42279       8   42219   42246   42282       8   42219   42246   42285       8
   42210   42177   42213       8   42210   42234   42264       8   42210   42234
   42267       8   42210   42237   42270       8   42210   42237   42273       8
   42207   42228   42252       8   42207   42228   42255       8   42207   42231
   42258       8   42207   42231   42261       8   42189   42219   42243       7
   42189   42219   42246       7   42189   42222   42192       6   42177   42210
   42234       7   42177   42210   42237       7   42177   42213   42183       6
   42171   42207   42228       7   42171   42207   42231       7   42165   42171
   42207       8   42159   42153   42183       9   42159   42192   42222      10
   42156   42138   42159      10   42156   42189   42219       8   42156   42189
   42222       6   42153   42159   42192       9   42153   42183   42213      10
   42150   42135   42153      10   42150   42177   42210       8   42150   42177
   42213       6   42147   42171   42165       6   42147   42171   42207       8
   42144   42165   42171       6   42138   42156   42189       6   42138   42159
   42153       9   42138   42159   42192      12   42135   42114   42138      13
   42135   42150   42177       6   42135   42153   42159       9   42135   42153
   42183      12   42132   42114   42135      13   42132   42114   42138      13
   42132   42129   42144      12   42132   42147   42171       6   42129   42132
   42147      10   42129   42144   42165      10   42120   42141   42162       4
   42114   42132   42129      14   42114   42132   42147      15   42114   42135
   42150      15   42114   42135   42153      14   42114   42138   42156      15
   42114   42138   42159      14   42111   42087   42114      14   42111   42129
   42132       9   42111   42129   42144       9   42105   42120   42141       5
   42099   42120   42105       6   42099   42120   42141       5   42093   42111
   42129       9   42087   42111   42093      12   42087   42111   42129       9
   42087   42114   42132      13   42087   42114   42135      13   42087   42114
   42138      13   42084   42105   42120       6   42081   42072   42084       6
   42081   42099   42120       6   42078   42093   42111      10   42075   42069
   42078       6   42075   42087   42111      10   42075   42087   42114      15
   42072   42081   42099       6   42072   42084   42105       6   42069   42066
   42072       7   42069   42075   42087       6   42069   42078   42093       6
   42066   42069   42075       8   42066   42069   42078       8   42066   42072
   42081       8   42066   42072   42084       8   42057   42066   42069       7
   42057   42066   42072       7   42051   42057   42066       8   42045   42057
   42051       6   42045   42057   42066       8   42033   42051   42057       6
   42030   42024   42033       6   42030   42045   42057       6   42024   42021
   42027       4   42024   42030   42045       6   42024   42033   42051       6
   42021   42024   42030       5   42021   42024   42033       5   42888   42912
   42930       4   42879   42909   42927       4   42870   42906   42924       4
   42864   42903   42921       4   42852   42900   42918       4   42843   42897
   42915       4   42837   42888   42912       5   42831   42888   42837       6
   42831   42888   42912       5   42825   42879   42909       5   42819   42879
   42825       6   42819   42879   42909       5   42813   42870   42906       5
   42807   42870   42813       6   42807   42870   42906       5   42801   42864
   42903       5   42795   42864   42801       6   42795   42864   42903       5
   42792   42852   42900       5   42786   42852   42792       6   42786   42852
   42900       5   42777   42843   42897       5   42771   42843   42777       6
   42771   42843   42897       5   42768   42837   42888       6   42765   42729
   42768       6   42765   42831   42888       6   42762   42825   42879       6
   42759   42726   42762       6   42759   42819   42879       6   42756   42813
   42870       6   42753   42720   42756       6   42753   42807   42870       6
   42750   42801   42864       6   42747   42717   42750       6   42747   42795
   42864       6   42744   42792   42852       6   42741   42714   42744       6
   42741   42786   42852       6   42738   42777   42843       6   42735   42711
   42738       6   42735   42771   42843       6   42729   42765   42831       6
   42729   42768   42837       6   42726   42702   42729       7   42726   42759
   42819       6   42726   42762   42825       6   42720   42753   42807       6
   42720   42756   42813       6   42717   42693   42720       7   42717   42747
   42795       6   42717   42750   42801       6   42714   42741   42786       6
   42714   42744   42792       6   42711   42690   42714       7   42711   42735
   42771       6   42711   42738   42777       6   42702   42672   42705       8
   42702   42726   42759       8   42702   42726   42762       8   42702   42729
   42765       8   42702   42729   42768       8   42693   42660   42696       8
   42693   42717   42747       8   42693   42717   42750       8   42693   42720
   42753       8   42693   42720   42756       8   42690   42711   42735       8
   42690   42711   42738       8   42690   42714   42741       8   42690   42714
   42744       8   42672   42702   42726       7   42672   42702   42729       7
   42672   42705   42675       6   42660   42693   42717       7   42660   42693
   42720       7   42660   42696   42666       6   42654   42690   42711       7
   42654   42690   42714       7   42648   42654   42690       8   42642   42636
   42666       9   42642   42675   42705      10   42639   42621   42642      10
   42639   42672   42702       8   42639   42672   42705       6   42636   42642
   42675       9   42636   42666   42696      10   42633   42618   42636      10
   42633   42660   42693       8   42633   42660   42696       6   42630   42654
   42648       6   42630   42654   42690       8   42627   42648   42654       6
   42621   42639   42672       6   42621   42642   42636       9   42621   42642
   42675      12   42618   42597   42621      13   42618   42633   42660       6
   42618   42636   42642       9   42618   42636   42666      12   42615   42597
   42618      13   42615   42597   42621      13   42615   42612   42627      12
   42615   42630   42654       6   42612   42615   42630      10   42612   42627
   42648      10   42603   42624   42645       4   42597   42615   42612      14
   42597   42615   42630      15   42597   42618   42633      15   42597   42618
   42636      14   42597   42621   42639      15   42597   42621   42642      14
   42594   42570   42597      14   42594   42612   42615       9   42594   42612
   42627       9   42588   42603   42624       5   42582   42603   42588       6
   42582   42603   42624       5   42576   42594   42612       9   42570   42594
   42576      12   42570   42594   42612       9   42570   42597   42615      13
   42570   42597   42618      13   42570   42597   42621      13   42567   42588
   42603       6   42564   42555   42567       6   42564   42582   42603       6
   42561   42576   42594      10   42558   42552   42561       6   42558   42570
   42594      10   42558   42570   42597      15   42555   42564   42582       6
   42555   42567   42588       6   42552   42549   42555       7   42552   42558
   42570       6   42552   42561   42576       6   42549   42552   42558       8
   42549   42552   42561       8   42549   42555   42564       8   42549   42555
   42567       8   42540   42549   42552       7   42540   42549   42555       7
   42534   42540   42549       8   42528   42540   42534       6   42528   42540
   42549       8   42516   42534   42540       6   42513   42507   42516       6
   42513   42528   42540       6   42507   42504   42510       4   42507   42513
   42528       6   42507   42516   42534       6   42504   42507   42513       5
   42504   42507   42516       5   43371   43395   43413       4   43362   43392
   43410       4   43353   43389   43407       4   43347   43386   43404       4
   43335   43383   43401       4   43326   43380   43398       4   43320   43371
   43395       5   43314   43371   43320       6   43314   43371   43395       5
   43308   43362   43392       5   43302   43362   43308       6   43302   43362
   43392       5   43296   43353   43389       5   43290   43353   43296       6
   43290   43353   43389       5   43284   43347   43386       5   43278   43347
   43284       6   43278   43347   43386       5   43275   43335   43383       5
   43269   43335   43275       6   43269   43335   43383       5   43260   43326
   43380       5   43254   43326   43260       6   43254   43326   43380       5
   43251   43320   43371       6   43248   43212   43251       6   43248   43314
   43371       6   43245   43308   43362       6   43242   43209   43245       6
   43242   43302   43362       6   43239   43296   43353       6   43236   43203
   43239       6   43236   43290   43353       6   43233   43284   43347       6
   43230   43200   43233       6   43230   43278   43347       6   43227   43275
   43335       6   43224   43197   43227       6   43224   43269   43335       6
   43221   43260   43326       6   43218   43194   43221       6   43218   43254
   43326       6   43212   43248   43314       6   43212   43251   43320       6
   43209   43185   43212       7   43209   43242   43302       6   43209   43245
   43308       6   43203   43236   43290       6   43203   43239   43296       6
   43200   43176   43203       7   43200   43230   43278       6   43200   43233
   43284       6   43197   43224   43269       6   43197   43227   43275       6
   43194   43173   43197       7   43194   43218   43254       6   43194   43221
   43260       6   43185   43155   43188       8   43185   43209   43242       8
   43185   43209   43245       8   43185   43212   43248       8   43185   43212
   43251       8   43176   43143   43179       8   43176   43200   43230       8
   43176   43200   43233       8   43176   43203   43236       8   43176   43203
   43239       8   43173   43194   43218       8   43173   43194   43221       8
   43173   43197   43224       8   43173   43197   43227       8   43155   43185
   43209       7   43155   43185   43212       7   43155   43188   43158       6
   43143   43176   43200       7   43143   43176   43203       7   43143   43179
   43149       6   43137   43173   43194       7   43137   43173   43197       7
   43131   43137   43173       8   43125   43119   43149       9   43125   43158
   43188      10   43122   43104   43125      10   43122   43155   43185       8
   43122   43155   43188       6   43119   43125   43158       9   43119   43149
   43179      10   43116   43101   43119      10   43116   43143   43176       8
   43116   43143   43179       6   43113   43137   43131       6   43113   43137
   43173       8   43110   43131   43137       6   43104   43122   43155       6
   43104   43125   43119       9   43104   43125   43158      12   43101   43080
   43104      13   43101   43116   43143       6   43101   43119   43125       9
   43101   43119   43149      12   43098   43080   43101      13   43098   43080
   43104      13   43098   43095   43110      12   43098   43113   43137       6
   43095   43098   43113      10   43095   43110   43131      10   43086   43107
   43128       4   43080   43098   43095      14   43080   43098   43113      15
   43080   43101   43116      15   43080   43101   43119      14   43080   43104
   43122      15   43080   43104   43125      14   43077   43053   43080      14
   43077   43095   43098       9   43077   43095   43110       9   43071   43086
   43107       5   43065   43086   43071       6   43065   43086   43107       5
   43059   43077   43095       9   43053   43077   43059      12   43053   43077
   43095       9   43053   43080   43098      13   43053   43080   43101      13
   43053   43080   43104      13   43050   43071   43086       6   43047   43038
   43050       6   43047   43065   43086       6   43044   43059   43077      10
   43041   43035   43044       6   43041   43053   43077      10   43041   43053
   43080      15   43038   43047   43065       6   43038   43050   43071       6
   43035   43032   43038       7   43035   43041   43053       6   43035   43044
   43059       6   43032   43035   43041       8   43032   43035   43044       8
   43032   43038   43047       8   43032   43038   43050       8   43023   43032
   43035       7   43023   43032   43038       7   43017   43023   43032       8
   43011   43023   43017       6   43011   43023   43032       8   42999   43017
   43023       6   42996   42990   42999       6   42996   43011   43023       6
   42990   42987   42993       4   42990   42996   43011       6   42990   42999
   43017       6   42987   42990   42996       5   42987   42990   42999       5
   43854   43878   43896       4   43845   43875   43893       4   43836   43872
   43890       4   43830   43869   43887       4   43818   43866   43884       4
   43809   43863   43881       4   43803   43854   43878       5   43797   43854
   43803       6   43797   43854   43878       5   43791   43845   43875       5
   43785   43845   43791       6   43785   43845   43875       5   43779   43836
   43872       5   43773   43836   43779       6   43773   43836   43872       5
   43767   43830   43869       5   43761   43830   43767       6   43761   43830
   43869       5   43758   43818   43866       5   43752   43818   43758       6
   43752   43818   43866       5   43743   43809   43863       5   43737   43809
   43743       6   43737   43809   43863       5   43734   43803   43854       6
   43731   43695   43734       6   43731   43797   43854       6   43728   43791
   43845       6   43725   43692   43728       6   43725   43785   43845       6
   43722   43779   43836       6   43719   43686   43722       6   43719   43773
   43836       6   43716   43767   43830       6   43713   43683   43716       6
   43713   43761   43830       6   43710   43758   43818       6   43707   43680
   43710       6   43707   43752   43818       6   43704   43743   43809       6
   43701   43677   43704       6   43701   43737   43809       6   43695   43731
   43797       6   43695   43734   43803       6   43692   43668   43695       7
   43692   43725   43785       6   43692   43728   43791       6   43686   43719
   43773       6   43686   43722   43779       6   43683   43659   43686       7
   43683   43713   43761       6   43683   43716   43767       6   43680   43707
   43752       6   43680   43710   43758       6   43677   43656   43680       7
   43677   43701   43737       6   43677   43704   43743       6   43668   43638
   43671       8   43668   43692   43725       8   43668   43692   43728       8
   43668   43695   43731       8   43668   43695   43734       8   43659   43626
   43662       8   43659   43683   43713       8   43659   43683   43716       8
   43659   43686   43719       8   43659   43686   43722       8   43656   43677
   43701       8   43656   43677   43704       8   43656   43680   43707       8
   43656   43680   43710       8   43638   43668   43692       7   43638   43668
   43695       7   43638   43671   43641       6   43626   43659   43683       7
   43626   43659   43686       7   43626   43662   43632       6   43620   43656
   43677       7   43620   43656   43680       7   43614   43620   43656       8
   43608   43602   43632       9   43608   43641   43671      10   43605   43587
   43608      10   43605   43638   43668       8   43605   43638   43671       6
   43602   43608   43641       9   43602   43632   43662      10   43599   43584
   43602      10   43599   43626   43659       8   43599   43626   43662       6
   43596   43620   43614       6   43596   43620   43656       8   43593   43614
   43620       6   43587   43605   43638       6   43587   43608   43602       9
   43587   43608   43641      12   43584   43563   43587      13   43584   43599
   43626       6   43584   43602   43608       9   43584   43602   43632      12
   43581   43563   43584      13   43581   43563   43587      13   43581   43578
   43593      12   43581   43596   43620       6   43578   43581   43596      10
   43578   43593   43614      10   43569   43590   43611       4   43563   43581
   43578      14   43563   43581   43596      15   43563   43584   43599      15
   43563   43584   43602      14   43563   43587   43605      15   43563   43587
   43608      14   43560   43536   43563      14   43560   43578   43581       9
   43560   43578   43593       9   43554   43569   43590       5   43548   43569
   43554       6   43548   43569   43590       5   43542   43560   43578       9
   43536   43560   43542      12   43536   43560   43578       9   43536   43563
   43581      13   43536   43563   43584      13   43536   43563   43587      13
   43533   43554   43569       6   43530   43521   43533       6   43530   43548
   43569       6   43527   43542   43560      10   43524   43518   43527       6
   43524   43536   43560      10   43524   43536   43563      15   43521   43530
   43548       6   43521   43533   43554       6   43518   43515   43521       7
   43518   43524   43536       6   43518   43527   43542       6   43515   43518
   43524       8   43515   43518   43527       8   43515   43521   43530       8
   43515   43521   43533       8   43506   43515   43518       7   43506   43515
   43521       7   43500   43506   43515       8   43494   43506   43500       6
   43494   43506   43515       8   43482   43500   43506       6   43479   43473
   43482       6   43479   43494   43506       6   43473   43470   43476       4
   43473   43479   43494       6   43473   43482   43500       6   43470   43473
   43479       5   43470   43473   43482       5   44337   44361   44379       4
   44328   44358   44376       4   44319   44355   44373       4   44313   44352
   44370       4   44301   44349   44367       4   44292   44346   44364       4
   44286   44337   44361       5   44280   44337   44286       6   44280   44337
   44361       5   44274   44328   44358       5   44268   44328   44274       6
   44268   44328   44358       5   44262   44319   44355       5   44256   44319
   44262       6   44256   44319   44355       5   44250   44313   44352       5
   44244   44313   44250       6   44244   44313   44352       5   44241   44301
   44349       5   44235   44301   44241       6   44235   44301   44349       5
   44226   44292   44346       5   44220   44292   44226       6   44220   44292
   44346       5   44217   44286   44337       6   44214   44178   44217       6
   44214   44280   44337       6   44211   44274   44328       6   44208   44175
   44211       6   44208   44268   44328       6   44205   44262   44319       6
   44202   44169   44205       6   44202   44256   44319       6   44199   44250
   44313       6   44196   44166   44199       6   44196   44244   44313       6
   44193   44241   44301       6   44190   44163   44193       6   44190   44235
   44301       6   44187   44226   44292       6   44184   44160   44187       6
   44184   44220   44292       6   44178   44214   44280       6   44178   44217
   44286       6   44175   44151   44178       7   44175   44208   44268       6
   44175   44211   44274       6   44169   44202   44256       6   44169   44205
   44262       6   44166   44142   44169       7   44166   44196   44244       6
   44166   44199   44250       6   44163   44190   44235       6   44163   44193
   44241       6   44160   44139   44163       7   44160   44184   44220       6
   44160   44187   44226       6   44151   44121   44154       8   44151   44175
   44208       8   44151   44175   44211       8   44151   44178   44214       8
   44151   44178   44217       8   44142   44109   44145       8   44142   44166
   44196       8   44142   44166   44199       8   44142   44169   44202       8
   44142   44169   44205       8   44139   44160   44184       8   44139   44160
   44187       8   44139   44163   44190       8   44139   44163   44193       8
   44121   44151   44175       7   44121   44151   44178       7   44121   44154
   44124       6   44109   44142   44166       7   44109   44142   44169       7
   44109   44145   44115       6   44103   44139   44160       7   44103   44139
   44163       7   44097   44103   44139       8   44091   44085   44115       9
   44091   44124   44154      10   44088   44070   44091      10   44088   44121
   44151       8   44088   44121   44154       6   44085   44091   44124       9
   44085   44115   44145      10   44082   44067   44085      10   44082   44109
   44142       8   44082   44109   44145       6   44079   44103   44097       6
   44079   44103   44139       8   44076   44097   44103       6   44070   44088
   44121       6   44070   44091   44085       9   44070   44091   44124      12
   44067   44046   44070      13   44067   44082   44109       6   44067   44085
   44091       9   44067   44085   44115      12   44064   44046   44067      13
   44064   44046   44070      13   44064   44061   44076      12   44064   44079
   44103       6   44061   44064   44079      10   44061   44076   44097      10
   44052   44073   44094       4   44046   44064   44061      14   44046   44064
   44079      15   44046   44067   44082      15   44046   44067   44085      14
   44046   44070   44088      15   44046   44070   44091      14   44043   44019
   44046      14   44043   44061   44064       9   44043   44061   44076       9
   44037   44052   44073       5   44031   44052   44037       6   44031   44052
   44073       5   44025   44043   44061       9   44019   44043   44025      12
   44019   44043   44061       9   44019   44046   44064      13   44019   44046
   44067      13   44019   44046   44070      13   44016   44037   44052       6
   44013   44004   44016       6   44013   44031   44052       6   44010   44025
   44043      10   44007   44001   44010       6   44007   44019   44043      10
   44007   44019   44046      15   44004   44013   44031       6   44004   44016
   44037       6   44001   43998   44004       7   44001   44007   44019       6
   44001   44010   44025       6   43998   44001   44007       8   43998   44001
   44010       8   43998   44004   44013       8   43998   44004   44016       8
   43989   43998   44001       7   43989   43998   44004       7   43983   43989
   43998       8   43977   43989   43983       6   43977   43989   43998       8
   43965   43983   43989       6   43962   43956   43965       6   43962   43977
   43989       6   43956   43953   43959       4   43956   43962   43977       6
   43956   43965   43983       6   43953   43956   43962       5   43953   43956
   43965       5   44820   44844   44862       4   44811   44841   44859       4
   44802   44838   44856       4   44796   44835   44853       4   44784   44832
   44850       4   44775   44829   44847       4   44769   44820   44844       5
   44763   44820   44769       6   44763   44820   44844       5   44757   44811
   44841       5   44751   44811   44757       6   44751   44811   44841       5
   44745   44802   44838       5   44739   44802   44745       6   44739   44802
   44838       5   44733   44796   44835       5   44727   44796   44733       6
   44727   44796   44835       5   44724   44784   44832       5   44718   44784
   44724       6   44718   44784   44832       5   44709   44775   44829       5
   44703   44775   44709       6   44703   44775   44829       5   44700   44769
   44820       6   44697   44661   44700       6   44697   44763   44820       6
   44694   44757   44811       6   44691   44658   44694       6   44691   44751
   44811       6   44688   44745   44802       6   44685   44652   44688       6
   44685   44739   44802       6   44682   44733   44796       6   44679   44649
   44682       6   44679   44727   44796       6   44676   44724   44784       6
   44673   44646   44676       6   44673   44718   44784       6   44670   44709
   44775       6   44667   44643   44670       6   44667   44703   44775       6
   44661   44697   44763       6   44661   44700   44769       6   44658   44634
   44661       7   44658   44691   44751       6   44658   44694   44757       6
   44652   44685   44739       6   44652   44688   44745       6   44649   44625
   44652       7   44649   44679   44727       6   44649   44682   44733       6
   44646   44673   44718       6   44646   44676   44724       6   44643   44622
   44646       7   44643   44667   44703       6   44643   44670   44709       6
   44634   44604   44637       8   44634   44658   44691       8   44634   44658
   44694       8   44634   44661   44697       8   44634   44661   44700       8
   44625   44592   44628       8   44625   44649   44679       8   44625   44649
   44682       8   44625   44652   44685       8   44625   44652   44688       8
   44622   44643   44667       8   44622   44643   44670       8   44622   44646
   44673       8   44622   44646   44676       8   44604   44634   44658       7
   44604   44634   44661       7   44604   44637   44607       6   44592   44625
   44649       7   44592   44625   44652       7   44592   44628   44598       6
   44586   44622   44643       7   44586   44622   44646       7   44580   44586
   44622       8   44574   44568   44598       9   44574   44607   44637      10
   44571   44553   44574      10   44571   44604   44634       8   44571   44604
   44637       6   44568   44574   44607       9   44568   44598   44628      10
   44565   44550   44568      10   44565   44592   44625       8   44565   44592
   44628       6   44562   44586   44580       6   44562   44586   44622       8
   44559   44580   44586       6   44553   44571   44604       6   44553   44574
   44568       9   44553   44574   44607      12   44550   44529   44553      13
   44550   44565   44592       6   44550   44568   44574       9   44550   44568
   44598      12   44547   44529   44550      13   44547   44529   44553      13
   44547   44544   44559      12   44547   44562   44586       6   44544   44547
   44562      10   44544   44559   44580      10   44535   44556   44577       4
   44529   44547   44544      14   44529   44547   44562      15   44529   44550
   44565      15   44529   44550   44568      14   44529   44553   44571      15
   44529   44553   44574      14   44526   44502   44529      14   44526   44544
   44547       9   44526   44544   44559       9   44520   44535   44556       5
   44514   44535   44520       6   44514   44535   44556       5   44508   44526
   44544       9   44502   44526   44508      12   44502   44526   44544       9
   44502   44529   44547      13   44502   44529   44550      13   44502   44529
   44553      13   44499   44520   44535       6   44496   44487   44499       6
   44496   44514   44535       6   44493   44508   44526      10   44490   44484
   44493       6   44490   44502   44526      10   44490   44502   44529      15
   44487   44496   44514       6   44487   44499   44520       6   44484   44481
   44487       7   44484   44490   44502       6   44484   44493   44508       6
   44481   44484   44490       8   44481   44484   44493       8   44481   44487
   44496       8   44481   44487   44499       8   44472   44481   44484       7
   44472   44481   44487       7   44466   44472   44481       8   44460   44472
   44466       6   44460   44472   44481       8   44448   44466   44472       6
   44445   44439   44448       6   44445   44460   44472       6   44439   44436
   44442       4   44439   44445   44460       6   44439   44448   44466       6
   44436   44439   44445       5   44436   44439   44448       5   45303   45327
   45345       4   45294   45324   45342       4   45285   45321   45339       4
   45279   45318   45336       4   45267   45315   45333       4   45258   45312
   45330       4   45252   45303   45327       5   45246   45303   45252       6
   45246   45303   45327       5   45240   45294   45324       5   45234   45294
   45240       6   45234   45294   45324       5   45228   45285   45321       5
   45222   45285   45228       6   45222   45285   45321       5   45216   45279
   45318       5   45210   45279   45216       6   45210   45279   45318       5
   45207   45267   45315       5   45201   45267   45207       6   45201   45267
   45315       5   45192   45258   45312       5   45186   45258   45192       6
   45186   45258   45312       5   45183   45252   45303       6   45180   45144
   45183       6   45180   45246   45303       6   45177   45240   45294       6
   45174   45141   45177       6   45174   45234   45294       6   45171   45228
   45285       6   45168   45135   45171       6   45168   45222   45285       6
   45165   45216   45279       6   45162   45132   45165       6   45162   45210
   45279       6   45159   45207   45267       6   45156   45129   45159       6
   45156   45201   45267       6   45153   45192   45258       6   45150   45126
   45153       6   45150   45186   45258       6   45144   45180   45246       6
   45144   45183   45252       6   45141   45117   45144       7   45141   45174
   45234       6   45141   45177   45240       6   45135   45168   45222       6
   45135   45171   45228       6   45132   45108   45135       7   45132   45162
   45210       6   45132   45165   45216       6   45129   45156   45201       6
   45129   45159   45207       6   45126   45105   45129       7   45126   45150
   45186       6   45126   45153   45192       6   45117   45087   45120       8
   45117   45141   45174       8   45117   45141   45177       8   45117   45144
   45180       8   45117   45144   45183       8   45108   45075   45111       8
   45108   45132   45162       8   45108   45132   45165       8   45108   45135
   45168       8   45108   45135   45171       8   45105   45126   45150       8
   45105   45126   45153       8   45105   45129   45156       8   45105   45129
   45159       8   45087   45117   45141       7   45087   45117   45144       7
   45087   45120   45090       6   45075   45108   45132       7   45075   45108
   45135       7   45075   45111   45081       6   45069   45105   45126       7
   45069   45105   45129       7   45063   45069   45105       8   45057   45051
   45081       9   45057   45090   45120      10   45054   45036   45057      10
   45054   45087   45117       8   45054   45087   45120       6   45051   45057
   45090       9   45051   45081   45111      10   45048   45033   45051      10
   45048   45075   45108       8   45048   45075   45111       6   45045   45069
   45063       6   45045   45069   45105       8   45042   45063   45069       6
   45036   45054   45087       6   45036   45057   45051       9   45036   45057
   45090      12   45033   45012   45036      13   45033   45048   45075       6
   45033   45051   45057       9   45033   45051   45081      12   45030   45012
   45033      13   45030   45012   45036      13   45030   45027   45042      12
   45030   45045   45069       6   45027   45030   45045      10   45027   45042
   45063      10   45018   45039   45060       4   45012   45030   45027      14
   45012   45030   45045      15   45012   45033   45048      15   45012   45033
   45051      14   45012   45036   45054      15   45012   45036   45057      14
   45009   44985   45012      14   45009   45027   45030       9   45009   45027
   45042       9   45003   45018   45039       5   44997   45018   45003       6
   44997   45018   45039       5   44991   45009   45027       9   44985   45009
   44991      12   44985   45009   45027       9   44985   45012   45030      13
   44985   45012   45033      13   44985   45012   45036      13   44982   45003
   45018       6   44979   44970   44982       6   44979   44997   45018       6
   44976   44991   45009      10   44973   44967   44976       6   44973   44985
   45009      10   44973   44985   45012      15   44970   44979   44997       6
   44970   44982   45003       6   44967   44964   44970       7   44967   44973
   44985       6   44967   44976   44991       6   44964   44967   44973       8
   44964   44967   44976       8   44964   44970   44979       8   44964   44970
   44982       8   44955   44964   44967       7   44955   44964   44970       7
   44949   44955   44964       8   44943   44955   44949       6   44943   44955
   44964       8   44931   44949   44955       6   44928   44922   44931       6
   44928   44943   44955       6   44922   44919   44925       4   44922   44928
   44943       6   44922   44931   44949       6   44919   44922   44928       5
   44919   44922   44931       5   45786   45810   45828       4   45777   45807
   45825       4   45768   45804   45822       4   45762   45801   45819       4
   45750   45798   45816       4   45741   45795   45813       4   45735   45786
   45810       5   45729   45786   45735       6   45729   45786   45810       5
   45723   45777   45807       5   45717   45777   45723       6   45717   45777
   45807       5   45711   45768   45804       5   45705   45768   45711       6
   45705   45768   45804       5   45699   45762   45801       5   45693   45762
   45699       6   45693   45762   45801       5   45690   45750   45798       5
   45684   45750   45690       6   45684   45750   45798       5   45675   45741
   45795       5   45669   45741   45675       6   45669   45741   45795       5
   45666   45735   45786       6   45663   45627   45666       6   45663   45729
   45786       6   45660   45723   45777       6   45657   45624   45660       6
   45657   45717   45777       6   45654   45711   45768       6   45651   45618
   45654       6   45651   45705   45768       6   45648   45699   45762       6
   45645   45615   45648       6   45645   45693   45762       6   45642   45690
   45750       6   45639   45612   45642       6   45639   45684   45750       6
   45636   45675   45741       6   45633   45609   45636       6   45633   45669
   45741       6   45627   45663   45729       6   45627   45666   45735       6
   45624   45600   45627       7   45624   45657   45717       6   45624   45660
   45723       6   45618   45651   45705       6   45618   45654   45711       6
   45615   45591   45618       7   45615   45645   45693       6   45615   45648
   45699       6   45612   45639   45684       6   45612   45642   45690       6
   45609   45588   45612       7   45609   45633   45669       6   45609   45636
   45675       6   45600   45570   45603       8   45600   45624   45657       8
   45600   45624   45660       8   45600   45627   45663       8   45600   45627
   45666       8   45591   45558   45594       8   45591   45615   45645       8
   45591   45615   45648       8   45591   45618   45651       8   45591   45618
   45654       8   45588   45609   45633       8   45588   45609   45636       8
   45588   45612   45639       8   45588   45612   45642       8   45570   45600
   45624       7   45570   45600   45627       7   45570   45603   45573       6
   45558   45591   45615       7   45558   45591   45618       7   45558   45594
   45564       6   45552   45588   45609       7   45552   45588   45612       7
   45546   45552   45588       8   45540   45534   45564       9   45540   45573
   45603      10   45537   45519   45540      10   45537   45570   45600       8
   45537   45570   45603       6   45534   45540   45573       9   45534   45564
   45594      10   45531   45516   45534      10   45531   45558   45591       8
   45531   45558   45594       6   45528   45552   45546       6   45528   45552
   45588       8   45525   45546   45552       6   45519   45537   45570       6
   45519   45540   45534       9   45519   45540   45573      12   45516   45495
   45519      13   45516   45531   45558       6   45516   45534   45540       9
   45516   45534   45564      12   45513   45495   45516      13   45513   45495
   45519      13   45513   45510   45525      12   45513   45528   45552       6
   45510   45513   45528      10   45510   45525   45546      10   45501   45522
   45543       4   45495   45513   45510      14   45495   45513   45528      15
   45495   45516   45531      15   45495   45516   45534      14   45495   45519
   45537      15   45495   45519   45540      14   45492   45468   45495      14
   45492   45510   45513       9   45492   45510   45525       9   45486   45501
   45522       5   45480   45501   45486       6   45480   45501   45522       5
   45474   45492   45510       9   45468   45492   45474      12   45468   45492
   45510       9   45468   45495   45513      13   45468   45495   45516      13
   45468   45495   45519      13   45465   45486   45501       6   45462   45453
   45465       6   45462   45480   45501       6   45459   45474   45492      10
   45456   45450   45459       6   45456   45468   45492      10   45456   45468
   45495      15   45453   45462   45480       6   45453   45465   45486       6
   45450   45447   45453       7   45450   45456   45468       6   45450   45459
   45474       6   45447   45450   45456       8   45447   45450   45459       8
   45447   45453   45462       8   45447   45453   45465       8   45438   45447
   45450       7   45438   45447   45453       7   45432   45438   45447       8
   45426   45438   45432       6   45426   45438   45447       8   45414   45432
   45438       6   45411   45405   45414       6   45411   45426   45438       6
   45405   45402   45408       4   45405   45411   45426       6   45405   45414
   45432       6   45402   45405   45411       5   45402   45405   45414       5
   46269   46293   46311       4   46260   46290   46308       4   46251   46287
   46305       4   46245   46284   46302       4   46233   46281   46299       4
   46224   46278   46296       4   46218   46269   46293       5   46212   46269
   46218       6   46212   46269   46293       5   46206   46260   46290       5
   46200   46260   46206       6   46200   46260   46290       5   46194   46251
   46287       5   46188   46251   46194       6   46188   46251   46287       5
   46182   46245   46284       5   46176   46245   46182       6   46176   46245
   46284       5   46173   46233   46281       5   46167   46233   46173       6
   46167   46233   46281       5   46158   46224   46278       5   46152   46224
   46158       6   46152   46224   46278       5   46149   46218   46269       6
   46146   46110   46149       6   46146   46212   46269       6   46143   46206
   46260       6   46140   46107   46143       6   46140   46200   46260       6
   46137   46194   46251       6   46134   46101   46137       6   46134   46188
   46251       6   46131   46182   46245       6   46128   46098   46131       6
   46128   46176   46245       6   46125   46173   46233       6   46122   46095
   46125       6   46122   46167   46233       6   46119   46158   46224       6
   46116   46092   46119       6   46116   46152   46224       6   46110   46146
   46212       6   46110   46149   46218       6   46107   46083   46110       7
   46107   46140   46200       6   46107   46143   46206       6   46101   46134
   46188       6   46101   46137   46194       6   46098   46074   46101       7
   46098   46128   46176       6   46098   46131   46182       6   46095   46122
   46167       6   46095   46125   46173       6   46092   46071   46095       7
   46092   46116   46152       6   46092   46119   46158       6   46083   46053
   46086       8   46083   46107   46140       8   46083   46107   46143       8
   46083   46110   46146       8   46083   46110   46149       8   46074   46041
   46077       8   46074   46098   46128       8   46074   46098   46131       8
   46074   46101   46134       8   46074   46101   46137       8   46071   46092
   46116       8   46071   46092   46119       8   46071   46095   46122       8
   46071   46095   46125       8   46053   46083   46107       7   46053   46083
   46110       7   46053   46086   46056       6   46041   46074   46098       7
   46041   46074   46101       7   46041   46077   46047       6   46035   46071
   46092       7   46035   46071   46095       7   46029   46035   46071       8
   46023   46017   46047       9   46023   46056   46086      10   46020   46002
   46023      10   46020   46053   46083       8   46020   46053   46086       6
   46017   46023   46056       9   46017   46047   46077      10   46014   45999
   46017      10   46014   46041   46074       8   46014   46041   46077       6
   46011   46035   46029       6   46011   46035   46071       8   46008   46029
   46035       6   46002   46020   46053       6   46002   46023   46017       9
   46002   46023   46056      12   45999   45978   46002      13   45999   46014
   46041       6   45999   46017   46023       9   45999   46017   46047      12
   45996   45978   45999      13   45996   45978   46002      13   45996   45993
   46008      12   45996   46011   46035       6   45993   45996   46011      10
   45993   46008   46029      10   45984   46005   46026       4   45978   45996
   45993      14   45978   45996   46011      15   45978   45999   46014      15
   45978   45999   46017      14   45978   46002   46020      15   45978   46002
   46023      14   45975   45951   45978      14   45975   45993   45996       9
   45975   45993   46008       9   45969   45984   46005       5   45963   45984
   45969       6   45963   45984   46005       5   45957   45975   45993       9
   45951   45975   45957      12   45951   45975   45993       9   45951   45978
   45996      13   45951   45978   45999      13   45951   45978   46002      13
   45948   45969   45984       6   45945   45936   45948       6   45945   45963
   45984       6   45942   45957   45975      10   45939   45933   45942       6
   45939   45951   45975      10   45939   45951   45978      15   45936   45945
   45963       6   45936   45948   45969       6   45933   45930   45936       7
   45933   45939   45951       6   45933   45942   45957       6   45930   45933
   45939       8   45930   45933   45942       8   45930   45936   45945       8
   45930   45936   45948       8   45921   45930   45933       7   45921   45930
   45936       7   45915   45921   45930       8   45909   45921   45915       6
   45909   45921   45930       8   45897   45915   45921       6   45894   45888
   45897       6   45894   45909   45921       6   45888   45885   45891       4
   45888   45894   45909       6   45888   45897   45915       6   45885   45888
   45894       5   45885   45888   45897       5   46752   46776   46794       4
   46743   46773   46791       4   46734   46770   46788       4   46728   46767
   46785       4   46716   46764   46782       4   46707   46761   46779       4
   46701   46752   46776       5   46695   46752   46701       6   46695   46752
   46776       5   46689   46743   46773       5   46683   46743   46689       6
   46683   46743   46773       5   46677   46734   46770       5   46671   46734
   46677       6   46671   46734   46770       5   46665   46728   46767       5
   46659   46728   46665       6   46659   46728   46767       5   46656   46716
   46764       5   46650   46716   46656       6   46650   46716   46764       5
   46641   46707   46761       5   46635   46707   46641       6   46635   46707
   46761       5   46632   46701   46752       6   46629   46593   46632       6
   46629   46695   46752       6   46626   46689   46743       6   46623   46590
   46626       6   46623   46683   46743       6   46620   46677   46734       6
   46617   46584   46620       6   46617   46671   46734       6   46614   46665
   46728       6   46611   46581   46614       6   46611   46659   46728       6
   46608   46656   46716       6   46605   46578   46608       6   46605   46650
   46716       6   46602   46641   46707       6   46599   46575   46602       6
   46599   46635   46707       6   46593   46629   46695       6   46593   46632
   46701       6   46590   46566   46593       7   46590   46623   46683       6
   46590   46626   46689       6   46584   46617   46671       6   46584   46620
   46677       6   46581   46557   46584       7   46581   46611   46659       6
   46581   46614   46665       6   46578   46605   46650       6   46578   46608
   46656       6   46575   46554   46578       7   46575   46599   46635       6
   46575   46602   46641       6   46566   46536   46569       8   46566   46590
   46623       8   46566   46590   46626       8   46566   46593   46629       8
   46566   46593   46632       8   46557   46524   46560       8   46557   46581
   46611       8   46557   46581   46614       8   46557   46584   46617       8
   46557   46584   46620       8   46554   46575   46599       8   46554   46575
   46602       8   46554   46578   46605       8   46554   46578   46608       8
   46536   46566   46590       7   46536   46566   46593       7   46536   46569
   46539       6   46524   46557   46581       7   46524   46557   46584       7
   46524   46560   46530       6   46518   46554   46575       7   46518   46554
   46578       7   46512   46518   46554       8   46506   46500   46530       9
   46506   46539   46569      10   46503   46485   46506      10   46503   46536
   46566       8   46503   46536   46569       6   46500   46506   46539       9
   46500   46530   46560      10   46497   46482   46500      10   46497   46524
   46557       8   46497   46524   46560       6   46494   46518   46512       6
   46494   46518   46554       8   46491   46512   46518       6   46485   46503
   46536       6   46485   46506   46500       9   46485   46506   46539      12
   46482   46461   46485      13   46482   46497   46524       6   46482   46500
   46506       9   46482   46500   46530      12   46479   46461   46482      13
   46479   46461   46485      13   46479   46476   46491      12   46479   46494
   46518       6   46476   46479   46494      10   46476   46491   46512      10
   46467   46488   46509       4   46461   46479   46476      14   46461   46479
   46494      15   46461   46482   46497      15   46461   46482   46500      14
   46461   46485   46503      15   46461   46485   46506      14   46458   46434
   46461      14   46458   46476   46479       9   46458   46476   46491       9
   46452   46467   46488       5   46446   46467   46452       6   46446   46467
   46488       5   46440   46458   46476       9   46434   46458   46440      12
   46434   46458   46476       9   46434   46461   46479      13   46434   46461
   46482      13   46434   46461   46485      13   46431   46452   46467       6
   46428   46419   46431       6   46428   46446   46467       6   46425   46440
   46458      10   46422   46416   46425       6   46422   46434   46458      10
   46422   46434   46461      15   46419   46428   46446       6   46419   46431
   46452       6   46416   46413   46419       7   46416   46422   46434       6
   46416   46425   46440       6   46413   46416   46422       8   46413   46416
   46425       8   46413   46419   46428       8   46413   46419   46431       8
   46404   46413   46416       7   46404   46413   46419       7   46398   46404
   46413       8   46392   46404   46398       6   46392   46404   46413       8
   46380   46398   46404       6   46377   46371   46380       6   46377   46392
   46404       6   46371   46368   46374       4   46371   46377   46392       6
   46371   46380   46398       6   46368   46371   46377       5   46368   46371
   46380       5   47235   47259   47277       4   47226   47256   47274       4
   47217   47253   47271       4   47211   47250   47268       4   47199   47247
   47265       4   47190   47244   47262       4   47184   47235   47259       5
   47178   47235   47184       6   47178   47235   47259       5   47172   47226
   47256       5   47166   47226   47172       6   47166   47226   47256       5
   47160   47217   47253       5   47154   47217   47160       6   47154   47217
   47253       5   47148   47211   47250       5   47142   47211   47148       6
   47142   47211   47250       5   47139   47199   47247       5   47133   47199
   47139       6   47133   47199   47247       5   47124   47190   47244       5
   47118   47190   47124       6   47118   47190   47244       5   47115   47184
   47235       6   47112   47076   47115       6   47112   47178   47235       6
   47109   47172   47226       6   47106   47073   47109       6   47106   47166
   47226       6   47103   47160   47217       6   47100   47067   47103       6
   47100   47154   47217       6   47097   47148   47211       6   47094   47064
   47097       6   47094   47142   47211       6   47091   47139   47199       6
   47088   47061   47091       6   47088   47133   47199       6   47085   47124
   47190       6   47082   47058   47085       6   47082   47118   47190       6
   47076   47112   47178       6   47076   47115   47184       6   47073   47049
   47076       7   47073   47106   47166       6   47073   47109   47172       6
   47067   47100   47154       6   47067   47103   47160       6   47064   47040
   47067       7   47064   47094   47142       6   47064   47097   47148       6
   47061   47088   47133       6   47061   47091   47139       6   47058   47037
   47061       7   47058   47082   47118       6   47058   47085   47124       6
   47049   47019   47052       8   47049   47073   47106       8   47049   47073
   47109       8   47049   47076   47112       8   47049   47076   47115       8
   47040   47007   47043       8   47040   47064   47094       8   47040   47064
   47097       8   47040   47067   47100       8   47040   47067   47103       8
   47037   47058   47082       8   47037   47058   47085       8   47037   47061
   47088       8   47037   47061   47091       8   47019   47049   47073       7
   47019   47049   47076       7   47019   47052   47022       6   47007   47040
   47064       7   47007   47040   47067       7   47007   47043   47013       6
   47001   47037   47058       7   47001   47037   47061       7   46995   47001
   47037       8   46989   46983   47013       9   46989   47022   47052      10
   46986   46968   46989      10   46986   47019   47049       8   46986   47019
   47052       6   46983   46989   47022       9   46983   47013   47043      10
   46980   46965   46983      10   46980   47007   47040       8   46980   47007
   47043       6   46977   47001   46995       6   46977   47001   47037       8
   46974   46995   47001       6   46968   46986   47019       6   46968   46989
   46983       9   46968   46989   47022      12   46965   46944   46968      13
   46965   46980   47007       6   46965   46983   46989       9   46965   46983
   47013      12   46962   46944   46965      13   46962   46944   46968      13
   46962   46959   46974      12   46962   46977   47001       6   46959   46962
   46977      10   46959   46974   46995      10   46950   46971   46992       4
   46944   46962   46959      14   46944   46962   46977      15   46944   46965
   46980      15   46944   46965   46983      14   46944   46968   46986      15
   46944   46968   46989      14   46941   46917   46944      14   46941   46959
   46962       9   46941   46959   46974       9   46935   46950   46971       5
   46929   46950   46935       6   46929   46950   46971       5   46923   46941
   46959       9   46917   46941   46923      12   46917   46941   46959       9
   46917   46944   46962      13   46917   46944   46965      13   46917   46944
   46968      13   46914   46935   46950       6   46911   46902   46914       6
   46911   46929   46950       6   46908   46923   46941      10   46905   46899
   46908       6   46905   46917   46941      10   46905   46917   46944      15
   46902   46911   46929       6   46902   46914   46935       6   46899   46896
   46902       7   46899   46905   46917       6   46899   46908   46923       6
   46896   46899   46905       8   46896   46899   46908       8   46896   46902
   46911       8   46896   46902   46914       8   46887   46896   46899       7
   46887   46896   46902       7   46881   46887   46896       8   46875   46887
   46881       6   46875   46887   46896       8   46863   46881   46887       6
   46860   46854   46863       6   46860   46875   46887       6   46854   46851
   46857       4   46854   46860   46875       6   46854   46863   46881       6
   46851   46854   46860       5   46851   46854   46863       5   47718   47742
   47760       4   47709   47739   47757       4   47700   47736   47754       4
   47694   47733   47751       4   47682   47730   47748       4   47673   47727
   47745       4   47667   47718   47742       5   47661   47718   47667       6
   47661   47718   47742       5   47655   47709   47739       5   47649   47709
   47655       6   47649   47709   47739       5   47643   47700   47736       5
   47637   47700   47643       6   47637   47700   47736       5   47631   47694
   47733       5   47625   47694   47631       6   47625   47694   47733       5
   47622   47682   47730       5   47616   47682   47622       6   47616   47682
   47730       5   47607   47673   47727       5   47601   47673   47607       6
   47601   47673   47727       5   47598   47667   47718       6   47595   47559
   47598       6   47595   47661   47718       6   47592   47655   47709       6
   47589   47556   47592       6   47589   47649   47709       6   47586   47643
   47700       6   47583   47550   47586       6   47583   47637   47700       6
   47580   47631   47694       6   47577   47547   47580       6   47577   47625
   47694       6   47574   47622   47682       6   47571   47544   47574       6
   47571   47616   47682       6   47568   47607   47673       6   47565   47541
   47568       6   47565   47601   47673       6   47559   47595   47661       6
   47559   47598   47667       6   47556   47532   47559       7   47556   47589
   47649       6   47556   47592   47655       6   47550   47583   47637       6
   47550   47586   47643       6   47547   47523   47550       7   47547   47577
   47625       6   47547   47580   47631       6   47544   47571   47616       6
   47544   47574   47622       6   47541   47520   47544       7   47541   47565
   47601       6   47541   47568   47607       6   47532   47502   47535       8
   47532   47556   47589       8   47532   47556   47592       8   47532   47559
   47595       8   47532   47559   47598       8   47523   47490   47526       8
   47523   47547   47577       8   47523   47547   47580       8   47523   47550
   47583       8   47523   47550   47586       8   47520   47541   47565       8
   47520   47541   47568       8   47520   47544   47571       8   47520   47544
   47574       8   47502   47532   47556       7   47502   47532   47559       7
   47502   47535   47505       6   47490   47523   47547       7   47490   47523
   47550       7   47490   47526   47496       6   47484   47520   47541       7
   47484   47520   47544       7   47478   47484   47520       8   47472   47466
   47496       9   47472   47505   47535      10   47469   47451   47472      10
   47469   47502   47532       8   47469   47502   47535       6   47466   47472
   47505       9   47466   47496   47526      10   47463   47448   47466      10
   47463   47490   47523       8   47463   47490   47526       6   47460   47484
   47478       6   47460   47484   47520       8   47457   47478   47484       6
   47451   47469   47502       6   47451   47472   47466       9   47451   47472
   47505      12   47448   47427   47451      13   47448   47463   47490       6
   47448   47466   47472       9   47448   47466   47496      12   47445   47427
   47448      13   47445   47427   47451      13   47445   47442   47457      12
   47445   47460   47484       6   47442   47445   47460      10   47442   47457
   47478      10   47433   47454   47475       4   47427   47445   47442      14
   47427   47445   47460      15   47427   47448   47463      15   47427   47448
   47466      14   47427   47451   47469      15   47427   47451   47472      14
   47424   47400   47427      14   47424   47442   47445       9   47424   47442
   47457       9   47418   47433   47454       5   47412   47433   47418       6
   47412   47433   47454       5   47406   47424   47442       9   47400   47424
   47406      12   47400   47424   47442       9   47400   47427   47445      13
   47400   47427   47448      13   47400   47427   47451      13   47397   47418
   47433       6   47394   47385   47397       6   47394   47412   47433       6
   47391   47406   47424      10   47388   47382   47391       6   47388   47400
   47424      10   47388   47400   47427      15   47385   47394   47412       6
   47385   47397   47418       6   47382   47379   47385       7   47382   47388
   47400       6   47382   47391   47406       6   47379   47382   47388       8
   47379   47382   47391       8   47379   47385   47394       8   47379   47385
   47397       8   47370   47379   47382       7   47370   47379   47385       7
   47364   47370   47379       8   47358   47370   47364       6   47358   47370
   47379       8   47346   47364   47370       6   47343   47337   47346       6
   47343   47358   47370       6   47337   47334   47340       4   47337   47343
   47358       6   47337   47346   47364       6   47334   47337   47343       5
   47334   47337   47346       5   48201   48225   48243       4   48192   48222
   48240       4   48183   48219   48237       4   48177   48216   48234       4
   48165   48213   48231       4   48156   48210   48228       4   48150   48201
   48225       5   48144   48201   48150       6   48144   48201   48225       5
   48138   48192   48222       5   48132   48192   48138       6   48132   48192
   48222       5   48126   48183   48219       5   48120   48183   48126       6
   48120   48183   48219       5   48114   48177   48216       5   48108   48177
   48114       6   48108   48177   48216       5   48105   48165   48213       5
   48099   48165   48105       6   48099   48165   48213       5   48090   48156
   48210       5   48084   48156   48090       6   48084   48156   48210       5
   48081   48150   48201       6   48078   48042   48081       6   48078   48144
   48201       6   48075   48138   48192       6   48072   48039   48075       6
   48072   48132   48192       6   48069   48126   48183       6   48066   48033
   48069       6   48066   48120   48183       6   48063   48114   48177       6
   48060   48030   48063       6   48060   48108   48177       6   48057   48105
   48165       6   48054   48027   48057       6   48054   48099   48165       6
   48051   48090   48156       6   48048   48024   48051       6   48048   48084
   48156       6   48042   48078   48144       6   48042   48081   48150       6
   48039   48015   48042       7   48039   48072   48132       6   48039   48075
   48138       6   48033   48066   48120       6   48033   48069   48126       6
   48030   48006   48033       7   48030   48060   48108       6   48030   48063
   48114       6   48027   48054   48099       6   48027   48057   48105       6
   48024   48003   48027       7   48024   48048   48084       6   48024   48051
   48090       6   48015   47985   48018       8   48015   48039   48072       8
   48015   48039   48075       8   48015   48042   48078       8   48015   48042
   48081       8   48006   47973   48009       8   48006   48030   48060       8
   48006   48030   48063       8   48006   48033   48066       8   48006   48033
   48069       8   48003   48024   48048       8   48003   48024   48051       8
   48003   48027   48054       8   48003   48027   48057       8   47985   48015
   48039       7   47985   48015   48042       7   47985   48018   47988       6
   47973   48006   48030       7   47973   48006   48033       7   47973   48009
   47979       6   47967   48003   48024       7   47967   48003   48027       7
   47961   47967   48003       8   47955   47949   47979       9   47955   47988
   48018      10   47952   47934   47955      10   47952   47985   48015       8
   47952   47985   48018       6   47949   47955   47988       9   47949   47979
   48009      10   47946   47931   47949      10   47946   47973   48006       8
   47946   47973   48009       6   47943   47967   47961       6   47943   47967
   48003       8   47940   47961   47967       6   47934   47952   47985       6
   47934   47955   47949       9   47934   47955   47988      12   47931   47910
   47934      13   47931   47946   47973       6   47931   47949   47955       9
   47931   47949   47979      12   47928   47910   47931      13   47928   47910
   47934      13   47928   47925   47940      12   47928   47943   47967       6
   47925   47928   47943      10   47925   47940   47961      10   47916   47937
   47958       4   47910   47928   47925      14   47910   47928   47943      15
   47910   47931   47946      15   47910   47931   47949      14   47910   47934
   47952      15   47910   47934   47955      14   47907   47883   47910      14
   47907   47925   47928       9   47907   47925   47940       9   47901   47916
   47937       5   47895   47916   47901       6   47895   47916   47937       5
   47889   47907   47925       9   47883   47907   47889      12   47883   47907
   47925       9   47883   47910   47928      13   47883   47910   47931      13
   47883   47910   47934      13   47880   47901   47916       6   47877   47868
   47880       6   47877   47895   47916       6   47874   47889   47907      10
   47871   47865   47874       6   47871   47883   47907      10   47871   47883
   47910      15   47868   47877   47895       6   47868   47880   47901       6
   47865   47862   47868       7   47865   47871   47883       6   47865   47874
   47889       6   47862   47865   47871       8   47862   47865   47874       8
   47862   47868   47877       8   47862   47868   47880       8   47853   47862
   47865       7   47853   47862   47868       7   47847   47853   47862       8
   47841   47853   47847       6   47841   47853   47862       8   47829   47847
   47853       6   47826   47820   47829       6   47826   47841   47853       6
   47820   47817   47823       4   47820   47826   47841       6   47820   47829
   47847       6   47817   47820   47826       5   47817   47820   47829       5
   48684   48708   48726       4   48675   48705   48723       4   48666   48702
   48720       4   48660   48699   48717       4   48648   48696   48714       4
   48639   48693   48711       4   48633   48684   48708       5   48627   48684
   48633       6   48627   48684   48708       5   48621   48675   48705       5
   48615   48675   48621       6   48615   48675   48705       5   48609   48666
   48702       5   48603   48666   48609       6   48603   48666   48702       5
   48597   48660   48699       5   48591   48660   48597       6   48591   48660
   48699       5   48588   48648   48696       5   48582   48648   48588       6
   48582   48648   48696       5   48573   48639   48693       5   48567   48639
   48573       6   48567   48639   48693       5   48564   48633   48684       6
   48561   48525   48564       6   48561   48627   48684       6   48558   48621
   48675       6   48555   48522   48558       6   48555   48615   48675       6
   48552   48609   48666       6   48549   48516   48552       6   48549   48603
   48666       6   48546   48597   48660       6   48543   48513   48546       6
   48543   48591   48660       6   48540   48588   48648       6   48537   48510
   48540       6   48537   48582   48648       6   48534   48573   48639       6
   48531   48507   48534       6   48531   48567   48639       6   48525   48561
   48627       6   48525   48564   48633       6   48522   48498   48525       7
   48522   48555   48615       6   48522   48558   48621       6   48516   48549
   48603       6   48516   48552   48609       6   48513   48489   48516       7
   48513   48543   48591       6   48513   48546   48597       6   48510   48537
   48582       6   48510   48540   48588       6   48507   48486   48510       7
   48507   48531   48567       6   48507   48534   48573       6   48498   48468
   48501       8   48498   48522   48555       8   48498   48522   48558       8
   48498   48525   48561       8   48498   48525   48564       8   48489   48456
   48492       8   48489   48513   48543       8   48489   48513   48546       8
   48489   48516   48549       8   48489   48516   48552       8   48486   48507
   48531       8   48486   48507   48534       8   48486   48510   48537       8
   48486   48510   48540       8   48468   48498   48522       7   48468   48498
   48525       7   48468   48501   48471       6   48456   48489   48513       7
   48456   48489   48516       7   48456   48492   48462       6   48450   48486
   48507       7   48450   48486   48510       7   48444   48450   48486       8
   48438   48432   48462       9   48438   48471   48501      10   48435   48417
   48438      10   48435   48468   48498       8   48435   48468   48501       6
   48432   48438   48471       9   48432   48462   48492      10   48429   48414
   48432      10   48429   48456   48489       8   48429   48456   48492       6
   48426   48450   48444       6   48426   48450   48486       8   48423   48444
   48450       6   48417   48435   48468       6   48417   48438   48432       9
   48417   48438   48471      12   48414   48393   48417      13   48414   48429
   48456       6   48414   48432   48438       9   48414   48432   48462      12
   48411   48393   48414      13   48411   48393   48417      13   48411   48408
   48423      12   48411   48426   48450       6   48408   48411   48426      10
   48408   48423   48444      10   48399   48420   48441       4   48393   48411
   48408      14   48393   48411   48426      15   48393   48414   48429      15
   48393   48414   48432      14   48393   48417   48435      15   48393   48417
   48438      14   48390   48366   48393      14   48390   48408   48411       9
   48390   48408   48423       9   48384   48399   48420       5   48378   48399
   48384       6   48378   48399   48420       5   48372   48390   48408       9
   48366   48390   48372      12   48366   48390   48408       9   48366   48393
   48411      13   48366   48393   48414      13   48366   48393   48417      13
   48363   48384   48399       6   48360   48351   48363       6   48360   48378
   48399       6   48357   48372   48390      10   48354   48348   48357       6
   48354   48366   48390      10   48354   48366   48393      15   48351   48360
   48378       6   48351   48363   48384       6   48348   48345   48351       7
   48348   48354   48366       6   48348   48357   48372       6   48345   48348
   48354       8   48345   48348   48357       8   48345   48351   48360       8
   48345   48351   48363       8   48336   48345   48348       7   48336   48345
   48351       7   48330   48336   48345       8   48324   48336   48330       6
   48324   48336   48345       8   48312   48330   48336       6   48309   48303
   48312       6   48309   48324   48336       6   48303   48300   48306       4
   48303   48309   48324       6   48303   48312   48330       6   48300   48303
   48309       5   48300   48303   48312       5   49167   49191   49209       4
   49158   49188   49206       4   49149   49185   49203       4   49143   49182
   49200       4   49131   49179   49197       4   49122   49176   49194       4
   49116   49167   49191       5   49110   49167   49116       6   49110   49167
   49191       5   49104   49158   49188       5   49098   49158   49104       6
   49098   49158   49188       5   49092   49149   49185       5   49086   49149
   49092       6   49086   49149   49185       5   49080   49143   49182       5
   49074   49143   49080       6   49074   49143   49182       5   49071   49131
   49179       5   49065   49131   49071       6   49065   49131   49179       5
   49056   49122   49176       5   49050   49122   49056       6   49050   49122
   49176       5   49047   49116   49167       6   49044   49008   49047       6
   49044   49110   49167       6   49041   49104   49158       6   49038   49005
   49041       6   49038   49098   49158       6   49035   49092   49149       6
   49032   48999   49035       6   49032   49086   49149       6   49029   49080
   49143       6   49026   48996   49029       6   49026   49074   49143       6
   49023   49071   49131       6   49020   48993   49023       6   49020   49065
   49131       6   49017   49056   49122       6   49014   48990   49017       6
   49014   49050   49122       6   49008   49044   49110       6   49008   49047
   49116       6   49005   48981   49008       7   49005   49038   49098       6
   49005   49041   49104       6   48999   49032   49086       6   48999   49035
   49092       6   48996   48972   48999       7   48996   49026   49074       6
   48996   49029   49080       6   48993   49020   49065       6   48993   49023
   49071       6   48990   48969   48993       7   48990   49014   49050       6
   48990   49017   49056       6   48981   48951   48984       8   48981   49005
   49038       8   48981   49005   49041       8   48981   49008   49044       8
   48981   49008   49047       8   48972   48939   48975       8   48972   48996
   49026       8   48972   48996   49029       8   48972   48999   49032       8
   48972   48999   49035       8   48969   48990   49014       8   48969   48990
   49017       8   48969   48993   49020       8   48969   48993   49023       8
   48951   48981   49005       7   48951   48981   49008       7   48951   48984
   48954       6   48939   48972   48996       7   48939   48972   48999       7
   48939   48975   48945       6   48933   48969   48990       7   48933   48969
   48993       7   48927   48933   48969       8   48921   48915   48945       9
   48921   48954   48984      10   48918   48900   48921      10   48918   48951
   48981       8   48918   48951   48984       6   48915   48921   48954       9
   48915   48945   48975      10   48912   48897   48915      10   48912   48939
   48972       8   48912   48939   48975       6   48909   48933   48927       6
   48909   48933   48969       8   48906   48927   48933       6   48900   48918
   48951       6   48900   48921   48915       9   48900   48921   48954      12
   48897   48876   48900      13   48897   48912   48939       6   48897   48915
   48921       9   48897   48915   48945      12   48894   48876   48897      13
   48894   48876   48900      13   48894   48891   48906      12   48894   48909
   48933       6   48891   48894   48909      10   48891   48906   48927      10
   48882   48903   48924       4   48876   48894   48891      14   48876   48894
   48909      15   48876   48897   48912      15   48876   48897   48915      14
   48876   48900   48918      15   48876   48900   48921      14   48873   48849
   48876      14   48873   48891   48894       9   48873   48891   48906       9
   48867   48882   48903       5   48861   48882   48867       6   48861   48882
   48903       5   48855   48873   48891       9   48849   48873   48855      12
   48849   48873   48891       9   48849   48876   48894      13   48849   48876
   48897      13   48849   48876   48900      13   48846   48867   48882       6
   48843   48834   48846       6   48843   48861   48882       6   48840   48855
   48873      10   48837   48831   48840       6   48837   48849   48873      10
   48837   48849   48876      15   48834   48843   48861       6   48834   48846
   48867       6   48831   48828   48834       7   48831   48837   48849       6
   48831   48840   48855       6   48828   48831   48837       8   48828   48831
   48840       8   48828   48834   48843       8   48828   48834   48846       8
   48819   48828   48831       7   48819   48828   48834       7   48813   48819
   48828       8   48807   48819   48813       6   48807   48819   48828       8
   48795   48813   48819       6   48792   48786   48795       6   48792   48807
   48819       6   48786   48783   48789       4   48786   48792   48807       6
   48786   48795   48813       6   48783   48786   48792       5   48783   48786
   48795       5   49650   49674   49692       4   49641   49671   49689       4
   49632   49668   49686       4   49626   49665   49683       4   49614   49662
   49680       4   49605   49659   49677       4   49599   49650   49674       5
   49593   49650   49599       6   49593   49650   49674       5   49587   49641
   49671       5   49581   49641   49587       6   49581   49641   49671       5
   49575   49632   49668       5   49569   49632   49575       6   49569   49632
   49668       5   49563   49626   49665       5   49557   49626   49563       6
   49557   49626   49665       5   49554   49614   49662       5   49548   49614
   49554       6   49548   49614   49662       5   49539   49605   49659       5
   49533   49605   49539       6   49533   49605   49659       5   49530   49599
   49650       6   49527   49491   49530       6   49527   49593   49650       6
   49524   49587   49641       6   49521   49488   49524       6   49521   49581
   49641       6   49518   49575   49632       6   49515   49482   49518       6
   49515   49569   49632       6   49512   49563   49626       6   49509   49479
   49512       6   49509   49557   49626       6   49506   49554   49614       6
   49503   49476   49506       6   49503   49548   49614       6   49500   49539
   49605       6   49497   49473   49500       6   49497   49533   49605       6
   49491   49527   49593       6   49491   49530   49599       6   49488   49464
   49491       7   49488   49521   49581       6   49488   49524   49587       6
   49482   49515   49569       6   49482   49518   49575       6   49479   49455
   49482       7   49479   49509   49557       6   49479   49512   49563       6
   49476   49503   49548       6   49476   49506   49554       6   49473   49452
   49476       7   49473   49497   49533       6   49473   49500   49539       6
   49464   49434   49467       8   49464   49488   49521       8   49464   49488
   49524       8   49464   49491   49527       8   49464   49491   49530       8
   49455   49422   49458       8   49455   49479   49509       8   49455   49479
   49512       8   49455   49482   49515       8   49455   49482   49518       8
   49452   49473   49497       8   49452   49473   49500       8   49452   49476
   49503       8   49452   49476   49506       8   49434   49464   49488       7
   49434   49464   49491       7   49434   49467   49437       6   49422   49455
   49479       7   49422   49455   49482       7   49422   49458   49428       6
   49416   49452   49473       7   49416   49452   49476       7   49410   49416
   49452       8   49404   49398   49428       9   49404   49437   49467      10
   49401   49383   49404      10   49401   49434   49464       8   49401   49434
   49467       6   49398   49404   49437       9   49398   49428   49458      10
   49395   49380   49398      10   49395   49422   49455       8   49395   49422
   49458       6   49392   49416   49410       6   49392   49416   49452       8
   49389   49410   49416       6   49383   49401   49434       6   49383   49404
   49398       9   49383   49404   49437      12   49380   49359   49383      13
   49380   49395   49422       6   49380   49398   49404       9   49380   49398
   49428      12   49377   49359   49380      13   49377   49359   49383      13
   49377   49374   49389      12   49377   49392   49416       6   49374   49377
   49392      10   49374   49389   49410      10   49365   49386   49407       4
   49359   49377   49374      14   49359   49377   49392      15   49359   49380
   49395      15   49359   49380   49398      14   49359   49383   49401      15
   49359   49383   49404      14   49356   49332   49359      14   49356   49374
   49377       9   49356   49374   49389       9   49350   49365   49386       5
   49344   49365   49350       6   49344   49365   49386       5   49338   49356
   49374       9   49332   49356   49338      12   49332   49356   49374       9
   49332   49359   49377      13   49332   49359   49380      13   49332   49359
   49383      13   49329   49350   49365       6   49326   49317   49329       6
   49326   49344   49365       6   49323   49338   49356      10   49320   49314
   49323       6   49320   49332   49356      10   49320   49332   49359      15
   49317   49326   49344       6   49317   49329   49350       6   49314   49311
   49317       7   49314   49320   49332       6   49314   49323   49338       6
   49311   49314   49320       8   49311   49314   49323       8   49311   49317
   49326       8   49311   49317   49329       8   49302   49311   49314       7
   49302   49311   49317       7   49296   49302   49311       8   49290   49302
   49296       6   49290   49302   49311       8   49278   49296   49302       6
   49275   49269   49278       6   49275   49290   49302       6   49269   49266
   49272       4   49269   49275   49290       6   49269   49278   49296       6
   49266   49269   49275       5   49266   49269   49278       5   50133   50157
   50175       4   50124   50154   50172       4   50115   50151   50169       4
   50109   50148   50166       4   50097   50145   50163       4   50088   50142
   50160       4   50082   50133   50157       5   50076   50133   50082       6
   50076   50133   50157       5   50070   50124   50154       5   50064   50124
   50070       6   50064   50124   50154       5   50058   50115   50151       5
   50052   50115   50058       6   50052   50115   50151       5   50046   50109
   50148       5   50040   50109   50046       6   50040   50109   50148       5
   50037   50097   50145       5   50031   50097   50037       6   50031   50097
   50145       5   50022   50088   50142       5   50016   50088   50022       6
   50016   50088   50142       5   50013   50082   50133       6   50010   49974
   50013       6   50010   50076   50133       6   50007   50070   50124       6
   50004   49971   50007       6   50004   50064   50124       6   50001   50058
   50115       6   49998   49965   50001       6   49998   50052   50115       6
   49995   50046   50109       6   49992   49962   49995       6   49992   50040
   50109       6   49989   50037   50097       6   49986   49959   49989       6
   49986   50031   50097       6   49983   50022   50088       6   49980   49956
   49983       6   49980   50016   50088       6   49974   50010   50076       6
   49974   50013   50082       6   49971   49947   49974       7   49971   50004
   50064       6   49971   50007   50070       6   49965   49998   50052       6
   49965   50001   50058       6   49962   49938   49965       7   49962   49992
   50040       6   49962   49995   50046       6   49959   49986   50031       6
   49959   49989   50037       6   49956   49935   49959       7   49956   49980
   50016       6   49956   49983   50022       6   49947   49917   49950       8
   49947   49971   50004       8   49947   49971   50007       8   49947   49974
   50010       8   49947   49974   50013       8   49938   49905   49941       8
   49938   49962   49992       8   49938   49962   49995       8   49938   49965
   49998       8   49938   49965   50001       8   49935   49956   49980       8
   49935   49956   49983       8   49935   49959   49986       8   49935   49959
   49989       8   49917   49947   49971       7   49917   49947   49974       7
   49917   49950   49920       6   49905   49938   49962       7   49905   49938
   49965       7   49905   49941   49911       6   49899   49935   49956       7
   49899   49935   49959       7   49893   49899   49935       8   49887   49881
   49911       9   49887   49920   49950      10   49884   49866   49887      10
   49884   49917   49947       8   49884   49917   49950       6   49881   49887
   49920       9   49881   49911   49941      10   49878   49863   49881      10
   49878   49905   49938       8   49878   49905   49941       6   49875   49899
   49893       6   49875   49899   49935       8   49872   49893   49899       6
   49866   49884   49917       6   49866   49887   49881       9   49866   49887
   49920      12   49863   49842   49866      13   49863   49878   49905       6
   49863   49881   49887       9   49863   49881   49911      12   49860   49842
   49863      13   49860   49842   49866      13   49860   49857   49872      12
   49860   49875   49899       6   49857   49860   49875      10   49857   49872
   49893      10   49848   49869   49890       4   49842   49860   49857      14
   49842   49860   49875      15   49842   49863   49878      15   49842   49863
   49881      14   49842   49866   49884      15   49842   49866   49887      14
   49839   49815   49842      14   49839   49857   49860       9   49839   49857
   49872       9   49833   49848   49869       5   49827   49848   49833       6
   49827   49848   49869       5   49821   49839   49857       9   49815   49839
   49821      12   49815   49839   49857       9   49815   49842   49860      13
   49815   49842   49863      13   49815   49842   49866      13   49812   49833
   49848       6   49809   49800   49812       6   49809   49827   49848       6
   49806   49821   49839      10   49803   49797   49806       6   49803   49815
   49839      10   49803   49815   49842      15   49800   49809   49827       6
   49800   49812   49833       6   49797   49794   49800       7   49797   49803
   49815       6   49797   49806   49821       6   49794   49797   49803       8
   49794   49797   49806       8   49794   49800   49809       8   49794   49800
   49812       8   49785   49794   49797       7   49785   49794   49800       7
   49779   49785   49794       8   49773   49785   49779       6   49773   49785
   49794       8   49761   49779   49785       6   49758   49752   49761       6
   49758   49773   49785       6   49752   49749   49755       4   49752   49758
   49773       6   49752   49761   49779       6   49749   49752   49758       5
   49749   49752   49761       5   50616   50640   50658       4   50607   50637
   50655       4   50598   50634   50652       4   50592   50631   50649       4
   50580   50628   50646       4   50571   50625   50643       4   50565   50616
   50640       5   50559   50616   50565       6   50559   50616   50640       5
   50553   50607   50637       5   50547   50607   50553       6   50547   50607
   50637       5   50541   50598   50634       5   50535   50598   50541       6
   50535   50598   50634       5   50529   50592   50631       5   50523   50592
   50529       6   50523   50592   50631       5   50520   50580   50628       5
   50514   50580   50520       6   50514   50580   50628       5   50505   50571
   50625       5   50499   50571   50505       6   50499   50571   50625       5
   50496   50565   50616       6   50493   50457   50496       6   50493   50559
   50616       6   50490   50553   50607       6   50487   50454   50490       6
   50487   50547   50607       6   50484   50541   50598       6   50481   50448
   50484       6   50481   50535   50598       6   50478   50529   50592       6
   50475   50445   50478       6   50475   50523   50592       6   50472   50520
   50580       6   50469   50442   50472       6   50469   50514   50580       6
   50466   50505   50571       6   50463   50439   50466       6   50463   50499
   50571       6   50457   50493   50559       6   50457   50496   50565       6
   50454   50430   50457       7   50454   50487   50547       6   50454   50490
   50553       6   50448   50481   50535       6   50448   50484   50541       6
   50445   50421   50448       7   50445   50475   50523       6   50445   50478
   50529       6   50442   50469   50514       6   50442   50472   50520       6
   50439   50418   50442       7   50439   50463   50499       6   50439   50466
   50505       6   50430   50400   50433       8   50430   50454   50487       8
   50430   50454   50490       8   50430   50457   50493       8   50430   50457
   50496       8   50421   50388   50424       8   50421   50445   50475       8
   50421   50445   50478       8   50421   50448   50481       8   50421   50448
   50484       8   50418   50439   50463       8   50418   50439   50466       8
   50418   50442   50469       8   50418   50442   50472       8   50400   50430
   50454       7   50400   50430   50457       7   50400   50433   50403       6
   50388   50421   50445       7   50388   50421   50448       7   50388   50424
   50394       6   50382   50418   50439       7   50382   50418   50442       7
   50376   50382   50418       8   50370   50364   50394       9   50370   50403
   50433      10   50367   50349   50370      10   50367   50400   50430       8
   50367   50400   50433       6   50364   50370   50403       9   50364   50394
   50424      10   50361   50346   50364      10   50361   50388   50421       8
   50361   50388   50424       6   50358   50382   50376       6   50358   50382
   50418       8   50355   50376   50382       6   50349   50367   50400       6
   50349   50370   50364       9   50349   50370   50403      12   50346   50325
   50349      13   50346   50361   50388       6   50346   50364   50370       9
   50346   50364   50394      12   50343   50325   50346      13   50343   50325
   50349      13   50343   50340   50355      12   50343   50358   50382       6
   50340   50343   50358      10   50340   50355   50376      10   50331   50352
   50373       4   50325   50343   50340      14   50325   50343   50358      15
   50325   50346   50361      15   50325   50346   50364      14   50325   50349
   50367      15   50325   50349   50370      14   50322   50298   50325      14
   50322   50340   50343       9   50322   50340   50355       9   50316   50331
   50352       5   50310   50331   50316       6   50310   50331   50352       5
   50304   50322   50340       9   50298   50322   50304      12   50298   50322
   50340       9   50298   50325   50343      13   50298   50325   50346      13
   50298   50325   50349      13   50295   50316   50331       6   50292   50283
   50295       6   50292   50310   50331       6   50289   50304   50322      10
   50286   50280   50289       6   50286   50298   50322      10   50286   50298
   50325      15   50283   50292   50310       6   50283   50295   50316       6
   50280   50277   50283       7   50280   50286   50298       6   50280   50289
   50304       6   50277   50280   50286       8   50277   50280   50289       8
   50277   50283   50292       8   50277   50283   50295       8   50268   50277
   50280       7   50268   50277   50283       7   50262   50268   50277       8
   50256   50268   50262       6   50256   50268   50277       8   50244   50262
   50268       6   50241   50235   50244       6   50241   50256   50268       6
   50235   50232   50238       4   50235   50241   50256       6   50235   50244
   50262       6   50232   50235   50241       5   50232   50235   50244       5
   51099   51123   51141       4   51090   51120   51138       4   51081   51117
   51135       4   51075   51114   51132       4   51063   51111   51129       4
   51054   51108   51126       4   51048   51099   51123       5   51042   51099
   51048       6   51042   51099   51123       5   51036   51090   51120       5
   51030   51090   51036       6   51030   51090   51120       5   51024   51081
   51117       5   51018   51081   51024       6   51018   51081   51117       5
   51012   51075   51114       5   51006   51075   51012       6   51006   51075
   51114       5   51003   51063   51111       5   50997   51063   51003       6
   50997   51063   51111       5   50988   51054   51108       5   50982   51054
   50988       6   50982   51054   51108       5   50979   51048   51099       6
   50976   50940   50979       6   50976   51042   51099       6   50973   51036
   51090       6   50970   50937   50973       6   50970   51030   51090       6
   50967   51024   51081       6   50964   50931   50967       6   50964   51018
   51081       6   50961   51012   51075       6   50958   50928   50961       6
   50958   51006   51075       6   50955   51003   51063       6   50952   50925
   50955       6   50952   50997   51063       6   50949   50988   51054       6
   50946   50922   50949       6   50946   50982   51054       6   50940   50976
   51042       6   50940   50979   51048       6   50937   50913   50940       7
   50937   50970   51030       6   50937   50973   51036       6   50931   50964
   51018       6   50931   50967   51024       6   50928   50904   50931       7
   50928   50958   51006       6   50928   50961   51012       6   50925   50952
   50997       6   50925   50955   51003       6   50922   50901   50925       7
   50922   50946   50982       6   50922   50949   50988       6   50913   50883
   50916       8   50913   50937   50970       8   50913   50937   50973       8
   50913   50940   50976       8   50913   50940   50979       8   50904   50871
   50907       8   50904   50928   50958       8   50904   50928   50961       8
   50904   50931   50964       8   50904   50931   50967       8   50901   50922
   50946       8   50901   50922   50949       8   50901   50925   50952       8
   50901   50925   50955       8   50883   50913   50937       7   50883   50913
   50940       7   50883   50916   50886       6   50871   50904   50928       7
   50871   50904   50931       7   50871   50907   50877       6   50865   50901
   50922       7   50865   50901   50925       7   50859   50865   50901       8
   50853   50847   50877       9   50853   50886   50916      10   50850   50832
   50853      10   50850   50883   50913       8   50850   50883   50916       6
   50847   50853   50886       9   50847   50877   50907      10   50844   50829
   50847      10   50844   50871   50904       8   50844   50871   50907       6
   50841   50865   50859       6   50841   50865   50901       8   50838   50859
   50865       6   50832   50850   50883       6   50832   50853   50847       9
   50832   50853   50886      12   50829   50808   50832      13   50829   50844
   50871       6   50829   50847   50853       9   50829   50847   50877      12
   50826   50808   50829      13   50826   50808   50832      13   50826   50823
   50838      12   50826   50841   50865       6   50823   50826   50841      10
   50823   50838   50859      10   50814   50835   50856       4   50808   50826
   50823      14   50808   50826   50841      15   50808   50829   50844      15
   50808   50829   50847      14   50808   50832   50850      15   50808   50832
   50853      14   50805   50781   50808      14   50805   50823   50826       9
   50805   50823   50838       9   50799   50814   50835       5   50793   50814
   50799       6   50793   50814   50835       5   50787   50805   50823       9
   50781   50805   50787      12   50781   50805   50823       9   50781   50808
   50826      13   50781   50808   50829      13   50781   50808   50832      13
   50778   50799   50814       6   50775   50766   50778       6   50775   50793
   50814       6   50772   50787   50805      10   50769   50763   50772       6
   50769   50781   50805      10   50769   50781   50808      15   50766   50775
   50793       6   50766   50778   50799       6   50763   50760   50766       7
   50763   50769   50781       6   50763   50772   50787       6   50760   50763
   50769       8   50760   50763   50772       8   50760   50766   50775       8
   50760   50766   50778       8   50751   50760   50763       7   50751   50760
   50766       7   50745   50751   50760       8   50739   50751   50745       6
   50739   50751   50760       8   50727   50745   50751       6   50724   50718
   50727       6   50724   50739   50751       6   50718   50715   50721       4
   50718   50724   50739       6   50718   50727   50745       6   50715   50718
   50724       5   50715   50718   50727       5   51582   51606   51624       4
   51573   51603   51621       4   51564   51600   51618       4   51558   51597
   51615       4   51546   51594   51612       4   51537   51591   51609       4
   51531   51582   51606       5   51525   51582   51531       6   51525   51582
   51606       5   51519   51573   51603       5   51513   51573   51519       6
   51513   51573   51603       5   51507   51564   51600       5   51501   51564
   51507       6   51501   51564   51600       5   51495   51558   51597       5
   51489   51558   51495       6   51489   51558   51597       5   51486   51546
   51594       5   51480   51546   51486       6   51480   51546   51594       5
   51471   51537   51591       5   51465   51537   51471       6   51465   51537
   51591       5   51462   51531   51582       6   51459   51423   51462       6
   51459   51525   51582       6   51456   51519   51573       6   51453   51420
   51456       6   51453   51513   51573       6   51450   51507   51564       6
   51447   51414   51450       6   51447   51501   51564       6   51444   51495
   51558       6   51441   51411   51444       6   51441   51489   51558       6
   51438   51486   51546       6   51435   51408   51438       6   51435   51480
   51546       6   51432   51471   51537       6   51429   51405   51432       6
   51429   51465   51537       6   51423   51459   51525       6   51423   51462
   51531       6   51420   51396   51423       7   51420   51453   51513       6
   51420   51456   51519       6   51414   51447   51501       6   51414   51450
   51507       6   51411   51387   51414       7   51411   51441   51489       6
   51411   51444   51495       6   51408   51435   51480       6   51408   51438
   51486       6   51405   51384   51408       7   51405   51429   51465       6
   51405   51432   51471       6   51396   51366   51399       8   51396   51420
   51453       8   51396   51420   51456       8   51396   51423   51459       8
   51396   51423   51462       8   51387   51354   51390       8   51387   51411
   51441       8   51387   51411   51444       8   51387   51414   51447       8
   51387   51414   51450       8   51384   51405   51429       8   51384   51405
   51432       8   51384   51408   51435       8   51384   51408   51438       8
   51366   51396   51420       7   51366   51396   51423       7   51366   51399
   51369       6   51354   51387   51411       7   51354   51387   51414       7
   51354   51390   51360       6   51348   51384   51405       7   51348   51384
   51408       7   51342   51348   51384       8   51336   51330   51360       9
   51336   51369   51399      10   51333   51315   51336      10   51333   51366
   51396       8   51333   51366   51399       6   51330   51336   51369       9
   51330   51360   51390      10   51327   51312   51330      10   51327   51354
   51387       8   51327   51354   51390       6   51324   51348   51342       6
   51324   51348   51384       8   51321   51342   51348       6   51315   51333
   51366       6   51315   51336   51330       9   51315   51336   51369      12
   51312   51291   51315      13   51312   51327   51354       6   51312   51330
   51336       9   51312   51330   51360      12   51309   51291   51312      13
   51309   51291   51315      13   51309   51306   51321      12   51309   51324
   51348       6   51306   51309   51324      10   51306   51321   51342      10
   51297   51318   51339       4   51291   51309   51306      14   51291   51309
   51324      15   51291   51312   51327      15   51291   51312   51330      14
   51291   51315   51333      15   51291   51315   51336      14   51288   51264
   51291      14   51288   51306   51309       9   51288   51306   51321       9
   51282   51297   51318       5   51276   51297   51282       6   51276   51297
   51318       5   51270   51288   51306       9   51264   51288   51270      12
   51264   51288   51306       9   51264   51291   51309      13   51264   51291
   51312      13   51264   51291   51315      13   51261   51282   51297       6
   51258   51249   51261       6   51258   51276   51297       6   51255   51270
   51288      10   51252   51246   51255       6   51252   51264   51288      10
   51252   51264   51291      15   51249   51258   51276       6   51249   51261
   51282       6   51246   51243   51249       7   51246   51252   51264       6
   51246   51255   51270       6   51243   51246   51252       8   51243   51246
   51255       8   51243   51249   51258       8   51243   51249   51261       8
   51234   51243   51246       7   51234   51243   51249       7   51228   51234
   51243       8   51222   51234   51228       6   51222   51234   51243       8
   51210   51228   51234       6   51207   51201   51210       6   51207   51222
   51234       6   51201   51198   51204       4   51201   51207   51222       6
   51201   51210   51228       6   51198   51201   51207       5   51198   51201
   51210       5   52065   52089   52107       4   52056   52086   52104       4
   52047   52083   52101       4   52041   52080   52098       4   52029   52077
   52095       4   52020   52074   52092       4   52014   52065   52089       5
   52008   52065   52014       6   52008   52065   52089       5   52002   52056
   52086       5   51996   52056   52002       6   51996   52056   52086       5
   51990   52047   52083       5   51984   52047   51990       6   51984   52047
   52083       5   51978   52041   52080       5   51972   52041   51978       6
   51972   52041   52080       5   51969   52029   52077       5   51963   52029
   51969       6   51963   52029   52077       5   51954   52020   52074       5
   51948   52020   51954       6   51948   52020   52074       5   51945   52014
   52065       6   51942   51906   51945       6   51942   52008   52065       6
   51939   52002   52056       6   51936   51903   51939       6   51936   51996
   52056       6   51933   51990   52047       6   51930   51897   51933       6
   51930   51984   52047       6   51927   51978   52041       6   51924   51894
   51927       6   51924   51972   52041       6   51921   51969   52029       6
   51918   51891   51921       6   51918   51963   52029       6   51915   51954
   52020       6   51912   51888   51915       6   51912   51948   52020       6
   51906   51942   52008       6   51906   51945   52014       6   51903   51879
   51906       7   51903   51936   51996       6   51903   51939   52002       6
   51897   51930   51984       6   51897   51933   51990       6   51894   51870
   51897       7   51894   51924   51972       6   51894   51927   51978       6
   51891   51918   51963       6   51891   51921   51969       6   51888   51867
   51891       7   51888   51912   51948       6   51888   51915   51954       6
   51879   51849   51882       8   51879   51903   51936       8   51879   51903
   51939       8   51879   51906   51942       8   51879   51906   51945       8
   51870   51837   51873       8   51870   51894   51924       8   51870   51894
   51927       8   51870   51897   51930       8   51870   51897   51933       8
   51867   51888   51912       8   51867   51888   51915       8   51867   51891
   51918       8   51867   51891   51921       8   51849   51879   51903       7
   51849   51879   51906       7   51849   51882   51852       6   51837   51870
   51894       7   51837   51870   51897       7   51837   51873   51843       6
   51831   51867   51888       7   51831   51867   51891       7   51825   51831
   51867       8   51819   51813   51843       9   51819   51852   51882      10
   51816   51798   51819      10   51816   51849   51879       8   51816   51849
   51882       6   51813   51819   51852       9   51813   51843   51873      10
   51810   51795   51813      10   51810   51837   51870       8   51810   51837
   51873       6   51807   51831   51825       6   51807   51831   51867       8
   51804   51825   51831       6   51798   51816   51849       6   51798   51819
   51813       9   51798   51819   51852      12   51795   51774   51798      13
   51795   51810   51837       6   51795   51813   51819       9   51795   51813
   51843      12   51792   51774   51795      13   51792   51774   51798      13
   51792   51789   51804      12   51792   51807   51831       6   51789   51792
   51807      10   51789   51804   51825      10   51780   51801   51822       4
   51774   51792   51789      14   51774   51792   51807      15   51774   51795
   51810      15   51774   51795   51813      14   51774   51798   51816      15
   51774   51798   51819      14   51771   51747   51774      14   51771   51789
   51792       9   51771   51789   51804       9   51765   51780   51801       5
   51759   51780   51765       6   51759   51780   51801       5   51753   51771
   51789       9   51747   51771   51753      12   51747   51771   51789       9
   51747   51774   51792      13   51747   51774   51795      13   51747   51774
   51798      13   51744   51765   51780       6   51741   51732   51744       6
   51741   51759   51780       6   51738   51753   51771      10   51735   51729
   51738       6   51735   51747   51771      10   51735   51747   51774      15
   51732   51741   51759       6   51732   51744   51765       6   51729   51726
   51732       7   51729   51735   51747       6   51729   51738   51753       6
   51726   51729   51735       8   51726   51729   51738       8   51726   51732
   51741       8   51726   51732   51744       8   51717   51726   51729       7
   51717   51726   51732       7   51711   51717   51726       8   51705   51717
   51711       6   51705   51717   51726       8   51693   51711   51717       6
   51690   51684   51693       6   51690   51705   51717       6   51684   51681
   51687       4   51684   51690   51705       6   51684   51693   51711       6
   51681   51684   51690       5   51681   51684   51693       5   52548   52572
   52590       4   52539   52569   52587       4   52530   52566   52584       4
   52524   52563   52581       4   52512   52560   52578       4   52503   52557
   52575       4   52497   52548   52572       5   52491   52548   52497       6
   52491   52548   52572       5   52485   52539   52569       5   52479   52539
   52485       6   52479   52539   52569       5   52473   52530   52566       5
   52467   52530   52473       6   52467   52530   52566       5   52461   52524
   52563       5   52455   52524   52461       6   52455   52524   52563       5
   52452   52512   52560       5   52446   52512   52452       6   52446   52512
   52560       5   52437   52503   52557       5   52431   52503   52437       6
   52431   52503   52557       5   52428   52497   52548       6   52425   52389
   52428       6   52425   52491   52548       6   52422   52485   52539       6
   52419   52386   52422       6   52419   52479   52539       6   52416   52473
   52530       6   52413   52380   52416       6   52413   52467   52530       6
   52410   52461   52524       6   52407   52377   52410       6   52407   52455
   52524       6   52404   52452   52512       6   52401   52374   52404       6
   52401   52446   52512       6   52398   52437   52503       6   52395   52371
   52398       6   52395   52431   52503       6   52389   52425   52491       6
   52389   52428   52497       6   52386   52362   52389       7   52386   52419
   52479       6   52386   52422   52485       6   52380   52413   52467       6
   52380   52416   52473       6   52377   52353   52380       7   52377   52407
   52455       6   52377   52410   52461       6   52374   52401   52446       6
   52374   52404   52452       6   52371   52350   52374       7   52371   52395
   52431       6   52371   52398   52437       6   52362   52332   52365       8
   52362   52386   52419       8   52362   52386   52422       8   52362   52389
   52425       8   52362   52389   52428       8   52353   52320   52356       8
   52353   52377   52407       8   52353   52377   52410       8   52353   52380
   52413       8   52353   52380   52416       8   52350   52371   52395       8
   52350   52371   52398       8   52350   52374   52401       8   52350   52374
   52404       8   52332   52362   52386       7   52332   52362   52389       7
   52332   52365   52335       6   52320   52353   52377       7   52320   52353
   52380       7   52320   52356   52326       6   52314   52350   52371       7
   52314   52350   52374       7   52308   52314   52350       8   52302   52296
   52326       9   52302   52335   52365      10   52299   52281   52302      10
   52299   52332   52362       8   52299   52332   52365       6   52296   52302
   52335       9   52296   52326   52356      10   52293   52278   52296      10
   52293   52320   52353       8   52293   52320   52356       6   52290   52314
   52308       6   52290   52314   52350       8   52287   52308   52314       6
   52281   52299   52332       6   52281   52302   52296       9   52281   52302
   52335      12   52278   52257   52281      13   52278   52293   52320       6
   52278   52296   52302       9   52278   52296   52326      12   52275   52257
   52278      13   52275   52257   52281      13   52275   52272   52287      12
   52275   52290   52314       6   52272   52275   52290      10   52272   52287
   52308      10   52263   52284   52305       4   52257   52275   52272      14
   52257   52275   52290      15   52257   52278   52293      15   52257   52278
   52296      14   52257   52281   52299      15   52257   52281   52302      14
   52254   52230   52257      14   52254   52272   52275       9   52254   52272
   52287       9   52248   52263   52284       5   52242   52263   52248       6
   52242   52263   52284       5   52236   52254   52272       9   52230   52254
   52236      12   52230   52254   52272       9   52230   52257   52275      13
   52230   52257   52278      13   52230   52257   52281      13   52227   52248
   52263       6   52224   52215   52227       6   52224   52242   52263       6
   52221   52236   52254      10   52218   52212   52221       6   52218   52230
   52254      10   52218   52230   52257      15   52215   52224   52242       6
   52215   52227   52248       6   52212   52209   52215       7   52212   52218
   52230       6   52212   52221   52236       6   52209   52212   52218       8
   52209   52212   52221       8   52209   52215   52224       8   52209   52215
   52227       8   52200   52209   52212       7   52200   52209   52215       7
   52194   52200   52209       8   52188   52200   52194       6   52188   52200
   52209       8   52176   52194   52200       6   52173   52167   52176       6
   52173   52188   52200       6   52167   52164   52170       4   52167   52173
   52188       6   52167   52176   52194       6   52164   52167   52173       5
   52164   52167   52176       5   53031   53055   53073       4   53022   53052
   53070       4   53013   53049   53067       4   53007   53046   53064       4
   52995   53043   53061       4   52986   53040   53058       4   52980   53031
   53055       5   52974   53031   52980       6   52974   53031   53055       5
   52968   53022   53052       5   52962   53022   52968       6   52962   53022
   53052       5   52956   53013   53049       5   52950   53013   52956       6
   52950   53013   53049       5   52944   53007   53046       5   52938   53007
   52944       6   52938   53007   53046       5   52935   52995   53043       5
   52929   52995   52935       6   52929   52995   53043       5   52920   52986
   53040       5   52914   52986   52920       6   52914   52986   53040       5
   52911   52980   53031       6   52908   52872   52911       6   52908   52974
   53031       6   52905   52968   53022       6   52902   52869   52905       6
   52902   52962   53022       6   52899   52956   53013       6   52896   52863
   52899       6   52896   52950   53013       6   52893   52944   53007       6
   52890   52860   52893       6   52890   52938   53007       6   52887   52935
   52995       6   52884   52857   52887       6   52884   52929   52995       6
   52881   52920   52986       6   52878   52854   52881       6   52878   52914
   52986       6   52872   52908   52974       6   52872   52911   52980       6
   52869   52845   52872       7   52869   52902   52962       6   52869   52905
   52968       6   52863   52896   52950       6   52863   52899   52956       6
   52860   52836   52863       7   52860   52890   52938       6   52860   52893
   52944       6   52857   52884   52929       6   52857   52887   52935       6
   52854   52833   52857       7   52854   52878   52914       6   52854   52881
   52920       6   52845   52815   52848       8   52845   52869   52902       8
   52845   52869   52905       8   52845   52872   52908       8   52845   52872
   52911       8   52836   52803   52839       8   52836   52860   52890       8
   52836   52860   52893       8   52836   52863   52896       8   52836   52863
   52899       8   52833   52854   52878       8   52833   52854   52881       8
   52833   52857   52884       8   52833   52857   52887       8   52815   52845
   52869       7   52815   52845   52872       7   52815   52848   52818       6
   52803   52836   52860       7   52803   52836   52863       7   52803   52839
   52809       6   52797   52833   52854       7   52797   52833   52857       7
   52791   52797   52833       8   52785   52779   52809       9   52785   52818
   52848      10   52782   52764   52785      10   52782   52815   52845       8
   52782   52815   52848       6   52779   52785   52818       9   52779   52809
   52839      10   52776   52761   52779      10   52776   52803   52836       8
   52776   52803   52839       6   52773   52797   52791       6   52773   52797
   52833       8   52770   52791   52797       6   52764   52782   52815       6
   52764   52785   52779       9   52764   52785   52818      12   52761   52740
   52764      13   52761   52776   52803       6   52761   52779   52785       9
   52761   52779   52809      12   52758   52740   52761      13   52758   52740
   52764      13   52758   52755   52770      12   52758   52773   52797       6
   52755   52758   52773      10   52755   52770   52791      10   52746   52767
   52788       4   52740   52758   52755      14   52740   52758   52773      15
   52740   52761   52776      15   52740   52761   52779      14   52740   52764
   52782      15   52740   52764   52785      14   52737   52713   52740      14
   52737   52755   52758       9   52737   52755   52770       9   52731   52746
   52767       5   52725   52746   52731       6   52725   52746   52767       5
   52719   52737   52755       9   52713   52737   52719      12   52713   52737
   52755       9   52713   52740   52758      13   52713   52740   52761      13
   52713   52740   52764      13   52710   52731   52746       6   52707   52698
   52710       6   52707   52725   52746       6   52704   52719   52737      10
   52701   52695   52704       6   52701   52713   52737      10   52701   52713
   52740      15   52698   52707   52725       6   52698   52710   52731       6
   52695   52692   52698       7   52695   52701   52713       6   52695   52704
   52719       6   52692   52695   52701       8   52692   52695   52704       8
   52692   52698   52707       8   52692   52698   52710       8   52683   52692
   52695       7   52683   52692   52698       7   52677   52683   52692       8
   52671   52683   52677       6   52671   52683   52692       8   52659   52677
   52683       6   52656   52650   52659       6   52656   52671   52683       6
   52650   52647   52653       4   52650   52656   52671       6   52650   52659
   52677       6   52647   52650   52656       5   52647   52650   52659       5
   53514   53538   53556       4   53505   53535   53553       4   53496   53532
   53550       4   53490   53529   53547       4   53478   53526   53544       4
   53469   53523   53541       4   53463   53514   53538       5   53457   53514
   53463       6   53457   53514   53538       5   53451   53505   53535       5
   53445   53505   53451       6   53445   53505   53535       5   53439   53496
   53532       5   53433   53496   53439       6   53433   53496   53532       5
   53427   53490   53529       5   53421   53490   53427       6   53421   53490
   53529       5   53418   53478   53526       5   53412   53478   53418       6
   53412   53478   53526       5   53403   53469   53523       5   53397   53469
   53403       6   53397   53469   53523       5   53394   53463   53514       6
   53391   53355   53394       6   53391   53457   53514       6   53388   53451
   53505       6   53385   53352   53388       6   53385   53445   53505       6
   53382   53439   53496       6   53379   53346   53382       6   53379   53433
   53496       6   53376   53427   53490       6   53373   53343   53376       6
   53373   53421   53490       6   53370   53418   53478       6   53367   53340
   53370       6   53367   53412   53478       6   53364   53403   53469       6
   53361   53337   53364       6   53361   53397   53469       6   53355   53391
   53457       6   53355   53394   53463       6   53352   53328   53355       7
   53352   53385   53445       6   53352   53388   53451       6   53346   53379
   53433       6   53346   53382   53439       6   53343   53319   53346       7
   53343   53373   53421       6   53343   53376   53427       6   53340   53367
   53412       6   53340   53370   53418       6   53337   53316   53340       7
   53337   53361   53397       6   53337   53364   53403       6   53328   53298
   53331       8   53328   53352   53385       8   53328   53352   53388       8
   53328   53355   53391       8   53328   53355   53394       8   53319   53286
   53322       8   53319   53343   53373       8   53319   53343   53376       8
   53319   53346   53379       8   53319   53346   53382       8   53316   53337
   53361       8   53316   53337   53364       8   53316   53340   53367       8
   53316   53340   53370       8   53298   53328   53352       7   53298   53328
   53355       7   53298   53331   53301       6   53286   53319   53343       7
   53286   53319   53346       7   53286   53322   53292       6   53280   53316
   53337       7   53280   53316   53340       7   53274   53280   53316       8
   53268   53262   53292       9   53268   53301   53331      10   53265   53247
   53268      10   53265   53298   53328       8   53265   53298   53331       6
   53262   53268   53301       9   53262   53292   53322      10   53259   53244
   53262      10   53259   53286   53319       8   53259   53286   53322       6
   53256   53280   53274       6   53256   53280   53316       8   53253   53274
   53280       6   53247   53265   53298       6   53247   53268   53262       9
   53247   53268   53301      12   53244   53223   53247      13   53244   53259
   53286       6   53244   53262   53268       9   53244   53262   53292      12
   53241   53223   53244      13   53241   53223   53247      13   53241   53238
   53253      12   53241   53256   53280       6   53238   53241   53256      10
   53238   53253   53274      10   53229   53250   53271       4   53223   53241
   53238      14   53223   53241   53256      15   53223   53244   53259      15
   53223   53244   53262      14   53223   53247   53265      15   53223   53247
   53268      14   53220   53196   53223      14   53220   53238   53241       9
   53220   53238   53253       9   53214   53229   53250       5   53208   53229
   53214       6   53208   53229   53250       5   53202   53220   53238       9
   53196   53220   53202      12   53196   53220   53238       9   53196   53223
   53241      13   53196   53223   53244      13   53196   53223   53247      13
   53193   53214   53229       6   53190   53181   53193       6   53190   53208
   53229       6   53187   53202   53220      10   53184   53178   53187       6
   53184   53196   53220      10   53184   53196   53223      15   53181   53190
   53208       6   53181   53193   53214       6   53178   53175   53181       7
   53178   53184   53196       6   53178   53187   53202       6   53175   53178
   53184       8   53175   53178   53187       8   53175   53181   53190       8
   53175   53181   53193       8   53166   53175   53178       7   53166   53175
   53181       7   53160   53166   53175       8   53154   53166   53160       6
   53154   53166   53175       8   53142   53160   53166       6   53139   53133
   53142       6   53139   53154   53166       6   53133   53130   53136       4
   53133   53139   53154       6   53133   53142   53160       6   53130   53133
   53139       5   53130   53133   53142       5   53997   54021   54039       4
   53988   54018   54036       4   53979   54015   54033       4   53973   54012
   54030       4   53961   54009   54027       4   53952   54006   54024       4
   53946   53997   54021       5   53940   53997   53946       6   53940   53997
   54021       5   53934   53988   54018       5   53928   53988   53934       6
   53928   53988   54018       5   53922   53979   54015       5   53916   53979
   53922       6   53916   53979   54015       5   53910   53973   54012       5
   53904   53973   53910       6   53904   53973   54012       5   53901   53961
   54009       5   53895   53961   53901       6   53895   53961   54009       5
   53886   53952   54006       5   53880   53952   53886       6   53880   53952
   54006       5   53877   53946   53997       6   53874   53838   53877       6
   53874   53940   53997       6   53871   53934   53988       6   53868   53835
   53871       6   53868   53928   53988       6   53865   53922   53979       6
   53862   53829   53865       6   53862   53916   53979       6   53859   53910
   53973       6   53856   53826   53859       6   53856   53904   53973       6
   53853   53901   53961       6   53850   53823   53853       6   53850   53895
   53961       6   53847   53886   53952       6   53844   53820   53847       6
   53844   53880   53952       6   53838   53874   53940       6   53838   53877
   53946       6   53835   53811   53838       7   53835   53868   53928       6
   53835   53871   53934       6   53829   53862   53916       6   53829   53865
   53922       6   53826   53802   53829       7   53826   53856   53904       6
   53826   53859   53910       6   53823   53850   53895       6   53823   53853
   53901       6   53820   53799   53823       7   53820   53844   53880       6
   53820   53847   53886       6   53811   53781   53814       8   53811   53835
   53868       8   53811   53835   53871       8   53811   53838   53874       8
   53811   53838   53877       8   53802   53769   53805       8   53802   53826
   53856       8   53802   53826   53859       8   53802   53829   53862       8
   53802   53829   53865       8   53799   53820   53844       8   53799   53820
   53847       8   53799   53823   53850       8   53799   53823   53853       8
   53781   53811   53835       7   53781   53811   53838       7   53781   53814
   53784       6   53769   53802   53826       7   53769   53802   53829       7
   53769   53805   53775       6   53763   53799   53820       7   53763   53799
   53823       7   53757   53763   53799       8   53751   53745   53775       9
   53751   53784   53814      10   53748   53730   53751      10   53748   53781
   53811       8   53748   53781   53814       6   53745   53751   53784       9
   53745   53775   53805      10   53742   53727   53745      10   53742   53769
   53802       8   53742   53769   53805       6   53739   53763   53757       6
   53739   53763   53799       8   53736   53757   53763       6   53730   53748
   53781       6   53730   53751   53745       9   53730   53751   53784      12
   53727   53706   53730      13   53727   53742   53769       6   53727   53745
   53751       9   53727   53745   53775      12   53724   53706   53727      13
   53724   53706   53730      13   53724   53721   53736      12   53724   53739
   53763       6   53721   53724   53739      10   53721   53736   53757      10
   53712   53733   53754       4   53706   53724   53721      14   53706   53724
   53739      15   53706   53727   53742      15   53706   53727   53745      14
   53706   53730   53748      15   53706   53730   53751      14   53703   53679
   53706      14   53703   53721   53724       9   53703   53721   53736       9
   53697   53712   53733       5   53691   53712   53697       6   53691   53712
   53733       5   53685   53703   53721       9   53679   53703   53685      12
   53679   53703   53721       9   53679   53706   53724      13   53679   53706
   53727      13   53679   53706   53730      13   53676   53697   53712       6
   53673   53664   53676       6   53673   53691   53712       6   53670   53685
   53703      10   53667   53661   53670       6   53667   53679   53703      10
   53667   53679   53706      15   53664   53673   53691       6   53664   53676
   53697       6   53661   53658   53664       7   53661   53667   53679       6
   53661   53670   53685       6   53658   53661   53667       8   53658   53661
   53670       8   53658   53664   53673       8   53658   53664   53676       8
   53649   53658   53661       7   53649   53658   53664       7   53643   53649
   53658       8   53637   53649   53643       6   53637   53649   53658       8
   53625   53643   53649       6   53622   53616   53625       6   53622   53637
   53649       6   53616   53613   53619       4   53616   53622   53637       6
   53616   53625   53643       6   53613   53616   53622       5   53613   53616
   53625       5   54480   54504   54522       4   54471   54501   54519       4
   54462   54498   54516       4   54456   54495   54513       4   54444   54492
   54510       4   54435   54489   54507       4   54429   54480   54504       5
   54423   54480   54429       6   54423   54480   54504       5   54417   54471
   54501       5   54411   54471   54417       6   54411   54471   54501       5
   54405   54462   54498       5   54399   54462   54405       6   54399   54462
   54498       5   54393   54456   54495       5   54387   54456   54393       6
   54387   54456   54495       5   54384   54444   54492       5   54378   54444
   54384       6   54378   54444   54492       5   54369   54435   54489       5
   54363   54435   54369       6   54363   54435   54489       5   54360   54429
   54480       6   54357   54321   54360       6   54357   54423   54480       6
   54354   54417   54471       6   54351   54318   54354       6   54351   54411
   54471       6   54348   54405   54462       6   54345   54312   54348       6
   54345   54399   54462       6   54342   54393   54456       6   54339   54309
   54342       6   54339   54387   54456       6   54336   54384   54444       6
   54333   54306   54336       6   54333   54378   54444       6   54330   54369
   54435       6   54327   54303   54330       6   54327   54363   54435       6
   54321   54357   54423       6   54321   54360   54429       6   54318   54294
   54321       7   54318   54351   54411       6   54318   54354   54417       6
   54312   54345   54399       6   54312   54348   54405       6   54309   54285
   54312       7   54309   54339   54387       6   54309   54342   54393       6
   54306   54333   54378       6   54306   54336   54384       6   54303   54282
   54306       7   54303   54327   54363       6   54303   54330   54369       6
   54294   54264   54297       8   54294   54318   54351       8   54294   54318
   54354       8   54294   54321   54357       8   54294   54321   54360       8
   54285   54252   54288       8   54285   54309   54339       8   54285   54309
   54342       8   54285   54312   54345       8   54285   54312   54348       8
   54282   54303   54327       8   54282   54303   54330       8   54282   54306
   54333       8   54282   54306   54336       8   54264   54294   54318       7
   54264   54294   54321       7   54264   54297   54267       6   54252   54285
   54309       7   54252   54285   54312       7   54252   54288   54258       6
   54246   54282   54303       7   54246   54282   54306       7   54240   54246
   54282       8   54234   54228   54258       9   54234   54267   54297      10
   54231   54213   54234      10   54231   54264   54294       8   54231   54264
   54297       6   54228   54234   54267       9   54228   54258   54288      10
   54225   54210   54228      10   54225   54252   54285       8   54225   54252
   54288       6   54222   54246   54240       6   54222   54246   54282       8
   54219   54240   54246       6   54213   54231   54264       6   54213   54234
   54228       9   54213   54234   54267      12   54210   54189   54213      13
   54210   54225   54252       6   54210   54228   54234       9   54210   54228
   54258      12   54207   54189   54210      13   54207   54189   54213      13
   54207   54204   54219      12   54207   54222   54246       6   54204   54207
   54222      10   54204   54219   54240      10   54195   54216   54237       4
   54189   54207   54204      14   54189   54207   54222      15   54189   54210
   54225      15   54189   54210   54228      14   54189   54213   54231      15
   54189   54213   54234      14   54186   54162   54189      14   54186   54204
   54207       9   54186   54204   54219       9   54180   54195   54216       5
   54174   54195   54180       6   54174   54195   54216       5   54168   54186
   54204       9   54162   54186   54168      12   54162   54186   54204       9
   54162   54189   54207      13   54162   54189   54210      13   54162   54189
   54213      13   54159   54180   54195       6   54156   54147   54159       6
   54156   54174   54195       6   54153   54168   54186      10   54150   54144
   54153       6   54150   54162   54186      10   54150   54162   54189      15
   54147   54156   54174       6   54147   54159   54180       6   54144   54141
   54147       7   54144   54150   54162       6   54144   54153   54168       6
   54141   54144   54150       8   54141   54144   54153       8   54141   54147
   54156       8   54141   54147   54159       8   54132   54141   54144       7
   54132   54141   54147       7   54126   54132   54141       8   54120   54132
   54126       6   54120   54132   54141       8   54108   54126   54132       6
   54105   54099   54108       6   54105   54120   54132       6   54099   54096
   54102       4   54099   54105   54120       6   54099   54108   54126       6
   54096   54099   54105       5   54096   54099   54108       5   54963   54987
   55005       4   54954   54984   55002       4   54945   54981   54999       4
   54939   54978   54996       4   54927   54975   54993       4   54918   54972
   54990       4   54912   54963   54987       5   54906   54963   54912       6
   54906   54963   54987       5   54900   54954   54984       5   54894   54954
   54900       6   54894   54954   54984       5   54888   54945   54981       5
   54882   54945   54888       6   54882   54945   54981       5   54876   54939
   54978       5   54870   54939   54876       6   54870   54939   54978       5
   54867   54927   54975       5   54861   54927   54867       6   54861   54927
   54975       5   54852   54918   54972       5   54846   54918   54852       6
   54846   54918   54972       5   54843   54912   54963       6   54840   54804
   54843       6   54840   54906   54963       6   54837   54900   54954       6
   54834   54801   54837       6   54834   54894   54954       6   54831   54888
   54945       6   54828   54795   54831       6   54828   54882   54945       6
   54825   54876   54939       6   54822   54792   54825       6   54822   54870
   54939       6   54819   54867   54927       6   54816   54789   54819       6
   54816   54861   54927       6   54813   54852   54918       6   54810   54786
   54813       6   54810   54846   54918       6   54804   54840   54906       6
   54804   54843   54912       6   54801   54777   54804       7   54801   54834
   54894       6   54801   54837   54900       6   54795   54828   54882       6
   54795   54831   54888       6   54792   54768   54795       7   54792   54822
   54870       6   54792   54825   54876       6   54789   54816   54861       6
   54789   54819   54867       6   54786   54765   54789       7   54786   54810
   54846       6   54786   54813   54852       6   54777   54747   54780       8
   54777   54801   54834       8   54777   54801   54837       8   54777   54804
   54840       8   54777   54804   54843       8   54768   54735   54771       8
   54768   54792   54822       8   54768   54792   54825       8   54768   54795
   54828       8   54768   54795   54831       8   54765   54786   54810       8
   54765   54786   54813       8   54765   54789   54816       8   54765   54789
   54819       8   54747   54777   54801       7   54747   54777   54804       7
   54747   54780   54750       6   54735   54768   54792       7   54735   54768
   54795       7   54735   54771   54741       6   54729   54765   54786       7
   54729   54765   54789       7   54723   54729   54765       8   54717   54711
   54741       9   54717   54750   54780      10   54714   54696   54717      10
   54714   54747   54777       8   54714   54747   54780       6   54711   54717
   54750       9   54711   54741   54771      10   54708   54693   54711      10
   54708   54735   54768       8   54708   54735   54771       6   54705   54729
   54723       6   54705   54729   54765       8   54702   54723   54729       6
   54696   54714   54747       6   54696   54717   54711       9   54696   54717
   54750      12   54693   54672   54696      13   54693   54708   54735       6
   54693   54711   54717       9   54693   54711   54741      12   54690   54672
   54693      13   54690   54672   54696      13   54690   54687   54702      12
   54690   54705   54729       6   54687   54690   54705      10   54687   54702
   54723      10   54678   54699   54720       4   54672   54690   54687      14
   54672   54690   54705      15   54672   54693   54708      15   54672   54693
   54711      14   54672   54696   54714      15   54672   54696   54717      14
   54669   54645   54672      14   54669   54687   54690       9   54669   54687
   54702       9   54663   54678   54699       5   54657   54678   54663       6
   54657   54678   54699       5   54651   54669   54687       9   54645   54669
   54651      12   54645   54669   54687       9   54645   54672   54690      13
   54645   54672   54693      13   54645   54672   54696      13   54642   54663
   54678       6   54639   54630   54642       6   54639   54657   54678       6
   54636   54651   54669      10   54633   54627   54636       6   54633   54645
   54669      10   54633   54645   54672      15   54630   54639   54657       6
   54630   54642   54663       6   54627   54624   54630       7   54627   54633
   54645       6   54627   54636   54651       6   54624   54627   54633       8
   54624   54627   54636       8   54624   54630   54639       8   54624   54630
   54642       8   54615   54624   54627       7   54615   54624   54630       7
   54609   54615   54624       8   54603   54615   54609       6   54603   54615
   54624       8   54591   54609   54615       6   54588   54582   54591       6
   54588   54603   54615       6   54582   54579   54585       4   54582   54588
   54603       6   54582   54591   54609       6   54579   54582   54588       5
   54579   54582   54591       5   55446   55470   55488       4   55437   55467
   55485       4   55428   55464   55482       4   55422   55461   55479       4
   55410   55458   55476       4   55401   55455   55473       4   55395   55446
   55470       5   55389   55446   55395       6   55389   55446   55470       5
   55383   55437   55467       5   55377   55437   55383       6   55377   55437
   55467       5   55371   55428   55464       5   55365   55428   55371       6
   55365   55428   55464       5   55359   55422   55461       5   55353   55422
   55359       6   55353   55422   55461       5   55350   55410   55458       5
   55344   55410   55350       6   55344   55410   55458       5   55335   55401
   55455       5   55329   55401   55335       6   55329   55401   55455       5
   55326   55395   55446       6   55323   55287   55326       6   55323   55389
   55446       6   55320   55383   55437       6   55317   55284   55320       6
   55317   55377   55437       6   55314   55371   55428       6   55311   55278
   55314       6   55311   55365   55428       6   55308   55359   55422       6
   55305   55275   55308       6   55305   55353   55422       6   55302   55350
   55410       6   55299   55272   55302       6   55299   55344   55410       6
   55296   55335   55401       6   55293   55269   55296       6   55293   55329
   55401       6   55287   55323   55389       6   55287   55326   55395       6
   55284   55260   55287       7   55284   55317   55377       6   55284   55320
   55383       6   55278   55311   55365       6   55278   55314   55371       6
   55275   55251   55278       7   55275   55305   55353       6   55275   55308
   55359       6   55272   55299   55344       6   55272   55302   55350       6
   55269   55248   55272       7   55269   55293   55329       6   55269   55296
   55335       6   55260   55230   55263       8   55260   55284   55317       8
   55260   55284   55320       8   55260   55287   55323       8   55260   55287
   55326       8   55251   55218   55254       8   55251   55275   55305       8
   55251   55275   55308       8   55251   55278   55311       8   55251   55278
   55314       8   55248   55269   55293       8   55248   55269   55296       8
   55248   55272   55299       8   55248   55272   55302       8   55230   55260
   55284       7   55230   55260   55287       7   55230   55263   55233       6
   55218   55251   55275       7   55218   55251   55278       7   55218   55254
   55224       6   55212   55248   55269       7   55212   55248   55272       7
   55206   55212   55248       8   55200   55194   55224       9   55200   55233
   55263      10   55197   55179   55200      10   55197   55230   55260       8
   55197   55230   55263       6   55194   55200   55233       9   55194   55224
   55254      10   55191   55176   55194      10   55191   55218   55251       8
   55191   55218   55254       6   55188   55212   55206       6   55188   55212
   55248       8   55185   55206   55212       6   55179   55197   55230       6
   55179   55200   55194       9   55179   55200   55233      12   55176   55155
   55179      13   55176   55191   55218       6   55176   55194   55200       9
   55176   55194   55224      12   55173   55155   55176      13   55173   55155
   55179      13   55173   55170   55185      12   55173   55188   55212       6
   55170   55173   55188      10   55170   55185   55206      10   55161   55182
   55203       4   55155   55173   55170      14   55155   55173   55188      15
   55155   55176   55191      15   55155   55176   55194      14   55155   55179
   55197      15   55155   55179   55200      14   55152   55128   55155      14
   55152   55170   55173       9   55152   55170   55185       9   55146   55161
   55182       5   55140   55161   55146       6   55140   55161   55182       5
   55134   55152   55170       9   55128   55152   55134      12   55128   55152
   55170       9   55128   55155   55173      13   55128   55155   55176      13
   55128   55155   55179      13   55125   55146   55161       6   55122   55113
   55125       6   55122   55140   55161       6   55119   55134   55152      10
   55116   55110   55119       6   55116   55128   55152      10   55116   55128
   55155      15   55113   55122   55140       6   55113   55125   55146       6
   55110   55107   55113       7   55110   55116   55128       6   55110   55119
   55134       6   55107   55110   55116       8   55107   55110   55119       8
   55107   55113   55122       8   55107   55113   55125       8   55098   55107
   55110       7   55098   55107   55113       7   55092   55098   55107       8
   55086   55098   55092       6   55086   55098   55107       8   55074   55092
   55098       6   55071   55065   55074       6   55071   55086   55098       6
   55065   55062   55068       4   55065   55071   55086       6   55065   55074
   55092       6   55062   55065   55071       5   55062   55065   55074       5
   55929   55953   55971       4   55920   55950   55968       4   55911   55947
   55965       4   55905   55944   55962       4   55893   55941   55959       4
   55884   55938   55956       4   55878   55929   55953       5   55872   55929
   55878       6   55872   55929   55953       5   55866   55920   55950       5
   55860   55920   55866       6   55860   55920   55950       5   55854   55911
   55947       5   55848   55911   55854       6   55848   55911   55947       5
   55842   55905   55944       5   55836   55905   55842       6   55836   55905
   55944       5   55833   55893   55941       5   55827   55893   55833       6
   55827   55893   55941       5   55818   55884   55938       5   55812   55884
   55818       6   55812   55884   55938       5   55809   55878   55929       6
   55806   55770   55809       6   55806   55872   55929       6   55803   55866
   55920       6   55800   55767   55803       6   55800   55860   55920       6
   55797   55854   55911       6   55794   55761   55797       6   55794   55848
   55911       6   55791   55842   55905       6   55788   55758   55791       6
   55788   55836   55905       6   55785   55833   55893       6   55782   55755
   55785       6   55782   55827   55893       6   55779   55818   55884       6
   55776   55752   55779       6   55776   55812   55884       6   55770   55806
   55872       6   55770   55809   55878       6   55767   55743   55770       7
   55767   55800   55860       6   55767   55803   55866       6   55761   55794
   55848       6   55761   55797   55854       6   55758   55734   55761       7
   55758   55788   55836       6   55758   55791   55842       6   55755   55782
   55827       6   55755   55785   55833       6   55752   55731   55755       7
   55752   55776   55812       6   55752   55779   55818       6   55743   55713
   55746       8   55743   55767   55800       8   55743   55767   55803       8
   55743   55770   55806       8   55743   55770   55809       8   55734   55701
   55737       8   55734   55758   55788       8   55734   55758   55791       8
   55734   55761   55794       8   55734   55761   55797       8   55731   55752
   55776       8   55731   55752   55779       8   55731   55755   55782       8
   55731   55755   55785       8   55713   55743   55767       7   55713   55743
   55770       7   55713   55746   55716       6   55701   55734   55758       7
   55701   55734   55761       7   55701   55737   55707       6   55695   55731
   55752       7   55695   55731   55755       7   55689   55695   55731       8
   55683   55677   55707       9   55683   55716   55746      10   55680   55662
   55683      10   55680   55713   55743       8   55680   55713   55746       6
   55677   55683   55716       9   55677   55707   55737      10   55674   55659
   55677      10   55674   55701   55734       8   55674   55701   55737       6
   55671   55695   55689       6   55671   55695   55731       8   55668   55689
   55695       6   55662   55680   55713       6   55662   55683   55677       9
   55662   55683   55716      12   55659   55638   55662      13   55659   55674
   55701       6   55659   55677   55683       9   55659   55677   55707      12
   55656   55638   55659      13   55656   55638   55662      13   55656   55653
   55668      12   55656   55671   55695       6   55653   55656   55671      10
   55653   55668   55689      10   55644   55665   55686       4   55638   55656
   55653      14   55638   55656   55671      15   55638   55659   55674      15
   55638   55659   55677      14   55638   55662   55680      15   55638   55662
   55683      14   55635   55611   55638      14   55635   55653   55656       9
   55635   55653   55668       9   55629   55644   55665       5   55623   55644
   55629       6   55623   55644   55665       5   55617   55635   55653       9
   55611   55635   55617      12   55611   55635   55653       9   55611   55638
   55656      13   55611   55638   55659      13   55611   55638   55662      13
   55608   55629   55644       6   55605   55596   55608       6   55605   55623
   55644       6   55602   55617   55635      10   55599   55593   55602       6
   55599   55611   55635      10   55599   55611   55638      15   55596   55605
   55623       6   55596   55608   55629       6   55593   55590   55596       7
   55593   55599   55611       6   55593   55602   55617       6   55590   55593
   55599       8   55590   55593   55602       8   55590   55596   55605       8
   55590   55596   55608       8   55581   55590   55593       7   55581   55590
   55596       7   55575   55581   55590       8   55569   55581   55575       6
   55569   55581   55590       8   55557   55575   55581       6   55554   55548
   55557       6   55554   55569   55581       6   55548   55545   55551       4
   55548   55554   55569       6   55548   55557   55575       6   55545   55548
   55554       5   55545   55548   55557       5   56412   56436   56454       4
   56403   56433   56451       4   56394   56430   56448       4   56388   56427
   56445       4   56376   56424   56442       4   56367   56421   56439       4
   56361   56412   56436       5   56355   56412   56361       6   56355   56412
   56436       5   56349   56403   56433       5   56343   56403   56349       6
   56343   56403   56433       5   56337   56394   56430       5   56331   56394
   56337       6   56331   56394   56430       5   56325   56388   56427       5
   56319   56388   56325       6   56319   56388   56427       5   56316   56376
   56424       5   56310   56376   56316       6   56310   56376   56424       5
   56301   56367   56421       5   56295   56367   56301       6   56295   56367
   56421       5   56292   56361   56412       6   56289   56253   56292       6
   56289   56355   56412       6   56286   56349   56403       6   56283   56250
   56286       6   56283   56343   56403       6   56280   56337   56394       6
   56277   56244   56280       6   56277   56331   56394       6   56274   56325
   56388       6   56271   56241   56274       6   56271   56319   56388       6
   56268   56316   56376       6   56265   56238   56268       6   56265   56310
   56376       6   56262   56301   56367       6   56259   56235   56262       6
   56259   56295   56367       6   56253   56289   56355       6   56253   56292
   56361       6   56250   56226   56253       7   56250   56283   56343       6
   56250   56286   56349       6   56244   56277   56331       6   56244   56280
   56337       6   56241   56217   56244       7   56241   56271   56319       6
   56241   56274   56325       6   56238   56265   56310       6   56238   56268
   56316       6   56235   56214   56238       7   56235   56259   56295       6
   56235   56262   56301       6   56226   56196   56229       8   56226   56250
   56283       8   56226   56250   56286       8   56226   56253   56289       8
   56226   56253   56292       8   56217   56184   56220       8   56217   56241
   56271       8   56217   56241   56274       8   56217   56244   56277       8
   56217   56244   56280       8   56214   56235   56259       8   56214   56235
   56262       8   56214   56238   56265       8   56214   56238   56268       8
   56196   56226   56250       7   56196   56226   56253       7   56196   56229
   56199       6   56184   56217   56241       7   56184   56217   56244       7
   56184   56220   56190       6   56178   56214   56235       7   56178   56214
   56238       7   56172   56178   56214       8   56166   56160   56190       9
   56166   56199   56229      10   56163   56145   56166      10   56163   56196
   56226       8   56163   56196   56229       6   56160   56166   56199       9
   56160   56190   56220      10   56157   56142   56160      10   56157   56184
   56217       8   56157   56184   56220       6   56154   56178   56172       6
   56154   56178   56214       8   56151   56172   56178       6   56145   56163
   56196       6   56145   56166   56160       9   56145   56166   56199      12
   56142   56121   56145      13   56142   56157   56184       6   56142   56160
   56166       9   56142   56160   56190      12   56139   56121   56142      13
   56139   56121   56145      13   56139   56136   56151      12   56139   56154
   56178       6   56136   56139   56154      10   56136   56151   56172      10
   56127   56148   56169       4   56121   56139   56136      14   56121   56139
   56154      15   56121   56142   56157      15   56121   56142   56160      14
   56121   56145   56163      15   56121   56145   56166      14   56118   56094
   56121      14   56118   56136   56139       9   56118   56136   56151       9
   56112   56127   56148       5   56106   56127   56112       6   56106   56127
   56148       5   56100   56118   56136       9   56094   56118   56100      12
   56094   56118   56136       9   56094   56121   56139      13   56094   56121
   56142      13   56094   56121   56145      13   56091   56112   56127       6
   56088   56079   56091       6   56088   56106   56127       6   56085   56100
   56118      10   56082   56076   56085       6   56082   56094   56118      10
   56082   56094   56121      15   56079   56088   56106       6   56079   56091
   56112       6   56076   56073   56079       7   56076   56082   56094       6
   56076   56085   56100       6   56073   56076   56082       8   56073   56076
   56085       8   56073   56079   56088       8   56073   56079   56091       8
   56064   56073   56076       7   56064   56073   56079       7   56058   56064
   56073       8   56052   56064   56058       6   56052   56064   56073       8
   56040   56058   56064       6   56037   56031   56040       6   56037   56052
   56064       6   56031   56028   56034       4   56031   56037   56052       6
   56031   56040   56058       6   56028   56031   56037       5   56028   56031
   56040       5   56895   56919   56937       4   56886   56916   56934       4
   56877   56913   56931       4   56871   56910   56928       4   56859   56907
   56925       4   56850   56904   56922       4   56844   56895   56919       5
   56838   56895   56844       6   56838   56895   56919       5   56832   56886
   56916       5   56826   56886   56832       6   56826   56886   56916       5
   56820   56877   56913       5   56814   56877   56820       6   56814   56877
   56913       5   56808   56871   56910       5   56802   56871   56808       6
   56802   56871   56910       5   56799   56859   56907       5   56793   56859
   56799       6   56793   56859   56907       5   56784   56850   56904       5
   56778   56850   56784       6   56778   56850   56904       5   56775   56844
   56895       6   56772   56736   56775       6   56772   56838   56895       6
   56769   56832   56886       6   56766   56733   56769       6   56766   56826
   56886       6   56763   56820   56877       6   56760   56727   56763       6
   56760   56814   56877       6   56757   56808   56871       6   56754   56724
   56757       6   56754   56802   56871       6   56751   56799   56859       6
   56748   56721   56751       6   56748   56793   56859       6   56745   56784
   56850       6   56742   56718   56745       6   56742   56778   56850       6
   56736   56772   56838       6   56736   56775   56844       6   56733   56709
   56736       7   56733   56766   56826       6   56733   56769   56832       6
   56727   56760   56814       6   56727   56763   56820       6   56724   56700
   56727       7   56724   56754   56802       6   56724   56757   56808       6
   56721   56748   56793       6   56721   56751   56799       6   56718   56697
   56721       7   56718   56742   56778       6   56718   56745   56784       6
   56709   56679   56712       8   56709   56733   56766       8   56709   56733
   56769       8   56709   56736   56772       8   56709   56736   56775       8
   56700   56667   56703       8   56700   56724   56754       8   56700   56724
   56757       8   56700   56727   56760       8   56700   56727   56763       8
   56697   56718   56742       8   56697   56718   56745       8   56697   56721
   56748       8   56697   56721   56751       8   56679   56709   56733       7
   56679   56709   56736       7   56679   56712   56682       6   56667   56700
   56724       7   56667   56700   56727       7   56667   56703   56673       6
   56661   56697   56718       7   56661   56697   56721       7   56655   56661
   56697       8   56649   56643   56673       9   56649   56682   56712      10
   56646   56628   56649      10   56646   56679   56709       8   56646   56679
   56712       6   56643   56649   56682       9   56643   56673   56703      10
   56640   56625   56643      10   56640   56667   56700       8   56640   56667
   56703       6   56637   56661   56655       6   56637   56661   56697       8
   56634   56655   56661       6   56628   56646   56679       6   56628   56649
   56643       9   56628   56649   56682      12   56625   56604   56628      13
   56625   56640   56667       6   56625   56643   56649       9   56625   56643
   56673      12   56622   56604   56625      13   56622   56604   56628      13
   56622   56619   56634      12   56622   56637   56661       6   56619   56622
   56637      10   56619   56634   56655      10   56610   56631   56652       4
   56604   56622   56619      14   56604   56622   56637      15   56604   56625
   56640      15   56604   56625   56643      14   56604   56628   56646      15
   56604   56628   56649      14   56601   56577   56604      14   56601   56619
   56622       9   56601   56619   56634       9   56595   56610   56631       5
   56589   56610   56595       6   56589   56610   56631       5   56583   56601
   56619       9   56577   56601   56583      12   56577   56601   56619       9
   56577   56604   56622      13   56577   56604   56625      13   56577   56604
   56628      13   56574   56595   56610       6   56571   56562   56574       6
   56571   56589   56610       6   56568   56583   56601      10   56565   56559
   56568       6   56565   56577   56601      10   56565   56577   56604      15
   56562   56571   56589       6   56562   56574   56595       6   56559   56556
   56562       7   56559   56565   56577       6   56559   56568   56583       6
   56556   56559   56565       8   56556   56559   56568       8   56556   56562
   56571       8   56556   56562   56574       8   56547   56556   56559       7
   56547   56556   56562       7   56541   56547   56556       8   56535   56547
   56541       6   56535   56547   56556       8   56523   56541   56547       6
   56520   56514   56523       6   56520   56535   56547       6   56514   56511
   56517       4   56514   56520   56535       6   56514   56523   56541       6
   56511   56514   56520       5   56511   56514   56523       5   57378   57402
   57420       4   57369   57399   57417       4   57360   57396   57414       4
   57354   57393   57411       4   57342   57390   57408       4   57333   57387
   57405       4   57327   57378   57402       5   57321   57378   57327       6
   57321   57378   57402       5   57315   57369   57399       5   57309   57369
   57315       6   57309   57369   57399       5   57303   57360   57396       5
   57297   57360   57303       6   57297   57360   57396       5   57291   57354
   57393       5   57285   57354   57291       6   57285   57354   57393       5
   57282   57342   57390       5   57276   57342   57282       6   57276   57342
   57390       5   57267   57333   57387       5   57261   57333   57267       6
   57261   57333   57387       5   57258   57327   57378       6   57255   57219
   57258       6   57255   57321   57378       6   57252   57315   57369       6
   57249   57216   57252       6   57249   57309   57369       6   57246   57303
   57360       6   57243   57210   57246       6   57243   57297   57360       6
   57240   57291   57354       6   57237   57207   57240       6   57237   57285
   57354       6   57234   57282   57342       6   57231   57204   57234       6
   57231   57276   57342       6   57228   57267   57333       6   57225   57201
   57228       6   57225   57261   57333       6   57219   57255   57321       6
   57219   57258   57327       6   57216   57192   57219       7   57216   57249
   57309       6   57216   57252   57315       6   57210   57243   57297       6
   57210   57246   57303       6   57207   57183   57210       7   57207   57237
   57285       6   57207   57240   57291       6   57204   57231   57276       6
   57204   57234   57282       6   57201   57180   57204       7   57201   57225
   57261       6   57201   57228   57267       6   57192   57162   57195       8
   57192   57216   57249       8   57192   57216   57252       8   57192   57219
   57255       8   57192   57219   57258       8   57183   57150   57186       8
   57183   57207   57237       8   57183   57207   57240       8   57183   57210
   57243       8   57183   57210   57246       8   57180   57201   57225       8
   57180   57201   57228       8   57180   57204   57231       8   57180   57204
   57234       8   57162   57192   57216       7   57162   57192   57219       7
   57162   57195   57165       6   57150   57183   57207       7   57150   57183
   57210       7   57150   57186   57156       6   57144   57180   57201       7
   57144   57180   57204       7   57138   57144   57180       8   57132   57126
   57156       9   57132   57165   57195      10   57129   57111   57132      10
   57129   57162   57192       8   57129   57162   57195       6   57126   57132
   57165       9   57126   57156   57186      10   57123   57108   57126      10
   57123   57150   57183       8   57123   57150   57186       6   57120   57144
   57138       6   57120   57144   57180       8   57117   57138   57144       6
   57111   57129   57162       6   57111   57132   57126       9   57111   57132
   57165      12   57108   57087   57111      13   57108   57123   57150       6
   57108   57126   57132       9   57108   57126   57156      12   57105   57087
   57108      13   57105   57087   57111      13   57105   57102   57117      12
   57105   57120   57144       6   57102   57105   57120      10   57102   57117
   57138      10   57093   57114   57135       4   57087   57105   57102      14
   57087   57105   57120      15   57087   57108   57123      15   57087   57108
   57126      14   57087   57111   57129      15   57087   57111   57132      14
   57084   57060   57087      14   57084   57102   57105       9   57084   57102
   57117       9   57078   57093   57114       5   57072   57093   57078       6
   57072   57093   57114       5   57066   57084   57102       9   57060   57084
   57066      12   57060   57084   57102       9   57060   57087   57105      13
   57060   57087   57108      13   57060   57087   57111      13   57057   57078
   57093       6   57054   57045   57057       6   57054   57072   57093       6
   57051   57066   57084      10   57048   57042   57051       6   57048   57060
   57084      10   57048   57060   57087      15   57045   57054   57072       6
   57045   57057   57078       6   57042   57039   57045       7   57042   57048
   57060       6   57042   57051   57066       6   57039   57042   57048       8
   57039   57042   57051       8   57039   57045   57054       8   57039   57045
   57057       8   57030   57039   57042       7   57030   57039   57045       7
   57024   57030   57039       8   57018   57030   57024       6   57018   57030
   57039       8   57006   57024   57030       6   57003   56997   57006       6
   57003   57018   57030       6   56997   56994   57000       4   56997   57003
   57018       6   56997   57006   57024       6   56994   56997   57003       5
   56994   56997   57006       5   57861   57885   57903       4   57852   57882
   57900       4   57843   57879   57897       4   57837   57876   57894       4
   57825   57873   57891       4   57816   57870   57888       4   57810   57861
   57885       5   57804   57861   57810       6   57804   57861   57885       5
   57798   57852   57882       5   57792   57852   57798       6   57792   57852
   57882       5   57786   57843   57879       5   57780   57843   57786       6
   57780   57843   57879       5   57774   57837   57876       5   57768   57837
   57774       6   57768   57837   57876       5   57765   57825   57873       5
   57759   57825   57765       6   57759   57825   57873       5   57750   57816
   57870       5   57744   57816   57750       6   57744   57816   57870       5
   57741   57810   57861       6   57738   57702   57741       6   57738   57804
   57861       6   57735   57798   57852       6   57732   57699   57735       6
   57732   57792   57852       6   57729   57786   57843       6   57726   57693
   57729       6   57726   57780   57843       6   57723   57774   57837       6
   57720   57690   57723       6   57720   57768   57837       6   57717   57765
   57825       6   57714   57687   57717       6   57714   57759   57825       6
   57711   57750   57816       6   57708   57684   57711       6   57708   57744
   57816       6   57702   57738   57804       6   57702   57741   57810       6
   57699   57675   57702       7   57699   57732   57792       6   57699   57735
   57798       6   57693   57726   57780       6   57693   57729   57786       6
   57690   57666   57693       7   57690   57720   57768       6   57690   57723
   57774       6   57687   57714   57759       6   57687   57717   57765       6
   57684   57663   57687       7   57684   57708   57744       6   57684   57711
   57750       6   57675   57645   57678       8   57675   57699   57732       8
   57675   57699   57735       8   57675   57702   57738       8   57675   57702
   57741       8   57666   57633   57669       8   57666   57690   57720       8
   57666   57690   57723       8   57666   57693   57726       8   57666   57693
   57729       8   57663   57684   57708       8   57663   57684   57711       8
   57663   57687   57714       8   57663   57687   57717       8   57645   57675
   57699       7   57645   57675   57702       7   57645   57678   57648       6
   57633   57666   57690       7   57633   57666   57693       7   57633   57669
   57639       6   57627   57663   57684       7   57627   57663   57687       7
   57621   57627   57663       8   57615   57609   57639       9   57615   57648
   57678      10   57612   57594   57615      10   57612   57645   57675       8
   57612   57645   57678       6   57609   57615   57648       9   57609   57639
   57669      10   57606   57591   57609      10   57606   57633   57666       8
   57606   57633   57669       6   57603   57627   57621       6   57603   57627
   57663       8   57600   57621   57627       6   57594   57612   57645       6
   57594   57615   57609       9   57594   57615   57648      12   57591   57570
   57594      13   57591   57606   57633       6   57591   57609   57615       9
   57591   57609   57639      12   57588   57570   57591      13   57588   57570
   57594      13   57588   57585   57600      12   57588   57603   57627       6
   57585   57588   57603      10   57585   57600   57621      10   57576   57597
   57618       4   57570   57588   57585      14   57570   57588   57603      15
   57570   57591   57606      15   57570   57591   57609      14   57570   57594
   57612      15   57570   57594   57615      14   57567   57543   57570      14
   57567   57585   57588       9   57567   57585   57600       9   57561   57576
   57597       5   57555   57576   57561       6   57555   57576   57597       5
   57549   57567   57585       9   57543   57567   57549      12   57543   57567
   57585       9   57543   57570   57588      13   57543   57570   57591      13
   57543   57570   57594      13   57540   57561   57576       6   57537   57528
   57540       6   57537   57555   57576       6   57534   57549   57567      10
   57531   57525   57534       6   57531   57543   57567      10   57531   57543
   57570      15   57528   57537   57555       6   57528   57540   57561       6
   57525   57522   57528       7   57525   57531   57543       6   57525   57534
   57549       6   57522   57525   57531       8   57522   57525   57534       8
   57522   57528   57537       8   57522   57528   57540       8   57513   57522
   57525       7   57513   57522   57528       7   57507   57513   57522       8
   57501   57513   57507       6   57501   57513   57522       8   57489   57507
   57513       6   57486   57480   57489       6   57486   57501   57513       6
   57480   57477   57483       4   57480   57486   57501       6   57480   57489
   57507       6   57477   57480   57486       5   57477   57480   57489       5
   58344   58368   58386       4   58335   58365   58383       4   58326   58362
   58380       4   58320   58359   58377       4   58308   58356   58374       4
   58299   58353   58371       4   58293   58344   58368       5   58287   58344
   58293       6   58287   58344   58368       5   58281   58335   58365       5
   58275   58335   58281       6   58275   58335   58365       5   58269   58326
   58362       5   58263   58326   58269       6   58263   58326   58362       5
   58257   58320   58359       5   58251   58320   58257       6   58251   58320
   58359       5   58248   58308   58356       5   58242   58308   58248       6
   58242   58308   58356       5   58233   58299   58353       5   58227   58299
   58233       6   58227   58299   58353       5   58224   58293   58344       6
   58221   58185   58224       6   58221   58287   58344       6   58218   58281
   58335       6   58215   58182   58218       6   58215   58275   58335       6
   58212   58269   58326       6   58209   58176   58212       6   58209   58263
   58326       6   58206   58257   58320       6   58203   58173   58206       6
   58203   58251   58320       6   58200   58248   58308       6   58197   58170
   58200       6   58197   58242   58308       6   58194   58233   58299       6
   58191   58167   58194       6   58191   58227   58299       6   58185   58221
   58287       6   58185   58224   58293       6   58182   58158   58185       7
   58182   58215   58275       6   58182   58218   58281       6   58176   58209
   58263       6   58176   58212   58269       6   58173   58149   58176       7
   58173   58203   58251       6   58173   58206   58257       6   58170   58197
   58242       6   58170   58200   58248       6   58167   58146   58170       7
   58167   58191   58227       6   58167   58194   58233       6   58158   58128
   58161       8   58158   58182   58215       8   58158   58182   58218       8
   58158   58185   58221       8   58158   58185   58224       8   58149   58116
   58152       8   58149   58173   58203       8   58149   58173   58206       8
   58149   58176   58209       8   58149   58176   58212       8   58146   58167
   58191       8   58146   58167   58194       8   58146   58170   58197       8
   58146   58170   58200       8   58128   58158   58182       7   58128   58158
   58185       7   58128   58161   58131       6   58116   58149   58173       7
   58116   58149   58176       7   58116   58152   58122       6   58110   58146
   58167       7   58110   58146   58170       7   58104   58110   58146       8
   58098   58092   58122       9   58098   58131   58161      10   58095   58077
   58098      10   58095   58128   58158       8   58095   58128   58161       6
   58092   58098   58131       9   58092   58122   58152      10   58089   58074
   58092      10   58089   58116   58149       8   58089   58116   58152       6
   58086   58110   58104       6   58086   58110   58146       8   58083   58104
   58110       6   58077   58095   58128       6   58077   58098   58092       9
   58077   58098   58131      12   58074   58053   58077      13   58074   58089
   58116       6   58074   58092   58098       9   58074   58092   58122      12
   58071   58053   58074      13   58071   58053   58077      13   58071   58068
   58083      12   58071   58086   58110       6   58068   58071   58086      10
   58068   58083   58104      10   58059   58080   58101       4   58053   58071
   58068      14   58053   58071   58086      15   58053   58074   58089      15
   58053   58074   58092      14   58053   58077   58095      15   58053   58077
   58098      14   58050   58026   58053      14   58050   58068   58071       9
   58050   58068   58083       9   58044   58059   58080       5   58038   58059
   58044       6   58038   58059   58080       5   58032   58050   58068       9
   58026   58050   58032      12   58026   58050   58068       9   58026   58053
   58071      13   58026   58053   58074      13   58026   58053   58077      13
   58023   58044   58059       6   58020   58011   58023       6   58020   58038
   58059       6   58017   58032   58050      10   58014   58008   58017       6
   58014   58026   58050      10   58014   58026   58053      15   58011   58020
   58038       6   58011   58023   58044       6   58008   58005   58011       7
   58008   58014   58026       6   58008   58017   58032       6   58005   58008
   58014       8   58005   58008   58017       8   58005   58011   58020       8
   58005   58011   58023       8   57996   58005   58008       7   57996   58005
   58011       7   57990   57996   58005       8   57984   57996   57990       6
   57984   57996   58005       8   57972   57990   57996       6   57969   57963
   57972       6   57969   57984   57996       6   57963   57960   57966       4
   57963   57969   57984       6   57963   57972   57990       6   57960   57963
   57969       5   57960   57963   57972       5   58827   58851   58869       4
   58818   58848   58866       4   58809   58845   58863       4   58803   58842
   58860       4   58791   58839   58857       4   58782   58836   58854       4
   58776   58827   58851       5   58770   58827   58776       6   58770   58827
   58851       5   58764   58818   58848       5   58758   58818   58764       6
   58758   58818   58848       5   58752   58809   58845       5   58746   58809
   58752       6   58746   58809   58845       5   58740   58803   58842       5
   58734   58803   58740       6   58734   58803   58842       5   58731   58791
   58839       5   58725   58791   58731       6   58725   58791   58839       5
   58716   58782   58836       5   58710   58782   58716       6   58710   58782
   58836       5   58707   58776   58827       6   58704   58668   58707       6
   58704   58770   58827       6   58701   58764   58818       6   58698   58665
   58701       6   58698   58758   58818       6   58695   58752   58809       6
   58692   58659   58695       6   58692   58746   58809       6   58689   58740
   58803       6   58686   58656   58689       6   58686   58734   58803       6
   58683   58731   58791       6   58680   58653   58683       6   58680   58725
   58791       6   58677   58716   58782       6   58674   58650   58677       6
   58674   58710   58782       6   58668   58704   58770       6   58668   58707
   58776       6   58665   58641   58668       7   58665   58698   58758       6
   58665   58701   58764       6   58659   58692   58746       6   58659   58695
   58752       6   58656   58632   58659       7   58656   58686   58734       6
   58656   58689   58740       6   58653   58680   58725       6   58653   58683
   58731       6   58650   58629   58653       7   58650   58674   58710       6
   58650   58677   58716       6   58641   58611   58644       8   58641   58665
   58698       8   58641   58665   58701       8   58641   58668   58704       8
   58641   58668   58707       8   58632   58599   58635       8   58632   58656
   58686       8   58632   58656   58689       8   58632   58659   58692       8
   58632   58659   58695       8   58629   58650   58674       8   58629   58650
   58677       8   58629   58653   58680       8   58629   58653   58683       8
   58611   58641   58665       7   58611   58641   58668       7   58611   58644
   58614       6   58599   58632   58656       7   58599   58632   58659       7
   58599   58635   58605       6   58593   58629   58650       7   58593   58629
   58653       7   58587   58593   58629       8   58581   58575   58605       9
   58581   58614   58644      10   58578   58560   58581      10   58578   58611
   58641       8   58578   58611   58644       6   58575   58581   58614       9
   58575   58605   58635      10   58572   58557   58575      10   58572   58599
   58632       8   58572   58599   58635       6   58569   58593   58587       6
   58569   58593   58629       8   58566   58587   58593       6   58560   58578
   58611       6   58560   58581   58575       9   58560   58581   58614      12
   58557   58536   58560      13   58557   58572   58599       6   58557   58575
   58581       9   58557   58575   58605      12   58554   58536   58557      13
   58554   58536   58560      13   58554   58551   58566      12   58554   58569
   58593       6   58551   58554   58569      10   58551   58566   58587      10
   58542   58563   58584       4   58536   58554   58551      14   58536   58554
   58569      15   58536   58557   58572      15   58536   58557   58575      14
   58536   58560   58578      15   58536   58560   58581      14   58533   58509
   58536      14   58533   58551   58554       9   58533   58551   58566       9
   58527   58542   58563       5   58521   58542   58527       6   58521   58542
   58563       5   58515   58533   58551       9   58509   58533   58515      12
   58509   58533   58551       9   58509   58536   58554      13   58509   58536
   58557      13   58509   58536   58560      13   58506   58527   58542       6
   58503   58494   58506       6   58503   58521   58542       6   58500   58515
   58533      10   58497   58491   58500       6   58497   58509   58533      10
   58497   58509   58536      15   58494   58503   58521       6   58494   58506
   58527       6   58491   58488   58494       7   58491   58497   58509       6
   58491   58500   58515       6   58488   58491   58497       8   58488   58491
   58500       8   58488   58494   58503       8   58488   58494   58506       8
   58479   58488   58491       7   58479   58488   58494       7   58473   58479
   58488       8   58467   58479   58473       6   58467   58479   58488       8
   58455   58473   58479       6   58452   58446   58455       6   58452   58467
   58479       6   58446   58443   58449       4   58446   58452   58467       6
   58446   58455   58473       6   58443   58446   58452       5   58443   58446
   58455       5   59310   59334   59352       4   59301   59331   59349       4
   59292   59328   59346       4   59286   59325   59343       4   59274   59322
   59340       4   59265   59319   59337       4   59259   59310   59334       5
   59253   59310   59259       6   59253   59310   59334       5   59247   59301
   59331       5   59241   59301   59247       6   59241   59301   59331       5
   59235   59292   59328       5   59229   59292   59235       6   59229   59292
   59328       5   59223   59286   59325       5   59217   59286   59223       6
   59217   59286   59325       5   59214   59274   59322       5   59208   59274
   59214       6   59208   59274   59322       5   59199   59265   59319       5
   59193   59265   59199       6   59193   59265   59319       5   59190   59259
   59310       6   59187   59151   59190       6   59187   59253   59310       6
   59184   59247   59301       6   59181   59148   59184       6   59181   59241
   59301       6   59178   59235   59292       6   59175   59142   59178       6
   59175   59229   59292       6   59172   59223   59286       6   59169   59139
   59172       6   59169   59217   59286       6   59166   59214   59274       6
   59163   59136   59166       6   59163   59208   59274       6   59160   59199
   59265       6   59157   59133   59160       6   59157   59193   59265       6
   59151   59187   59253       6   59151   59190   59259       6   59148   59124
   59151       7   59148   59181   59241       6   59148   59184   59247       6
   59142   59175   59229       6   59142   59178   59235       6   59139   59115
   59142       7   59139   59169   59217       6   59139   59172   59223       6
   59136   59163   59208       6   59136   59166   59214       6   59133   59112
   59136       7   59133   59157   59193       6   59133   59160   59199       6
   59124   59094   59127       8   59124   59148   59181       8   59124   59148
   59184       8   59124   59151   59187       8   59124   59151   59190       8
   59115   59082   59118       8   59115   59139   59169       8   59115   59139
   59172       8   59115   59142   59175       8   59115   59142   59178       8
   59112   59133   59157       8   59112   59133   59160       8   59112   59136
   59163       8   59112   59136   59166       8   59094   59124   59148       7
   59094   59124   59151       7   59094   59127   59097       6   59082   59115
   59139       7   59082   59115   59142       7   59082   59118   59088       6
   59076   59112   59133       7   59076   59112   59136       7   59070   59076
   59112       8   59064   59058   59088       9   59064   59097   59127      10
   59061   59043   59064      10   59061   59094   59124       8   59061   59094
   59127       6   59058   59064   59097       9   59058   59088   59118      10
   59055   59040   59058      10   59055   59082   59115       8   59055   59082
   59118       6   59052   59076   59070       6   59052   59076   59112       8
   59049   59070   59076       6   59043   59061   59094       6   59043   59064
   59058       9   59043   59064   59097      12   59040   59019   59043      13
   59040   59055   59082       6   59040   59058   59064       9   59040   59058
   59088      12   59037   59019   59040      13   59037   59019   59043      13
   59037   59034   59049      12   59037   59052   59076       6   59034   59037
   59052      10   59034   59049   59070      10   59025   59046   59067       4
   59019   59037   59034      14   59019   59037   59052      15   59019   59040
   59055      15   59019   59040   59058      14   59019   59043   59061      15
   59019   59043   59064      14   59016   58992   59019      14   59016   59034
   59037       9   59016   59034   59049       9   59010   59025   59046       5
   59004   59025   59010       6   59004   59025   59046       5   58998   59016
   59034       9   58992   59016   58998      12   58992   59016   59034       9
   58992   59019   59037      13   58992   59019   59040      13   58992   59019
   59043      13   58989   59010   59025       6   58986   58977   58989       6
   58986   59004   59025       6   58983   58998   59016      10   58980   58974
   58983       6   58980   58992   59016      10   58980   58992   59019      15
   58977   58986   59004       6   58977   58989   59010       6   58974   58971
   58977       7   58974   58980   58992       6   58974   58983   58998       6
   58971   58974   58980       8   58971   58974   58983       8   58971   58977
   58986       8   58971   58977   58989       8   58962   58971   58974       7
   58962   58971   58977       7   58956   58962   58971       8   58950   58962
   58956       6   58950   58962   58971       8   58938   58956   58962       6
   58935   58929   58938       6   58935   58950   58962       6   58929   58926
   58932       4   58929   58935   58950       6   58929   58938   58956       6
   58926   58929   58935       5   58926   58929   58938       5   59793   59817
   59835       4   59784   59814   59832       4   59775   59811   59829       4
   59769   59808   59826       4   59757   59805   59823       4   59748   59802
   59820       4   59742   59793   59817       5   59736   59793   59742       6
   59736   59793   59817       5   59730   59784   59814       5   59724   59784
   59730       6   59724   59784   59814       5   59718   59775   59811       5
   59712   59775   59718       6   59712   59775   59811       5   59706   59769
   59808       5   59700   59769   59706       6   59700   59769   59808       5
   59697   59757   59805       5   59691   59757   59697       6   59691   59757
   59805       5   59682   59748   59802       5   59676   59748   59682       6
   59676   59748   59802       5   59673   59742   59793       6   59670   59634
   59673       6   59670   59736   59793       6   59667   59730   59784       6
   59664   59631   59667       6   59664   59724   59784       6   59661   59718
   59775       6   59658   59625   59661       6   59658   59712   59775       6
   59655   59706   59769       6   59652   59622   59655       6   59652   59700
   59769       6   59649   59697   59757       6   59646   59619   59649       6
   59646   59691   59757       6   59643   59682   59748       6   59640   59616
   59643       6   59640   59676   59748       6   59634   59670   59736       6
   59634   59673   59742       6   59631   59607   59634       7   59631   59664
   59724       6   59631   59667   59730       6   59625   59658   59712       6
   59625   59661   59718       6   59622   59598   59625       7   59622   59652
   59700       6   59622   59655   59706       6   59619   59646   59691       6
   59619   59649   59697       6   59616   59595   59619       7   59616   59640
   59676       6   59616   59643   59682       6   59607   59577   59610       8
   59607   59631   59664       8   59607   59631   59667       8   59607   59634
   59670       8   59607   59634   59673       8   59598   59565   59601       8
   59598   59622   59652       8   59598   59622   59655       8   59598   59625
   59658       8   59598   59625   59661       8   59595   59616   59640       8
   59595   59616   59643       8   59595   59619   59646       8   59595   59619
   59649       8   59577   59607   59631       7   59577   59607   59634       7
   59577   59610   59580       6   59565   59598   59622       7   59565   59598
   59625       7   59565   59601   59571       6   59559   59595   59616       7
   59559   59595   59619       7   59553   59559   59595       8   59547   59541
   59571       9   59547   59580   59610      10   59544   59526   59547      10
   59544   59577   59607       8   59544   59577   59610       6   59541   59547
   59580       9   59541   59571   59601      10   59538   59523   59541      10
   59538   59565   59598       8   59538   59565   59601       6   59535   59559
   59553       6   59535   59559   59595       8   59532   59553   59559       6
   59526   59544   59577       6   59526   59547   59541       9   59526   59547
   59580      12   59523   59502   59526      13   59523   59538   59565       6
   59523   59541   59547       9   59523   59541   59571      12   59520   59502
   59523      13   59520   59502   59526      13   59520   59517   59532      12
   59520   59535   59559       6   59517   59520   59535      10   59517   59532
   59553      10   59508   59529   59550       4   59502   59520   59517      14
   59502   59520   59535      15   59502   59523   59538      15   59502   59523
   59541      14   59502   59526   59544      15   59502   59526   59547      14
   59499   59475   59502      14   59499   59517   59520       9   59499   59517
   59532       9   59493   59508   59529       5   59487   59508   59493       6
   59487   59508   59529       5   59481   59499   59517       9   59475   59499
   59481      12   59475   59499   59517       9   59475   59502   59520      13
   59475   59502   59523      13   59475   59502   59526      13   59472   59493
   59508       6   59469   59460   59472       6   59469   59487   59508       6
   59466   59481   59499      10   59463   59457   59466       6   59463   59475
   59499      10   59463   59475   59502      15   59460   59469   59487       6
   59460   59472   59493       6   59457   59454   59460       7   59457   59463
   59475       6   59457   59466   59481       6   59454   59457   59463       8
   59454   59457   59466       8   59454   59460   59469       8   59454   59460
   59472       8   59445   59454   59457       7   59445   59454   59460       7
   59439   59445   59454       8   59433   59445   59439       6   59433   59445
   59454       8   59421   59439   59445       6   59418   59412   59421       6
   59418   59433   59445       6   59412   59409   59415       4   59412   59418
   59433       6   59412   59421   59439       6   59409   59412   59418       5
   59409   59412   59421       5   60276   60300   60318       4   60267   60297
   60315       4   60258   60294   60312       4   60252   60291   60309       4
   60240   60288   60306       4   60231   60285   60303       4   60225   60276
   60300       5   60219   60276   60225       6   60219   60276   60300       5
   60213   60267   60297       5   60207   60267   60213       6   60207   60267
   60297       5   60201   60258   60294       5   60195   60258   60201       6
   60195   60258   60294       5   60189   60252   60291       5   60183   60252
   60189       6   60183   60252   60291       5   60180   60240   60288       5
   60174   60240   60180       6   60174   60240   60288       5   60165   60231
   60285       5   60159   60231   60165       6   60159   60231   60285       5
   60156   60225   60276       6   60153   60117   60156       6   60153   60219
   60276       6   60150   60213   60267       6   60147   60114   60150       6
   60147   60207   60267       6   60144   60201   60258       6   60141   60108
   60144       6   60141   60195   60258       6   60138   60189   60252       6
   60135   60105   60138       6   60135   60183   60252       6   60132   60180
   60240       6   60129   60102   60132       6   60129   60174   60240       6
   60126   60165   60231       6   60123   60099   60126       6   60123   60159
   60231       6   60117   60153   60219       6   60117   60156   60225       6
   60114   60090   60117       7   60114   60147   60207       6   60114   60150
   60213       6   60108   60141   60195       6   60108   60144   60201       6
   60105   60081   60108       7   60105   60135   60183       6   60105   60138
   60189       6   60102   60129   60174       6   60102   60132   60180       6
   60099   60078   60102       7   60099   60123   60159       6   60099   60126
   60165       6   60090   60060   60093       8   60090   60114   60147       8
   60090   60114   60150       8   60090   60117   60153       8   60090   60117
   60156       8   60081   60048   60084       8   60081   60105   60135       8
   60081   60105   60138       8   60081   60108   60141       8   60081   60108
   60144       8   60078   60099   60123       8   60078   60099   60126       8
   60078   60102   60129       8   60078   60102   60132       8   60060   60090
   60114       7   60060   60090   60117       7   60060   60093   60063       6
   60048   60081   60105       7   60048   60081   60108       7   60048   60084
   60054       6   60042   60078   60099       7   60042   60078   60102       7
   60036   60042   60078       8   60030   60024   60054       9   60030   60063
   60093      10   60027   60009   60030      10   60027   60060   60090       8
   60027   60060   60093       6   60024   60030   60063       9   60024   60054
   60084      10   60021   60006   60024      10   60021   60048   60081       8
   60021   60048   60084       6   60018   60042   60036       6   60018   60042
   60078       8   60015   60036   60042       6   60009   60027   60060       6
   60009   60030   60024       9   60009   60030   60063      12   60006   59985
   60009      13   60006   60021   60048       6   60006   60024   60030       9
   60006   60024   60054      12   60003   59985   60006      13   60003   59985
   60009      13   60003   60000   60015      12   60003   60018   60042       6
   60000   60003   60018      10   60000   60015   60036      10   59991   60012
   60033       4   59985   60003   60000      14   59985   60003   60018      15
   59985   60006   60021      15   59985   60006   60024      14   59985   60009
   60027      15   59985   60009   60030      14   59982   59958   59985      14
   59982   60000   60003       9   59982   60000   60015       9   59976   59991
   60012       5   59970   59991   59976       6   59970   59991   60012       5
   59964   59982   60000       9   59958   59982   59964      12   59958   59982
   60000       9   59958   59985   60003      13   59958   59985   60006      13
   59958   59985   60009      13   59955   59976   59991       6   59952   59943
   59955       6   59952   59970   59991       6   59949   59964   59982      10
   59946   59940   59949       6   59946   59958   59982      10   59946   59958
   59985      15   59943   59952   59970       6   59943   59955   59976       6
   59940   59937   59943       7   59940   59946   59958       6   59940   59949
   59964       6   59937   59940   59946       8   59937   59940   59949       8
   59937   59943   59952       8   59937   59943   59955       8   59928   59937
   59940       7   59928   59937   59943       7   59922   59928   59937       8
   59916   59928   59922       6   59916   59928   59937       8   59904   59922
   59928       6   59901   59895   59904       6   59901   59916   59928       6
   59895   59892   59898       4   59895   59901   59916       6   59895   59904
   59922       6   59892   59895   59901       5   59892   59895   59904       5
   60759   60783   60801       4   60750   60780   60798       4   60741   60777
   60795       4   60735   60774   60792       4   60723   60771   60789       4
   60714   60768   60786       4   60708   60759   60783       5   60702   60759
   60708       6   60702   60759   60783       5   60696   60750   60780       5
   60690   60750   60696       6   60690   60750   60780       5   60684   60741
   60777       5   60678   60741   60684       6   60678   60741   60777       5
   60672   60735   60774       5   60666   60735   60672       6   60666   60735
   60774       5   60663   60723   60771       5   60657   60723   60663       6
   60657   60723   60771       5   60648   60714   60768       5   60642   60714
   60648       6   60642   60714   60768       5   60639   60708   60759       6
   60636   60600   60639       6   60636   60702   60759       6   60633   60696
   60750       6   60630   60597   60633       6   60630   60690   60750       6
   60627   60684   60741       6   60624   60591   60627       6   60624   60678
   60741       6   60621   60672   60735       6   60618   60588   60621       6
   60618   60666   60735       6   60615   60663   60723       6   60612   60585
   60615       6   60612   60657   60723       6   60609   60648   60714       6
   60606   60582   60609       6   60606   60642   60714       6   60600   60636
   60702       6   60600   60639   60708       6   60597   60573   60600       7
   60597   60630   60690       6   60597   60633   60696       6   60591   60624
   60678       6   60591   60627   60684       6   60588   60564   60591       7
   60588   60618   60666       6   60588   60621   60672       6   60585   60612
   60657       6   60585   60615   60663       6   60582   60561   60585       7
   60582   60606   60642       6   60582   60609   60648       6   60573   60543
   60576       8   60573   60597   60630       8   60573   60597   60633       8
   60573   60600   60636       8   60573   60600   60639       8   60564   60531
   60567       8   60564   60588   60618       8   60564   60588   60621       8
   60564   60591   60624       8   60564   60591   60627       8   60561   60582
   60606       8   60561   60582   60609       8   60561   60585   60612       8
   60561   60585   60615       8   60543   60573   60597       7   60543   60573
   60600       7   60543   60576   60546       6   60531   60564   60588       7
   60531   60564   60591       7   60531   60567   60537       6   60525   60561
   60582       7   60525   60561   60585       7   60519   60525   60561       8
   60513   60507   60537       9   60513   60546   60576      10   60510   60492
   60513      10   60510   60543   60573       8   60510   60543   60576       6
   60507   60513   60546       9   60507   60537   60567      10   60504   60489
   60507      10   60504   60531   60564       8   60504   60531   60567       6
   60501   60525   60519       6   60501   60525   60561       8   60498   60519
   60525       6   60492   60510   60543       6   60492   60513   60507       9
   60492   60513   60546      12   60489   60468   60492      13   60489   60504
   60531       6   60489   60507   60513       9   60489   60507   60537      12
   60486   60468   60489      13   60486   60468   60492      13   60486   60483
   60498      12   60486   60501   60525       6   60483   60486   60501      10
   60483   60498   60519      10   60474   60495   60516       4   60468   60486
   60483      14   60468   60486   60501      15   60468   60489   60504      15
   60468   60489   60507      14   60468   60492   60510      15   60468   60492
   60513      14   60465   60441   60468      14   60465   60483   60486       9
   60465   60483   60498       9   60459   60474   60495       5   60453   60474
   60459       6   60453   60474   60495       5   60447   60465   60483       9
   60441   60465   60447      12   60441   60465   60483       9   60441   60468
   60486      13   60441   60468   60489      13   60441   60468   60492      13
   60438   60459   60474       6   60435   60426   60438       6   60435   60453
   60474       6   60432   60447   60465      10   60429   60423   60432       6
   60429   60441   60465      10   60429   60441   60468      15   60426   60435
   60453       6   60426   60438   60459       6   60423   60420   60426       7
   60423   60429   60441       6   60423   60432   60447       6   60420   60423
   60429       8   60420   60423   60432       8   60420   60426   60435       8
   60420   60426   60438       8   60411   60420   60423       7   60411   60420
   60426       7   60405   60411   60420       8   60399   60411   60405       6
   60399   60411   60420       8   60387   60405   60411       6   60384   60378
   60387       6   60384   60399   60411       6   60378   60375   60381       4
   60378   60384   60399       6   60378   60387   60405       6   60375   60378
   60384       5   60375   60378   60387       5   61242   61266   61284       4
   61233   61263   61281       4   61224   61260   61278       4   61218   61257
   61275       4   61206   61254   61272       4   61197   61251   61269       4
   61191   61242   61266       5   61185   61242   61191       6   61185   61242
   61266       5   61179   61233   61263       5   61173   61233   61179       6
   61173   61233   61263       5   61167   61224   61260       5   61161   61224
   61167       6   61161   61224   61260       5   61155   61218   61257       5
   61149   61218   61155       6   61149   61218   61257       5   61146   61206
   61254       5   61140   61206   61146       6   61140   61206   61254       5
   61131   61197   61251       5   61125   61197   61131       6   61125   61197
   61251       5   61122   61191   61242       6   61119   61083   61122       6
   61119   61185   61242       6   61116   61179   61233       6   61113   61080
   61116       6   61113   61173   61233       6   61110   61167   61224       6
   61107   61074   61110       6   61107   61161   61224       6   61104   61155
   61218       6   61101   61071   61104       6   61101   61149   61218       6
   61098   61146   61206       6   61095   61068   61098       6   61095   61140
   61206       6   61092   61131   61197       6   61089   61065   61092       6
   61089   61125   61197       6   61083   61119   61185       6   61083   61122
   61191       6   61080   61056   61083       7   61080   61113   61173       6
   61080   61116   61179       6   61074   61107   61161       6   61074   61110
   61167       6   61071   61047   61074       7   61071   61101   61149       6
   61071   61104   61155       6   61068   61095   61140       6   61068   61098
   61146       6   61065   61044   61068       7   61065   61089   61125       6
   61065   61092   61131       6   61056   61026   61059       8   61056   61080
   61113       8   61056   61080   61116       8   61056   61083   61119       8
   61056   61083   61122       8   61047   61014   61050       8   61047   61071
   61101       8   61047   61071   61104       8   61047   61074   61107       8
   61047   61074   61110       8   61044   61065   61089       8   61044   61065
   61092       8   61044   61068   61095       8   61044   61068   61098       8
   61026   61056   61080       7   61026   61056   61083       7   61026   61059
   61029       6   61014   61047   61071       7   61014   61047   61074       7
   61014   61050   61020       6   61008   61044   61065       7   61008   61044
   61068       7   61002   61008   61044       8   60996   60990   61020       9
   60996   61029   61059      10   60993   60975   60996      10   60993   61026
   61056       8   60993   61026   61059       6   60990   60996   61029       9
   60990   61020   61050      10   60987   60972   60990      10   60987   61014
   61047       8   60987   61014   61050       6   60984   61008   61002       6
   60984   61008   61044       8   60981   61002   61008       6   60975   60993
   61026       6   60975   60996   60990       9   60975   60996   61029      12
   60972   60951   60975      13   60972   60987   61014       6   60972   60990
   60996       9   60972   60990   61020      12   60969   60951   60972      13
   60969   60951   60975      13   60969   60966   60981      12   60969   60984
   61008       6   60966   60969   60984      10   60966   60981   61002      10
   60957   60978   60999       4   60951   60969   60966      14   60951   60969
   60984      15   60951   60972   60987      15   60951   60972   60990      14
   60951   60975   60993      15   60951   60975   60996      14   60948   60924
   60951      14   60948   60966   60969       9   60948   60966   60981       9
   60942   60957   60978       5   60936   60957   60942       6   60936   60957
   60978       5   60930   60948   60966       9   60924   60948   60930      12
   60924   60948   60966       9   60924   60951   60969      13   60924   60951
   60972      13   60924   60951   60975      13   60921   60942   60957       6
   60918   60909   60921       6   60918   60936   60957       6   60915   60930
   60948      10   60912   60906   60915       6   60912   60924   60948      10
   60912   60924   60951      15   60909   60918   60936       6   60909   60921
   60942       6   60906   60903   60909       7   60906   60912   60924       6
   60906   60915   60930       6   60903   60906   60912       8   60903   60906
   60915       8   60903   60909   60918       8   60903   60909   60921       8
   60894   60903   60906       7   60894   60903   60909       7   60888   60894
   60903       8   60882   60894   60888       6   60882   60894   60903       8
   60870   60888   60894       6   60867   60861   60870       6   60867   60882
   60894       6   60861   60858   60864       4   60861   60867   60882       6
   60861   60870   60888       6   60858   60861   60867       5   60858   60861
   60870       5   61725   61749   61767       4   61716   61746   61764       4
   61707   61743   61761       4   61701   61740   61758       4   61689   61737
   61755       4   61680   61734   61752       4   61674   61725   61749       5
   61668   61725   61674       6   61668   61725   61749       5   61662   61716
   61746       5   61656   61716   61662       6   61656   61716   61746       5
   61650   61707   61743       5   61644   61707   61650       6   61644   61707
   61743       5   61638   61701   61740       5   61632   61701   61638       6
   61632   61701   61740       5   61629   61689   61737       5   61623   61689
   61629       6   61623   61689   61737       5   61614   61680   61734       5
   61608   61680   61614       6   61608   61680   61734       5   61605   61674
   61725       6   61602   61566   61605       6   61602   61668   61725       6
   61599   61662   61716       6   61596   61563   61599       6   61596   61656
   61716       6   61593   61650   61707       6   61590   61557   61593       6
   61590   61644   61707       6   61587   61638   61701       6   61584   61554
   61587       6   61584   61632   61701       6   61581   61629   61689       6
   61578   61551   61581       6   61578   61623   61689       6   61575   61614
   61680       6   61572   61548   61575       6   61572   61608   61680       6
   61566   61602   61668       6   61566   61605   61674       6   61563   61539
   61566       7   61563   61596   61656       6   61563   61599   61662       6
   61557   61590   61644       6   61557   61593   61650       6   61554   61530
   61557       7   61554   61584   61632       6   61554   61587   61638       6
   61551   61578   61623       6   61551   61581   61629       6   61548   61527
   61551       7   61548   61572   61608       6   61548   61575   61614       6
   61539   61509   61542       8   61539   61563   61596       8   61539   61563
   61599       8   61539   61566   61602       8   61539   61566   61605       8
   61530   61497   61533       8   61530   61554   61584       8   61530   61554
   61587       8   61530   61557   61590       8   61530   61557   61593       8
   61527   61548   61572       8   61527   61548   61575       8   61527   61551
   61578       8   61527   61551   61581       8   61509   61539   61563       7
   61509   61539   61566       7   61509   61542   61512       6   61497   61530
   61554       7   61497   61530   61557       7   61497   61533   61503       6
   61491   61527   61548       7   61491   61527   61551       7   61485   61491
   61527       8   61479   61473   61503       9   61479   61512   61542      10
   61476   61458   61479      10   61476   61509   61539       8   61476   61509
   61542       6   61473   61479   61512       9   61473   61503   61533      10
   61470   61455   61473      10   61470   61497   61530       8   61470   61497
   61533       6   61467   61491   61485       6   61467   61491   61527       8
   61464   61485   61491       6   61458   61476   61509       6   61458   61479
   61473       9   61458   61479   61512      12   61455   61434   61458      13
   61455   61470   61497       6   61455   61473   61479       9   61455   61473
   61503      12   61452   61434   61455      13   61452   61434   61458      13
   61452   61449   61464      12   61452   61467   61491       6   61449   61452
   61467      10   61449   61464   61485      10   61440   61461   61482       4
   61434   61452   61449      14   61434   61452   61467      15   61434   61455
   61470      15   61434   61455   61473      14   61434   61458   61476      15
   61434   61458   61479      14   61431   61407   61434      14   61431   61449
   61452       9   61431   61449   61464       9   61425   61440   61461       5
   61419   61440   61425       6   61419   61440   61461       5   61413   61431
   61449       9   61407   61431   61413      12   61407   61431   61449       9
   61407   61434   61452      13   61407   61434   61455      13   61407   61434
   61458      13   61404   61425   61440       6   61401   61392   61404       6
   61401   61419   61440       6   61398   61413   61431      10   61395   61389
   61398       6   61395   61407   61431      10   61395   61407   61434      15
   61392   61401   61419       6   61392   61404   61425       6   61389   61386
   61392       7   61389   61395   61407       6   61389   61398   61413       6
   61386   61389   61395       8   61386   61389   61398       8   61386   61392
   61401       8   61386   61392   61404       8   61377   61386   61389       7
   61377   61386   61392       7   61371   61377   61386       8   61365   61377
   61371       6   61365   61377   61386       8   61353   61371   61377       6
   61350   61344   61353       6   61350   61365   61377       6   61344   61341
   61347       4   61344   61350   61365       6   61344   61353   61371       6
   61341   61344   61350       5   61341   61344   61353       5   62208   62232
   62250       4   62199   62229   62247       4   62190   62226   62244       4
   62184   62223   62241       4   62172   62220   62238       4   62163   62217
   62235       4   62157   62208   62232       5   62151   62208   62157       6
   62151   62208   62232       5   62145   62199   62229       5   62139   62199
   62145       6   62139   62199   62229       5   62133   62190   62226       5
   62127   62190   62133       6   62127   62190   62226       5   62121   62184
   62223       5   62115   62184   62121       6   62115   62184   62223       5
   62112   62172   62220       5   62106   62172   62112       6   62106   62172
   62220       5   62097   62163   62217       5   62091   62163   62097       6
   62091   62163   62217       5   62088   62157   62208       6   62085   62049
   62088       6   62085   62151   62208       6   62082   62145   62199       6
   62079   62046   62082       6   62079   62139   62199       6   62076   62133
   62190       6   62073   62040   62076       6   62073   62127   62190       6
   62070   62121   62184       6   62067   62037   62070       6   62067   62115
   62184       6   62064   62112   62172       6   62061   62034   62064       6
   62061   62106   62172       6   62058   62097   62163       6   62055   62031
   62058       6   62055   62091   62163       6   62049   62085   62151       6
   62049   62088   62157       6   62046   62022   62049       7   62046   62079
   62139       6   62046   62082   62145       6   62040   62073   62127       6
   62040   62076   62133       6   62037   62013   62040       7   62037   62067
   62115       6   62037   62070   62121       6   62034   62061   62106       6
   62034   62064   62112       6   62031   62010   62034       7   62031   62055
   62091       6   62031   62058   62097       6   62022   61992   62025       8
   62022   62046   62079       8   62022   62046   62082       8   62022   62049
   62085       8   62022   62049   62088       8   62013   61980   62016       8
   62013   62037   62067       8   62013   62037   62070       8   62013   62040
   62073       8   62013   62040   62076       8   62010   62031   62055       8
   62010   62031   62058       8   62010   62034   62061       8   62010   62034
   62064       8   61992   62022   62046       7   61992   62022   62049       7
   61992   62025   61995       6   61980   62013   62037       7   61980   62013
   62040       7   61980   62016   61986       6   61974   62010   62031       7
   61974   62010   62034       7   61968   61974   62010       8   61962   61956
   61986       9   61962   61995   62025      10   61959   61941   61962      10
   61959   61992   62022       8   61959   61992   62025       6   61956   61962
   61995       9   61956   61986   62016      10   61953   61938   61956      10
   61953   61980   62013       8   61953   61980   62016       6   61950   61974
   61968       6   61950   61974   62010       8   61947   61968   61974       6
   61941   61959   61992       6   61941   61962   61956       9   61941   61962
   61995      12   61938   61917   61941      13   61938   61953   61980       6
   61938   61956   61962       9   61938   61956   61986      12   61935   61917
   61938      13   61935   61917   61941      13   61935   61932   61947      12
   61935   61950   61974       6   61932   61935   61950      10   61932   61947
   61968      10   61923   61944   61965       4   61917   61935   61932      14
   61917   61935   61950      15   61917   61938   61953      15   61917   61938
   61956      14   61917   61941   61959      15   61917   61941   61962      14
   61914   61890   61917      14   61914   61932   61935       9   61914   61932
   61947       9   61908   61923   61944       5   61902   61923   61908       6
   61902   61923   61944       5   61896   61914   61932       9   61890   61914
   61896      12   61890   61914   61932       9   61890   61917   61935      13
   61890   61917   61938      13   61890   61917   61941      13   61887   61908
   61923       6   61884   61875   61887       6   61884   61902   61923       6
   61881   61896   61914      10   61878   61872   61881       6   61878   61890
   61914      10   61878   61890   61917      15   61875   61884   61902       6
   61875   61887   61908       6   61872   61869   61875       7   61872   61878
   61890       6   61872   61881   61896       6   61869   61872   61878       8
   61869   61872   61881       8   61869   61875   61884       8   61869   61875
   61887       8   61860   61869   61872       7   61860   61869   61875       7
   61854   61860   61869       8   61848   61860   61854       6   61848   61860
   61869       8   61836   61854   61860       6   61833   61827   61836       6
   61833   61848   61860       6   61827   61824   61830       4   61827   61833
   61848       6   61827   61836   61854       6   61824   61827   61833       5
   61824   61827   61836       5   62691   62715   62733       4   62682   62712
   62730       4   62673   62709   62727       4   62667   62706   62724       4
   62655   62703   62721       4   62646   62700   62718       4   62640   62691
   62715       5   62634   62691   62640       6   62634   62691   62715       5
   62628   62682   62712       5   62622   62682   62628       6   62622   62682
   62712       5   62616   62673   62709       5   62610   62673   62616       6
   62610   62673   62709       5   62604   62667   62706       5   62598   62667
   62604       6   62598   62667   62706       5   62595   62655   62703       5
   62589   62655   62595       6   62589   62655   62703       5   62580   62646
   62700       5   62574   62646   62580       6   62574   62646   62700       5
   62571   62640   62691       6   62568   62532   62571       6   62568   62634
   62691       6   62565   62628   62682       6   62562   62529   62565       6
   62562   62622   62682       6   62559   62616   62673       6   62556   62523
   62559       6   62556   62610   62673       6   62553   62604   62667       6
   62550   62520   62553       6   62550   62598   62667       6   62547   62595
   62655       6   62544   62517   62547       6   62544   62589   62655       6
   62541   62580   62646       6   62538   62514   62541       6   62538   62574
   62646       6   62532   62568   62634       6   62532   62571   62640       6
   62529   62505   62532       7   62529   62562   62622       6   62529   62565
   62628       6   62523   62556   62610       6   62523   62559   62616       6
   62520   62496   62523       7   62520   62550   62598       6   62520   62553
   62604       6   62517   62544   62589       6   62517   62547   62595       6
   62514   62493   62517       7   62514   62538   62574       6   62514   62541
   62580       6   62505   62475   62508       8   62505   62529   62562       8
   62505   62529   62565       8   62505   62532   62568       8   62505   62532
   62571       8   62496   62463   62499       8   62496   62520   62550       8
   62496   62520   62553       8   62496   62523   62556       8   62496   62523
   62559       8   62493   62514   62538       8   62493   62514   62541       8
   62493   62517   62544       8   62493   62517   62547       8   62475   62505
   62529       7   62475   62505   62532       7   62475   62508   62478       6
   62463   62496   62520       7   62463   62496   62523       7   62463   62499
   62469       6   62457   62493   62514       7   62457   62493   62517       7
   62451   62457   62493       8   62445   62439   62469       9   62445   62478
   62508      10   62442   62424   62445      10   62442   62475   62505       8
   62442   62475   62508       6   62439   62445   62478       9   62439   62469
   62499      10   62436   62421   62439      10   62436   62463   62496       8
   62436   62463   62499       6   62433   62457   62451       6   62433   62457
   62493       8   62430   62451   62457       6   62424   62442   62475       6
   62424   62445   62439       9   62424   62445   62478      12   62421   62400
   62424      13   62421   62436   62463       6   62421   62439   62445       9
   62421   62439   62469      12   62418   62400   62421      13   62418   62400
   62424      13   62418   62415   62430      12   62418   62433   62457       6
   62415   62418   62433      10   62415   62430   62451      10   62406   62427
   62448       4   62400   62418   62415      14   62400   62418   62433      15
   62400   62421   62436      15   62400   62421   62439      14   62400   62424
   62442      15   62400   62424   62445      14   62397   62373   62400      14
   62397   62415   62418       9   62397   62415   62430       9   62391   62406
   62427       5   62385   62406   62391       6   62385   62406   62427       5
   62379   62397   62415       9   62373   62397   62379      12   62373   62397
   62415       9   62373   62400   62418      13   62373   62400   62421      13
   62373   62400   62424      13   62370   62391   62406       6   62367   62358
   62370       6   62367   62385   62406       6   62364   62379   62397      10
   62361   62355   62364       6   62361   62373   62397      10   62361   62373
   62400      15   62358   62367   62385       6   62358   62370   62391       6
   62355   62352   62358       7   62355   62361   62373       6   62355   62364
   62379       6   62352   62355   62361       8   62352   62355   62364       8
   62352   62358   62367       8   62352   62358   62370       8   62343   62352
   62355       7   62343   62352   62358       7   62337   62343   62352       8
   62331   62343   62337       6   62331   62343   62352       8   62319   62337
   62343       6   62316   62310   62319       6   62316   62331   62343       6
   62310   62307   62313       4   62310   62316   62331       6   62310   62319
   62337       6   62307   62310   62316       5   62307   62310   62319       5
   63174   63198   63216       4   63165   63195   63213       4   63156   63192
   63210       4   63150   63189   63207       4   63138   63186   63204       4
   63129   63183   63201       4   63123   63174   63198       5   63117   63174
   63123       6   63117   63174   63198       5   63111   63165   63195       5
   63105   63165   63111       6   63105   63165   63195       5   63099   63156
   63192       5   63093   63156   63099       6   63093   63156   63192       5
   63087   63150   63189       5   63081   63150   63087       6   63081   63150
   63189       5   63078   63138   63186       5   63072   63138   63078       6
   63072   63138   63186       5   63063   63129   63183       5   63057   63129
   63063       6   63057   63129   63183       5   63054   63123   63174       6
   63051   63015   63054       6   63051   63117   63174       6   63048   63111
   63165       6   63045   63012   63048       6   63045   63105   63165       6
   63042   63099   63156       6   63039   63006   63042       6   63039   63093
   63156       6   63036   63087   63150       6   63033   63003   63036       6
   63033   63081   63150       6   63030   63078   63138       6   63027   63000
   63030       6   63027   63072   63138       6   63024   63063   63129       6
   63021   62997   63024       6   63021   63057   63129       6   63015   63051
   63117       6   63015   63054   63123       6   63012   62988   63015       7
   63012   63045   63105       6   63012   63048   63111       6   63006   63039
   63093       6   63006   63042   63099       6   63003   62979   63006       7
   63003   63033   63081       6   63003   63036   63087       6   63000   63027
   63072       6   63000   63030   63078       6   62997   62976   63000       7
   62997   63021   63057       6   62997   63024   63063       6   62988   62958
   62991       8   62988   63012   63045       8   62988   63012   63048       8
   62988   63015   63051       8   62988   63015   63054       8   62979   62946
   62982       8   62979   63003   63033       8   62979   63003   63036       8
   62979   63006   63039       8   62979   63006   63042       8   62976   62997
   63021       8   62976   62997   63024       8   62976   63000   63027       8
   62976   63000   63030       8   62958   62988   63012       7   62958   62988
   63015       7   62958   62991   62961       6   62946   62979   63003       7
   62946   62979   63006       7   62946   62982   62952       6   62940   62976
   62997       7   62940   62976   63000       7   62934   62940   62976       8
   62928   62922   62952       9   62928   62961   62991      10   62925   62907
   62928      10   62925   62958   62988       8   62925   62958   62991       6
   62922   62928   62961       9   62922   62952   62982      10   62919   62904
   62922      10   62919   62946   62979       8   62919   62946   62982       6
   62916   62940   62934       6   62916   62940   62976       8   62913   62934
   62940       6   62907   62925   62958       6   62907   62928   62922       9
   62907   62928   62961      12   62904   62883   62907      13   62904   62919
   62946       6   62904   62922   62928       9   62904   62922   62952      12
   62901   62883   62904      13   62901   62883   62907      13   62901   62898
   62913      12   62901   62916   62940       6   62898   62901   62916      10
   62898   62913   62934      10   62889   62910   62931       4   62883   62901
   62898      14   62883   62901   62916      15   62883   62904   62919      15
   62883   62904   62922      14   62883   62907   62925      15   62883   62907
   62928      14   62880   62856   62883      14   62880   62898   62901       9
   62880   62898   62913       9   62874   62889   62910       5   62868   62889
   62874       6   62868   62889   62910       5   62862   62880   62898       9
   62856   62880   62862      12   62856   62880   62898       9   62856   62883
   62901      13   62856   62883   62904      13   62856   62883   62907      13
   62853   62874   62889       6   62850   62841   62853       6   62850   62868
   62889       6   62847   62862   62880      10   62844   62838   62847       6
   62844   62856   62880      10   62844   62856   62883      15   62841   62850
   62868       6   62841   62853   62874       6   62838   62835   62841       7
   62838   62844   62856       6   62838   62847   62862       6   62835   62838
   62844       8   62835   62838   62847       8   62835   62841   62850       8
   62835   62841   62853       8   62826   62835   62838       7   62826   62835
   62841       7   62820   62826   62835       8   62814   62826   62820       6
   62814   62826   62835       8   62802   62820   62826       6   62799   62793
   62802       6   62799   62814   62826       6   62793   62790   62796       4
   62793   62799   62814       6   62793   62802   62820       6   62790   62793
   62799       5   62790   62793   62802       5   63657   63681   63699       4
   63648   63678   63696       4   63639   63675   63693       4   63633   63672
   63690       4   63621   63669   63687       4   63612   63666   63684       4
   63606   63657   63681       5   63600   63657   63606       6   63600   63657
   63681       5   63594   63648   63678       5   63588   63648   63594       6
   63588   63648   63678       5   63582   63639   63675       5   63576   63639
   63582       6   63576   63639   63675       5   63570   63633   63672       5
   63564   63633   63570       6   63564   63633   63672       5   63561   63621
   63669       5   63555   63621   63561       6   63555   63621   63669       5
   63546   63612   63666       5   63540   63612   63546       6   63540   63612
   63666       5   63537   63606   63657       6   63534   63498   63537       6
   63534   63600   63657       6   63531   63594   63648       6   63528   63495
   63531       6   63528   63588   63648       6   63525   63582   63639       6
   63522   63489   63525       6   63522   63576   63639       6   63519   63570
   63633       6   63516   63486   63519       6   63516   63564   63633       6
   63513   63561   63621       6   63510   63483   63513       6   63510   63555
   63621       6   63507   63546   63612       6   63504   63480   63507       6
   63504   63540   63612       6   63498   63534   63600       6   63498   63537
   63606       6   63495   63471   63498       7   63495   63528   63588       6
   63495   63531   63594       6   63489   63522   63576       6   63489   63525
   63582       6   63486   63462   63489       7   63486   63516   63564       6
   63486   63519   63570       6   63483   63510   63555       6   63483   63513
   63561       6   63480   63459   63483       7   63480   63504   63540       6
   63480   63507   63546       6   63471   63441   63474       8   63471   63495
   63528       8   63471   63495   63531       8   63471   63498   63534       8
   63471   63498   63537       8   63462   63429   63465       8   63462   63486
   63516       8   63462   63486   63519       8   63462   63489   63522       8
   63462   63489   63525       8   63459   63480   63504       8   63459   63480
   63507       8   63459   63483   63510       8   63459   63483   63513       8
   63441   63471   63495       7   63441   63471   63498       7   63441   63474
   63444       6   63429   63462   63486       7   63429   63462   63489       7
   63429   63465   63435       6   63423   63459   63480       7   63423   63459
   63483       7   63417   63423   63459       8   63411   63405   63435       9
   63411   63444   63474      10   63408   63390   63411      10   63408   63441
   63471       8   63408   63441   63474       6   63405   63411   63444       9
   63405   63435   63465      10   63402   63387   63405      10   63402   63429
   63462       8   63402   63429   63465       6   63399   63423   63417       6
   63399   63423   63459       8   63396   63417   63423       6   63390   63408
   63441       6   63390   63411   63405       9   63390   63411   63444      12
   63387   63366   63390      13   63387   63402   63429       6   63387   63405
   63411       9   63387   63405   63435      12   63384   63366   63387      13
   63384   63366   63390      13   63384   63381   63396      12   63384   63399
   63423       6   63381   63384   63399      10   63381   63396   63417      10
   63372   63393   63414       4   63366   63384   63381      14   63366   63384
   63399      15   63366   63387   63402      15   63366   63387   63405      14
   63366   63390   63408      15   63366   63390   63411      14   63363   63339
   63366      14   63363   63381   63384       9   63363   63381   63396       9
   63357   63372   63393       5   63351   63372   63357       6   63351   63372
   63393       5   63345   63363   63381       9   63339   63363   63345      12
   63339   63363   63381       9   63339   63366   63384      13   63339   63366
   63387      13   63339   63366   63390      13   63336   63357   63372       6
   63333   63324   63336       6   63333   63351   63372       6   63330   63345
   63363      10   63327   63321   63330       6   63327   63339   63363      10
   63327   63339   63366      15   63324   63333   63351       6   63324   63336
   63357       6   63321   63318   63324       7   63321   63327   63339       6
   63321   63330   63345       6   63318   63321   63327       8   63318   63321
   63330       8   63318   63324   63333       8   63318   63324   63336       8
   63309   63318   63321       7   63309   63318   63324       7   63303   63309
   63318       8   63297   63309   63303       6   63297   63309   63318       8
   63285   63303   63309       6   63282   63276   63285       6   63282   63297
   63309       6   63276   63273   63279       4   63276   63282   63297       6
   63276   63285   63303       6   63273   63276   63282       5   63273   63276
   63285       5   64140   64164   64182       4   64131   64161   64179       4
   64122   64158   64176       4   64116   64155   64173       4   64104   64152
   64170       4   64095   64149   64167       4   64089   64140   64164       5
   64083   64140   64089       6   64083   64140   64164       5   64077   64131
   64161       5   64071   64131   64077       6   64071   64131   64161       5
   64065   64122   64158       5   64059   64122   64065       6   64059   64122
   64158       5   64053   64116   64155       5   64047   64116   64053       6
   64047   64116   64155       5   64044   64104   64152       5   64038   64104
   64044       6   64038   64104   64152       5   64029   64095   64149       5
   64023   64095   64029       6   64023   64095   64149       5   64020   64089
   64140       6   64017   63981   64020       6   64017   64083   64140       6
   64014   64077   64131       6   64011   63978   64014       6   64011   64071
   64131       6   64008   64065   64122       6   64005   63972   64008       6
   64005   64059   64122       6   64002   64053   64116       6   63999   63969
   64002       6   63999   64047   64116       6   63996   64044   64104       6
   63993   63966   63996       6   63993   64038   64104       6   63990   64029
   64095       6   63987   63963   63990       6   63987   64023   64095       6
   63981   64017   64083       6   63981   64020   64089       6   63978   63954
   63981       7   63978   64011   64071       6   63978   64014   64077       6
   63972   64005   64059       6   63972   64008   64065       6   63969   63945
   63972       7   63969   63999   64047       6   63969   64002   64053       6
   63966   63993   64038       6   63966   63996   64044       6   63963   63942
   63966       7   63963   63987   64023       6   63963   63990   64029       6
   63954   63924   63957       8   63954   63978   64011       8   63954   63978
   64014       8   63954   63981   64017       8   63954   63981   64020       8
   63945   63912   63948       8   63945   63969   63999       8   63945   63969
   64002       8   63945   63972   64005       8   63945   63972   64008       8
   63942   63963   63987       8   63942   63963   63990       8   63942   63966
   63993       8   63942   63966   63996       8   63924   63954   63978       7
   63924   63954   63981       7   63924   63957   63927       6   63912   63945
   63969       7   63912   63945   63972       7   63912   63948   63918       6
   63906   63942   63963       7   63906   63942   63966       7   63900   63906
   63942       8   63894   63888   63918       9   63894   63927   63957      10
   63891   63873   63894      10   63891   63924   63954       8   63891   63924
   63957       6   63888   63894   63927       9   63888   63918   63948      10
   63885   63870   63888      10   63885   63912   63945       8   63885   63912
   63948       6   63882   63906   63900       6   63882   63906   63942       8
   63879   63900   63906       6   63873   63891   63924       6   63873   63894
   63888       9   63873   63894   63927      12   63870   63849   63873      13
   63870   63885   63912       6   63870   63888   63894       9   63870   63888
   63918      12   63867   63849   63870      13   63867   63849   63873      13
   63867   63864   63879      12   63867   63882   63906       6   63864   63867
   63882      10   63864   63879   63900      10   63855   63876   63897       4
   63849   63867   63864      14   63849   63867   63882      15   63849   63870
   63885      15   63849   63870   63888      14   63849   63873   63891      15
   63849   63873   63894      14   63846   63822   63849      14   63846   63864
   63867       9   63846   63864   63879       9   63840   63855   63876       5
   63834   63855   63840       6   63834   63855   63876       5   63828   63846
   63864       9   63822   63846   63828      12   63822   63846   63864       9
   63822   63849   63867      13   63822   63849   63870      13   63822   63849
   63873      13   63819   63840   63855       6   63816   63807   63819       6
   63816   63834   63855       6   63813   63828   63846      10   63810   63804
   63813       6   63810   63822   63846      10   63810   63822   63849      15
   63807   63816   63834       6   63807   63819   63840       6   63804   63801
   63807       7   63804   63810   63822       6   63804   63813   63828       6
   63801   63804   63810       8   63801   63804   63813       8   63801   63807
   63816       8   63801   63807   63819       8   63792   63801   63804       7
   63792   63801   63807       7   63786   63792   63801       8   63780   63792
   63786       6   63780   63792   63801       8   63768   63786   63792       6
   63765   63759   63768       6   63765   63780   63792       6   63759   63756
   63762       4   63759   63765   63780       6   63759   63768   63786       6
   63756   63759   63765       5   63756   63759   63768       5   64623   64647
   64665       4   64614   64644   64662       4   64605   64641   64659       4
   64599   64638   64656       4   64587   64635   64653       4   64578   64632
   64650       4   64572   64623   64647       5   64566   64623   64572       6
   64566   64623   64647       5   64560   64614   64644       5   64554   64614
   64560       6   64554   64614   64644       5   64548   64605   64641       5
   64542   64605   64548       6   64542   64605   64641       5   64536   64599
   64638       5   64530   64599   64536       6   64530   64599   64638       5
   64527   64587   64635       5   64521   64587   64527       6   64521   64587
   64635       5   64512   64578   64632       5   64506   64578   64512       6
   64506   64578   64632       5   64503   64572   64623       6   64500   64464
   64503       6   64500   64566   64623       6   64497   64560   64614       6
   64494   64461   64497       6   64494   64554   64614       6   64491   64548
   64605       6   64488   64455   64491       6   64488   64542   64605       6
   64485   64536   64599       6   64482   64452   64485       6   64482   64530
   64599       6   64479   64527   64587       6   64476   64449   64479       6
   64476   64521   64587       6   64473   64512   64578       6   64470   64446
   64473       6   64470   64506   64578       6   64464   64500   64566       6
   64464   64503   64572       6   64461   64437   64464       7   64461   64494
   64554       6   64461   64497   64560       6   64455   64488   64542       6
   64455   64491   64548       6   64452   64428   64455       7   64452   64482
   64530       6   64452   64485   64536       6   64449   64476   64521       6
   64449   64479   64527       6   64446   64425   64449       7   64446   64470
   64506       6   64446   64473   64512       6   64437   64407   64440       8
   64437   64461   64494       8   64437   64461   64497       8   64437   64464
   64500       8   64437   64464   64503       8   64428   64395   64431       8
   64428   64452   64482       8   64428   64452   64485       8   64428   64455
   64488       8   64428   64455   64491       8   64425   64446   64470       8
   64425   64446   64473       8   64425   64449   64476       8   64425   64449
   64479       8   64407   64437   64461       7   64407   64437   64464       7
   64407   64440   64410       6   64395   64428   64452       7   64395   64428
   64455       7   64395   64431   64401       6   64389   64425   64446       7
   64389   64425   64449       7   64383   64389   64425       8   64377   64371
   64401       9   64377   64410   64440      10   64374   64356   64377      10
   64374   64407   64437       8   64374   64407   64440       6   64371   64377
   64410       9   64371   64401   64431      10   64368   64353   64371      10
   64368   64395   64428       8   64368   64395   64431       6   64365   64389
   64383       6   64365   64389   64425       8   64362   64383   64389       6
   64356   64374   64407       6   64356   64377   64371       9   64356   64377
   64410      12   64353   64332   64356      13   64353   64368   64395       6
   64353   64371   64377       9   64353   64371   64401      12   64350   64332
   64353      13   64350   64332   64356      13   64350   64347   64362      12
   64350   64365   64389       6   64347   64350   64365      10   64347   64362
   64383      10   64338   64359   64380       4   64332   64350   64347      14
   64332   64350   64365      15   64332   64353   64368      15   64332   64353
   64371      14   64332   64356   64374      15   64332   64356   64377      14
   64329   64305   64332      14   64329   64347   64350       9   64329   64347
   64362       9   64323   64338   64359       5   64317   64338   64323       6
   64317   64338   64359       5   64311   64329   64347       9   64305   64329
   64311      12   64305   64329   64347       9   64305   64332   64350      13
   64305   64332   64353      13   64305   64332   64356      13   64302   64323
   64338       6   64299   64290   64302       6   64299   64317   64338       6
   64296   64311   64329      10   64293   64287   64296       6   64293   64305
   64329      10   64293   64305   64332      15   64290   64299   64317       6
   64290   64302   64323       6   64287   64284   64290       7   64287   64293
   64305       6   64287   64296   64311       6   64284   64287   64293       8
   64284   64287   64296       8   64284   64290   64299       8   64284   64290
   64302       8   64275   64284   64287       7   64275   64284   64290       7
   64269   64275   64284       8   64263   64275   64269       6   64263   64275
   64284       8   64251   64269   64275       6   64248   64242   64251       6
   64248   64263   64275       6   64242   64239   64245       4   64242   64248
   64263       6   64242   64251   64269       6   64239   64242   64248       5
   64239   64242   64251       5   65106   65130   65148       4   65097   65127
   65145       4   65088   65124   65142       4   65082   65121   65139       4
   65070   65118   65136       4   65061   65115   65133       4   65055   65106
   65130       5   65049   65106   65055       6   65049   65106   65130       5
   65043   65097   65127       5   65037   65097   65043       6   65037   65097
   65127       5   65031   65088   65124       5   65025   65088   65031       6
   65025   65088   65124       5   65019   65082   65121       5   65013   65082
   65019       6   65013   65082   65121       5   65010   65070   65118       5
   65004   65070   65010       6   65004   65070   65118       5   64995   65061
   65115       5   64989   65061   64995       6   64989   65061   65115       5
   64986   65055   65106       6   64983   64947   64986       6   64983   65049
   65106       6   64980   65043   65097       6   64977   64944   64980       6
   64977   65037   65097       6   64974   65031   65088       6   64971   64938
   64974       6   64971   65025   65088       6   64968   65019   65082       6
   64965   64935   64968       6   64965   65013   65082       6   64962   65010
   65070       6   64959   64932   64962       6   64959   65004   65070       6
   64956   64995   65061       6   64953   64929   64956       6   64953   64989
   65061       6   64947   64983   65049       6   64947   64986   65055       6
   64944   64920   64947       7   64944   64977   65037       6   64944   64980
   65043       6   64938   64971   65025       6   64938   64974   65031       6
   64935   64911   64938       7   64935   64965   65013       6   64935   64968
   65019       6   64932   64959   65004       6   64932   64962   65010       6
   64929   64908   64932       7   64929   64953   64989       6   64929   64956
   64995       6   64920   64890   64923       8   64920   64944   64977       8
   64920   64944   64980       8   64920   64947   64983       8   64920   64947
   64986       8   64911   64878   64914       8   64911   64935   64965       8
   64911   64935   64968       8   64911   64938   64971       8   64911   64938
   64974       8   64908   64929   64953       8   64908   64929   64956       8
   64908   64932   64959       8   64908   64932   64962       8   64890   64920
   64944       7   64890   64920   64947       7   64890   64923   64893       6
   64878   64911   64935       7   64878   64911   64938       7   64878   64914
   64884       6   64872   64908   64929       7   64872   64908   64932       7
   64866   64872   64908       8   64860   64854   64884       9   64860   64893
   64923      10   64857   64839   64860      10   64857   64890   64920       8
   64857   64890   64923       6   64854   64860   64893       9   64854   64884
   64914      10   64851   64836   64854      10   64851   64878   64911       8
   64851   64878   64914       6   64848   64872   64866       6   64848   64872
   64908       8   64845   64866   64872       6   64839   64857   64890       6
   64839   64860   64854       9   64839   64860   64893      12   64836   64815
   64839      13   64836   64851   64878       6   64836   64854   64860       9
   64836   64854   64884      12   64833   64815   64836      13   64833   64815
   64839      13   64833   64830   64845      12   64833   64848   64872       6
   64830   64833   64848      10   64830   64845   64866      10   64821   64842
   64863       4   64815   64833   64830      14   64815   64833   64848      15
   64815   64836   64851      15   64815   64836   64854      14   64815   64839
   64857      15   64815   64839   64860      14   64812   64788   64815      14
   64812   64830   64833       9   64812   64830   64845       9   64806   64821
   64842       5   64800   64821   64806       6   64800   64821   64842       5
   64794   64812   64830       9   64788   64812   64794      12   64788   64812
   64830       9   64788   64815   64833      13   64788   64815   64836      13
   64788   64815   64839      13   64785   64806   64821       6   64782   64773
   64785       6   64782   64800   64821       6   64779   64794   64812      10
   64776   64770   64779       6   64776   64788   64812      10   64776   64788
   64815      15   64773   64782   64800       6   64773   64785   64806       6
   64770   64767   64773       7   64770   64776   64788       6   64770   64779
   64794       6   64767   64770   64776       8   64767   64770   64779       8
   64767   64773   64782       8   64767   64773   64785       8   64758   64767
   64770       7   64758   64767   64773       7   64752   64758   64767       8
   64746   64758   64752       6   64746   64758   64767       8   64734   64752
   64758       6   64731   64725   64734       6   64731   64746   64758       6
   64725   64722   64728       4   64725   64731   64746       6   64725   64734
   64752       6   64722   64725   64731       5   64722   64725   64734       5
   65589   65613   65631       4   65580   65610   65628       4   65571   65607
   65625       4   65565   65604   65622       4   65553   65601   65619       4
   65544   65598   65616       4   65538   65589   65613       5   65532   65589
   65538       6   65532   65589   65613       5   65526   65580   65610       5
   65520   65580   65526       6   65520   65580   65610       5   65514   65571
   65607       5   65508   65571   65514       6   65508   65571   65607       5
   65502   65565   65604       5   65496   65565   65502       6   65496   65565
   65604       5   65493   65553   65601       5   65487   65553   65493       6
   65487   65553   65601       5   65478   65544   65598       5   65472   65544
   65478       6   65472   65544   65598       5   65469   65538   65589       6
   65466   65430   65469       6   65466   65532   65589       6   65463   65526
   65580       6   65460   65427   65463       6   65460   65520   65580       6
   65457   65514   65571       6   65454   65421   65457       6   65454   65508
   65571       6   65451   65502   65565       6   65448   65418   65451       6
   65448   65496   65565       6   65445   65493   65553       6   65442   65415
   65445       6   65442   65487   65553       6   65439   65478   65544       6
   65436   65412   65439       6   65436   65472   65544       6   65430   65466
   65532       6   65430   65469   65538       6   65427   65403   65430       7
   65427   65460   65520       6   65427   65463   65526       6   65421   65454
   65508       6   65421   65457   65514       6   65418   65394   65421       7
   65418   65448   65496       6   65418   65451   65502       6   65415   65442
   65487       6   65415   65445   65493       6   65412   65391   65415       7
   65412   65436   65472       6   65412   65439   65478       6   65403   65373
   65406       8   65403   65427   65460       8   65403   65427   65463       8
   65403   65430   65466       8   65403   65430   65469       8   65394   65361
   65397       8   65394   65418   65448       8   65394   65418   65451       8
   65394   65421   65454       8   65394   65421   65457       8   65391   65412
   65436       8   65391   65412   65439       8   65391   65415   65442       8
   65391   65415   65445       8   65373   65403   65427       7   65373   65403
   65430       7   65373   65406   65376       6   65361   65394   65418       7
   65361   65394   65421       7   65361   65397   65367       6   65355   65391
   65412       7   65355   65391   65415       7   65349   65355   65391       8
   65343   65337   65367       9   65343   65376   65406      10   65340   65322
   65343      10   65340   65373   65403       8   65340   65373   65406       6
   65337   65343   65376       9   65337   65367   65397      10   65334   65319
   65337      10   65334   65361   65394       8   65334   65361   65397       6
   65331   65355   65349       6   65331   65355   65391       8   65328   65349
   65355       6   65322   65340   65373       6   65322   65343   65337       9
   65322   65343   65376      12   65319   65298   65322      13   65319   65334
   65361       6   65319   65337   65343       9   65319   65337   65367      12
   65316   65298   65319      13   65316   65298   65322      13   65316   65313
   65328      12   65316   65331   65355       6   65313   65316   65331      10
   65313   65328   65349      10   65304   65325   65346       4   65298   65316
   65313      14   65298   65316   65331      15   65298   65319   65334      15
   65298   65319   65337      14   65298   65322   65340      15   65298   65322
   65343      14   65295   65271   65298      14   65295   65313   65316       9
   65295   65313   65328       9   65289   65304   65325       5   65283   65304
   65289       6   65283   65304   65325       5   65277   65295   65313       9
   65271   65295   65277      12   65271   65295   65313       9   65271   65298
   65316      13   65271   65298   65319      13   65271   65298   65322      13
   65268   65289   65304       6   65265   65256   65268       6   65265   65283
   65304       6   65262   65277   65295      10   65259   65253   65262       6
   65259   65271   65295      10   65259   65271   65298      15   65256   65265
   65283       6   65256   65268   65289       6   65253   65250   65256       7
   65253   65259   65271       6   65253   65262   65277       6   65250   65253
   65259       8   65250   65253   65262       8   65250   65256   65265       8
   65250   65256   65268       8   65241   65250   65253       7   65241   65250
   65256       7   65235   65241   65250       8   65229   65241   65235       6
   65229   65241   65250       8   65217   65235   65241       6   65214   65208
   65217       6   65214   65229   65241       6   65208   65205   65211       4
   65208   65214   65229       6   65208   65217   65235       6   65205   65208
   65214       5   65205   65208   65217       5   66072   66096   66114       4
   66063   66093   66111       4   66054   66090   66108       4   66048   66087
   66105       4   66036   66084   66102       4   66027   66081   66099       4
   66021   66072   66096       5   66015   66072   66021       6   66015   66072
   66096       5   66009   66063   66093       5   66003   66063   66009       6
   66003   66063   66093       5   65997   66054   66090       5   65991   66054
   65997       6   65991   66054   66090       5   65985   66048   66087       5
   65979   66048   65985       6   65979   66048   66087       5   65976   66036
   66084       5   65970   66036   65976       6   65970   66036   66084       5
   65961   66027   66081       5   65955   66027   65961       6   65955   66027
   66081       5   65952   66021   66072       6   65949   65913   65952       6
   65949   66015   66072       6   65946   66009   66063       6   65943   65910
   65946       6   65943   66003   66063       6   65940   65997   66054       6
   65937   65904   65940       6   65937   65991   66054       6   65934   65985
   66048       6   65931   65901   65934       6   65931   65979   66048       6
   65928   65976   66036       6   65925   65898   65928       6   65925   65970
   66036       6   65922   65961   66027       6   65919   65895   65922       6
   65919   65955   66027       6   65913   65949   66015       6   65913   65952
   66021       6   65910   65886   65913       7   65910   65943   66003       6
   65910   65946   66009       6   65904   65937   65991       6   65904   65940
   65997       6   65901   65877   65904       7   65901   65931   65979       6
   65901   65934   65985       6   65898   65925   65970       6   65898   65928
   65976       6   65895   65874   65898       7   65895   65919   65955       6
   65895   65922   65961       6   65886   65856   65889       8   65886   65910
   65943       8   65886   65910   65946       8   65886   65913   65949       8
   65886   65913   65952       8   65877   65844   65880       8   65877   65901
   65931       8   65877   65901   65934       8   65877   65904   65937       8
   65877   65904   65940       8   65874   65895   65919       8   65874   65895
   65922       8   65874   65898   65925       8   65874   65898   65928       8
   65856   65886   65910       7   65856   65886   65913       7   65856   65889
   65859       6   65844   65877   65901       7   65844   65877   65904       7
   65844   65880   65850       6   65838   65874   65895       7   65838   65874
   65898       7   65832   65838   65874       8   65826   65820   65850       9
   65826   65859   65889      10   65823   65805   65826      10   65823   65856
   65886       8   65823   65856   65889       6   65820   65826   65859       9
   65820   65850   65880      10   65817   65802   65820      10   65817   65844
   65877       8   65817   65844   65880       6   65814   65838   65832       6
   65814   65838   65874       8   65811   65832   65838       6   65805   65823
   65856       6   65805   65826   65820       9   65805   65826   65859      12
   65802   65781   65805      13   65802   65817   65844       6   65802   65820
   65826       9   65802   65820   65850      12   65799   65781   65802      13
   65799   65781   65805      13   65799   65796   65811      12   65799   65814
   65838       6   65796   65799   65814      10   65796   65811   65832      10
   65787   65808   65829       4   65781   65799   65796      14   65781   65799
   65814      15   65781   65802   65817      15   65781   65802   65820      14
   65781   65805   65823      15   65781   65805   65826      14   65778   65754
   65781      14   65778   65796   65799       9   65778   65796   65811       9
   65772   65787   65808       5   65766   65787   65772       6   65766   65787
   65808       5   65760   65778   65796       9   65754   65778   65760      12
   65754   65778   65796       9   65754   65781   65799      13   65754   65781
   65802      13   65754   65781   65805      13   65751   65772   65787       6
   65748   65739   65751       6   65748   65766   65787       6   65745   65760
   65778      10   65742   65736   65745       6   65742   65754   65778      10
   65742   65754   65781      15   65739   65748   65766       6   65739   65751
   65772       6   65736   65733   65739       7   65736   65742   65754       6
   65736   65745   65760       6   65733   65736   65742       8   65733   65736
   65745       8   65733   65739   65748       8   65733   65739   65751       8
   65724   65733   65736       7   65724   65733   65739       7   65718   65724
   65733       8   65712   65724   65718       6   65712   65724   65733       8
   65700   65718   65724       6   65697   65691   65700       6   65697   65712
   65724       6   65691   65688   65694       4   65691   65697   65712       6
   65691   65700   65718       6   65688   65691   65697       5   65688   65691
   65700       5   66555   66579   66597       4   66546   66576   66594       4
   66537   66573   66591       4   66531   66570   66588       4   66519   66567
   66585       4   66510   66564   66582       4   66504   66555   66579       5
   66498   66555   66504       6   66498   66555   66579       5   66492   66546
   66576       5   66486   66546   66492       6   66486   66546   66576       5
   66480   66537   66573       5   66474   66537   66480       6   66474   66537
   66573       5   66468   66531   66570       5   66462   66531   66468       6
   66462   66531   66570       5   66459   66519   66567       5   66453   66519
   66459       6   66453   66519   66567       5   66444   66510   66564       5
   66438   66510   66444       6   66438   66510   66564       5   66435   66504
   66555       6   66432   66396   66435       6   66432   66498   66555       6
   66429   66492   66546       6   66426   66393   66429       6   66426   66486
   66546       6   66423   66480   66537       6   66420   66387   66423       6
   66420   66474   66537       6   66417   66468   66531       6   66414   66384
   66417       6   66414   66462   66531       6   66411   66459   66519       6
   66408   66381   66411       6   66408   66453   66519       6   66405   66444
   66510       6   66402   66378   66405       6   66402   66438   66510       6
   66396   66432   66498       6   66396   66435   66504       6   66393   66369
   66396       7   66393   66426   66486       6   66393   66429   66492       6
   66387   66420   66474       6   66387   66423   66480       6   66384   66360
   66387       7   66384   66414   66462       6   66384   66417   66468       6
   66381   66408   66453       6   66381   66411   66459       6   66378   66357
   66381       7   66378   66402   66438       6   66378   66405   66444       6
   66369   66339   66372       8   66369   66393   66426       8   66369   66393
   66429       8   66369   66396   66432       8   66369   66396   66435       8
   66360   66327   66363       8   66360   66384   66414       8   66360   66384
   66417       8   66360   66387   66420       8   66360   66387   66423       8
   66357   66378   66402       8   66357   66378   66405       8   66357   66381
   66408       8   66357   66381   66411       8   66339   66369   66393       7
   66339   66369   66396       7   66339   66372   66342       6   66327   66360
   66384       7   66327   66360   66387       7   66327   66363   66333       6
   66321   66357   66378       7   66321   66357   66381       7   66315   66321
   66357       8   66309   66303   66333       9   66309   66342   66372      10
   66306   66288   66309      10   66306   66339   66369       8   66306   66339
   66372       6   66303   66309   66342       9   66303   66333   66363      10
   66300   66285   66303      10   66300   66327   66360       8   66300   66327
   66363       6   66297   66321   66315       6   66297   66321   66357       8
   66294   66315   66321       6   66288   66306   66339       6   66288   66309
   66303       9   66288   66309   66342      12   66285   66264   66288      13
   66285   66300   66327       6   66285   66303   66309       9   66285   66303
   66333      12   66282   66264   66285      13   66282   66264   66288      13
   66282   66279   66294      12   66282   66297   66321       6   66279   66282
   66297      10   66279   66294   66315      10   66270   66291   66312       4
   66264   66282   66279      14   66264   66282   66297      15   66264   66285
   66300      15   66264   66285   66303      14   66264   66288   66306      15
   66264   66288   66309      14   66261   66237   66264      14   66261   66279
   66282       9   66261   66279   66294       9   66255   66270   66291       5
   66249   66270   66255       6   66249   66270   66291       5   66243   66261
   66279       9   66237   66261   66243      12   66237   66261   66279       9
   66237   66264   66282      13   66237   66264   66285      13   66237   66264
   66288      13   66234   66255   66270       6   66231   66222   66234       6
   66231   66249   66270       6   66228   66243   66261      10   66225   66219
   66228       6   66225   66237   66261      10   66225   66237   66264      15
   66222   66231   66249       6   66222   66234   66255       6   66219   66216
   66222       7   66219   66225   66237       6   66219   66228   66243       6
   66216   66219   66225       8   66216   66219   66228       8   66216   66222
   66231       8   66216   66222   66234       8   66207   66216   66219       7
   66207   66216   66222       7   66201   66207   66216       8   66195   66207
   66201       6   66195   66207   66216       8   66183   66201   66207       6
   66180   66174   66183       6   66180   66195   66207       6   66174   66171
   66177       4   66174   66180   66195       6   66174   66183   66201       6
   66171   66174   66180       5   66171   66174   66183       5   67038   67062
   67080       4   67029   67059   67077       4   67020   67056   67074       4
   67014   67053   67071       4   67002   67050   67068       4   66993   67047
   67065       4   66987   67038   67062       5   66981   67038   66987       6
   66981   67038   67062       5   66975   67029   67059       5   66969   67029
   66975       6   66969   67029   67059       5   66963   67020   67056       5
   66957   67020   66963       6   66957   67020   67056       5   66951   67014
   67053       5   66945   67014   66951       6   66945   67014   67053       5
   66942   67002   67050       5   66936   67002   66942       6   66936   67002
   67050       5   66927   66993   67047       5   66921   66993   66927       6
   66921   66993   67047       5   66918   66987   67038       6   66915   66879
   66918       6   66915   66981   67038       6   66912   66975   67029       6
   66909   66876   66912       6   66909   66969   67029       6   66906   66963
   67020       6   66903   66870   66906       6   66903   66957   67020       6
   66900   66951   67014       6   66897   66867   66900       6   66897   66945
   67014       6   66894   66942   67002       6   66891   66864   66894       6
   66891   66936   67002       6   66888   66927   66993       6   66885   66861
   66888       6   66885   66921   66993       6   66879   66915   66981       6
   66879   66918   66987       6   66876   66852   66879       7   66876   66909
   66969       6   66876   66912   66975       6   66870   66903   66957       6
   66870   66906   66963       6   66867   66843   66870       7   66867   66897
   66945       6   66867   66900   66951       6   66864   66891   66936       6
   66864   66894   66942       6   66861   66840   66864       7   66861   66885
   66921       6   66861   66888   66927       6   66852   66822   66855       8
   66852   66876   66909       8   66852   66876   66912       8   66852   66879
   66915       8   66852   66879   66918       8   66843   66810   66846       8
   66843   66867   66897       8   66843   66867   66900       8   66843   66870
   66903       8   66843   66870   66906       8   66840   66861   66885       8
   66840   66861   66888       8   66840   66864   66891       8   66840   66864
   66894       8   66822   66852   66876       7   66822   66852   66879       7
   66822   66855   66825       6   66810   66843   66867       7   66810   66843
   66870       7   66810   66846   66816       6   66804   66840   66861       7
   66804   66840   66864       7   66798   66804   66840       8   66792   66786
   66816       9   66792   66825   66855      10   66789   66771   66792      10
   66789   66822   66852       8   66789   66822   66855       6   66786   66792
   66825       9   66786   66816   66846      10   66783   66768   66786      10
   66783   66810   66843       8   66783   66810   66846       6   66780   66804
   66798       6   66780   66804   66840       8   66777   66798   66804       6
   66771   66789   66822       6   66771   66792   66786       9   66771   66792
   66825      12   66768   66747   66771      13   66768   66783   66810       6
   66768   66786   66792       9   66768   66786   66816      12   66765   66747
   66768      13   66765   66747   66771      13   66765   66762   66777      12
   66765   66780   66804       6   66762   66765   66780      10   66762   66777
   66798      10   66753   66774   66795       4   66747   66765   66762      14
   66747   66765   66780      15   66747   66768   66783      15   66747   66768
   66786      14   66747   66771   66789      15   66747   66771   66792      14
   66744   66720   66747      14   66744   66762   66765       9   66744   66762
   66777       9   66738   66753   66774       5   66732   66753   66738       6
   66732   66753   66774       5   66726   66744   66762       9   66720   66744
   66726      12   66720   66744   66762       9   66720   66747   66765      13
   66720   66747   66768      13   66720   66747   66771      13   66717   66738
   66753       6   66714   66705   66717       6   66714   66732   66753       6
   66711   66726   66744      10   66708   66702   66711       6   66708   66720
   66744      10   66708   66720   66747      15   66705   66714   66732       6
   66705   66717   66738       6   66702   66699   66705       7   66702   66708
   66720       6   66702   66711   66726       6   66699   66702   66708       8
   66699   66702   66711       8   66699   66705   66714       8   66699   66705
   66717       8   66690   66699   66702       7   66690   66699   66705       7
   66684   66690   66699       8   66678   66690   66684       6   66678   66690
   66699       8   66666   66684   66690       6   66663   66657   66666       6
   66663   66678   66690       6   66657   66654   66660       4   66657   66663
   66678       6   66657   66666   66684       6   66654   66657   66663       5
   66654   66657   66666       5   67521   67545   67563       4   67512   67542
   67560       4   67503   67539   67557       4   67497   67536   67554       4
   67485   67533   67551       4   67476   67530   67548       4   67470   67521
   67545       5   67464   67521   67470       6   67464   67521   67545       5
   67458   67512   67542       5   67452   67512   67458       6   67452   67512
   67542       5   67446   67503   67539       5   67440   67503   67446       6
   67440   67503   67539       5   67434   67497   67536       5   67428   67497
   67434       6   67428   67497   67536       5   67425   67485   67533       5
   67419   67485   67425       6   67419   67485   67533       5   67410   67476
   67530       5   67404   67476   67410       6   67404   67476   67530       5
   67401   67470   67521       6   67398   67362   67401       6   67398   67464
   67521       6   67395   67458   67512       6   67392   67359   67395       6
   67392   67452   67512       6   67389   67446   67503       6   67386   67353
   67389       6   67386   67440   67503       6   67383   67434   67497       6
   67380   67350   67383       6   67380   67428   67497       6   67377   67425
   67485       6   67374   67347   67377       6   67374   67419   67485       6
   67371   67410   67476       6   67368   67344   67371       6   67368   67404
   67476       6   67362   67398   67464       6   67362   67401   67470       6
   67359   67335   67362       7   67359   67392   67452       6   67359   67395
   67458       6   67353   67386   67440       6   67353   67389   67446       6
   67350   67326   67353       7   67350   67380   67428       6   67350   67383
   67434       6   67347   67374   67419       6   67347   67377   67425       6
   67344   67323   67347       7   67344   67368   67404       6   67344   67371
   67410       6   67335   67305   67338       8   67335   67359   67392       8
   67335   67359   67395       8   67335   67362   67398       8   67335   67362
   67401       8   67326   67293   67329       8   67326   67350   67380       8
   67326   67350   67383       8   67326   67353   67386       8   67326   67353
   67389       8   67323   67344   67368       8   67323   67344   67371       8
   67323   67347   67374       8   67323   67347   67377       8   67305   67335
   67359       7   67305   67335   67362       7   67305   67338   67308       6
   67293   67326   67350       7   67293   67326   67353       7   67293   67329
   67299       6   67287   67323   67344       7   67287   67323   67347       7
   67281   67287   67323       8   67275   67269   67299       9   67275   67308
   67338      10   67272   67254   67275      10   67272   67305   67335       8
   67272   67305   67338       6   67269   67275   67308       9   67269   67299
   67329      10   67266   67251   67269      10   67266   67293   67326       8
   67266   67293   67329       6   67263   67287   67281       6   67263   67287
   67323       8   67260   67281   67287       6   67254   67272   67305       6
   67254   67275   67269       9   67254   67275   67308      12   67251   67230
   67254      13   67251   67266   67293       6   67251   67269   67275       9
   67251   67269   67299      12   67248   67230   67251      13   67248   67230
   67254      13   67248   67245   67260      12   67248   67263   67287       6
   67245   67248   67263      10   67245   67260   67281      10   67236   67257
   67278       4   67230   67248   67245      14   67230   67248   67263      15
   67230   67251   67266      15   67230   67251   67269      14   67230   67254
   67272      15   67230   67254   67275      14   67227   67203   67230      14
   67227   67245   67248       9   67227   67245   67260       9   67221   67236
   67257       5   67215   67236   67221       6   67215   67236   67257       5
   67209   67227   67245       9   67203   67227   67209      12   67203   67227
   67245       9   67203   67230   67248      13   67203   67230   67251      13
   67203   67230   67254      13   67200   67221   67236       6   67197   67188
   67200       6   67197   67215   67236       6   67194   67209   67227      10
   67191   67185   67194       6   67191   67203   67227      10   67191   67203
   67230      15   67188   67197   67215       6   67188   67200   67221       6
   67185   67182   67188       7   67185   67191   67203       6   67185   67194
   67209       6   67182   67185   67191       8   67182   67185   67194       8
   67182   67188   67197       8   67182   67188   67200       8   67173   67182
   67185       7   67173   67182   67188       7   67167   67173   67182       8
   67161   67173   67167       6   67161   67173   67182       8   67149   67167
   67173       6   67146   67140   67149       6   67146   67161   67173       6
   67140   67137   67143       4   67140   67146   67161       6   67140   67149
   67167       6   67137   67140   67146       5   67137   67140   67149       5
   68004   68028   68046       4   67995   68025   68043       4   67986   68022
   68040       4   67980   68019   68037       4   67968   68016   68034       4
   67959   68013   68031       4   67953   68004   68028       5   67947   68004
   67953       6   67947   68004   68028       5   67941   67995   68025       5
   67935   67995   67941       6   67935   67995   68025       5   67929   67986
   68022       5   67923   67986   67929       6   67923   67986   68022       5
   67917   67980   68019       5   67911   67980   67917       6   67911   67980
   68019       5   67908   67968   68016       5   67902   67968   67908       6
   67902   67968   68016       5   67893   67959   68013       5   67887   67959
   67893       6   67887   67959   68013       5   67884   67953   68004       6
   67881   67845   67884       6   67881   67947   68004       6   67878   67941
   67995       6   67875   67842   67878       6   67875   67935   67995       6
   67872   67929   67986       6   67869   67836   67872       6   67869   67923
   67986       6   67866   67917   67980       6   67863   67833   67866       6
   67863   67911   67980       6   67860   67908   67968       6   67857   67830
   67860       6   67857   67902   67968       6   67854   67893   67959       6
   67851   67827   67854       6   67851   67887   67959       6   67845   67881
   67947       6   67845   67884   67953       6   67842   67818   67845       7
   67842   67875   67935       6   67842   67878   67941       6   67836   67869
   67923       6   67836   67872   67929       6   67833   67809   67836       7
   67833   67863   67911       6   67833   67866   67917       6   67830   67857
   67902       6   67830   67860   67908       6   67827   67806   67830       7
   67827   67851   67887       6   67827   67854   67893       6   67818   67788
   67821       8   67818   67842   67875       8   67818   67842   67878       8
   67818   67845   67881       8   67818   67845   67884       8   67809   67776
   67812       8   67809   67833   67863       8   67809   67833   67866       8
   67809   67836   67869       8   67809   67836   67872       8   67806   67827
   67851       8   67806   67827   67854       8   67806   67830   67857       8
   67806   67830   67860       8   67788   67818   67842       7   67788   67818
   67845       7   67788   67821   67791       6   67776   67809   67833       7
   67776   67809   67836       7   67776   67812   67782       6   67770   67806
   67827       7   67770   67806   67830       7   67764   67770   67806       8
   67758   67752   67782       9   67758   67791   67821      10   67755   67737
   67758      10   67755   67788   67818       8   67755   67788   67821       6
   67752   67758   67791       9   67752   67782   67812      10   67749   67734
   67752      10   67749   67776   67809       8   67749   67776   67812       6
   67746   67770   67764       6   67746   67770   67806       8   67743   67764
   67770       6   67737   67755   67788       6   67737   67758   67752       9
   67737   67758   67791      12   67734   67713   67737      13   67734   67749
   67776       6   67734   67752   67758       9   67734   67752   67782      12
   67731   67713   67734      13   67731   67713   67737      13   67731   67728
   67743      12   67731   67746   67770       6   67728   67731   67746      10
   67728   67743   67764      10   67719   67740   67761       4   67713   67731
   67728      14   67713   67731   67746      15   67713   67734   67749      15
   67713   67734   67752      14   67713   67737   67755      15   67713   67737
   67758      14   67710   67686   67713      14   67710   67728   67731       9
   67710   67728   67743       9   67704   67719   67740       5   67698   67719
   67704       6   67698   67719   67740       5   67692   67710   67728       9
   67686   67710   67692      12   67686   67710   67728       9   67686   67713
   67731      13   67686   67713   67734      13   67686   67713   67737      13
   67683   67704   67719       6   67680   67671   67683       6   67680   67698
   67719       6   67677   67692   67710      10   67674   67668   67677       6
   67674   67686   67710      10   67674   67686   67713      15   67671   67680
   67698       6   67671   67683   67704       6   67668   67665   67671       7
   67668   67674   67686       6   67668   67677   67692       6   67665   67668
   67674       8   67665   67668   67677       8   67665   67671   67680       8
   67665   67671   67683       8   67656   67665   67668       7   67656   67665
   67671       7   67650   67656   67665       8   67644   67656   67650       6
   67644   67656   67665       8   67632   67650   67656       6   67629   67623
   67632       6   67629   67644   67656       6   67623   67620   67626       4
   67623   67629   67644       6   67623   67632   67650       6   67620   67623
   67629       5   67620   67623   67632       5   68487   68511   68529       4
   68478   68508   68526       4   68469   68505   68523       4   68463   68502
   68520       4   68451   68499   68517       4   68442   68496   68514       4
   68436   68487   68511       5   68430   68487   68436       6   68430   68487
   68511       5   68424   68478   68508       5   68418   68478   68424       6
   68418   68478   68508       5   68412   68469   68505       5   68406   68469
   68412       6   68406   68469   68505       5   68400   68463   68502       5
   68394   68463   68400       6   68394   68463   68502       5   68391   68451
   68499       5   68385   68451   68391       6   68385   68451   68499       5
   68376   68442   68496       5   68370   68442   68376       6   68370   68442
   68496       5   68367   68436   68487       6   68364   68328   68367       6
   68364   68430   68487       6   68361   68424   68478       6   68358   68325
   68361       6   68358   68418   68478       6   68355   68412   68469       6
   68352   68319   68355       6   68352   68406   68469       6   68349   68400
   68463       6   68346   68316   68349       6   68346   68394   68463       6
   68343   68391   68451       6   68340   68313   68343       6   68340   68385
   68451       6   68337   68376   68442       6   68334   68310   68337       6
   68334   68370   68442       6   68328   68364   68430       6   68328   68367
   68436       6   68325   68301   68328       7   68325   68358   68418       6
   68325   68361   68424       6   68319   68352   68406       6   68319   68355
   68412       6   68316   68292   68319       7   68316   68346   68394       6
   68316   68349   68400       6   68313   68340   68385       6   68313   68343
   68391       6   68310   68289   68313       7   68310   68334   68370       6
   68310   68337   68376       6   68301   68271   68304       8   68301   68325
   68358       8   68301   68325   68361       8   68301   68328   68364       8
   68301   68328   68367       8   68292   68259   68295       8   68292   68316
   68346       8   68292   68316   68349       8   68292   68319   68352       8
   68292   68319   68355       8   68289   68310   68334       8   68289   68310
   68337       8   68289   68313   68340       8   68289   68313   68343       8
   68271   68301   68325       7   68271   68301   68328       7   68271   68304
   68274       6   68259   68292   68316       7   68259   68292   68319       7
   68259   68295   68265       6   68253   68289   68310       7   68253   68289
   68313       7   68247   68253   68289       8   68241   68235   68265       9
   68241   68274   68304      10   68238   68220   68241      10   68238   68271
   68301       8   68238   68271   68304       6   68235   68241   68274       9
   68235   68265   68295      10   68232   68217   68235      10   68232   68259
   68292       8   68232   68259   68295       6   68229   68253   68247       6
   68229   68253   68289       8   68226   68247   68253       6   68220   68238
   68271       6   68220   68241   68235       9   68220   68241   68274      12
   68217   68196   68220      13   68217   68232   68259       6   68217   68235
   68241       9   68217   68235   68265      12   68214   68196   68217      13
   68214   68196   68220      13   68214   68211   68226      12   68214   68229
   68253       6   68211   68214   68229      10   68211   68226   68247      10
   68202   68223   68244       4   68196   68214   68211      14   68196   68214
   68229      15   68196   68217   68232      15   68196   68217   68235      14
   68196   68220   68238      15   68196   68220   68241      14   68193   68169
   68196      14   68193   68211   68214       9   68193   68211   68226       9
   68187   68202   68223       5   68181   68202   68187       6   68181   68202
   68223       5   68175   68193   68211       9   68169   68193   68175      12
   68169   68193   68211       9   68169   68196   68214      13   68169   68196
   68217      13   68169   68196   68220      13   68166   68187   68202       6
   68163   68154   68166       6   68163   68181   68202       6   68160   68175
   68193      10   68157   68151   68160       6   68157   68169   68193      10
   68157   68169   68196      15   68154   68163   68181       6   68154   68166
   68187       6   68151   68148   68154       7   68151   68157   68169       6
   68151   68160   68175       6   68148   68151   68157       8   68148   68151
   68160       8   68148   68154   68163       8   68148   68154   68166       8
   68139   68148   68151       7   68139   68148   68154       7   68133   68139
   68148       8   68127   68139   68133       6   68127   68139   68148       8
   68115   68133   68139       6   68112   68106   68115       6   68112   68127
   68139       6   68106   68103   68109       4   68106   68112   68127       6
   68106   68115   68133       6   68103   68106   68112       5   68103   68106
   68115       5   68970   68994   69012       4   68961   68991   69009       4
   68952   68988   69006       4   68946   68985   69003       4   68934   68982
   69000       4   68925   68979   68997       4   68919   68970   68994       5
   68913   68970   68919       6   68913   68970   68994       5   68907   68961
   68991       5   68901   68961   68907       6   68901   68961   68991       5
   68895   68952   68988       5   68889   68952   68895       6   68889   68952
   68988       5   68883   68946   68985       5   68877   68946   68883       6
   68877   68946   68985       5   68874   68934   68982       5   68868   68934
   68874       6   68868   68934   68982       5   68859   68925   68979       5
   68853   68925   68859       6   68853   68925   68979       5   68850   68919
   68970       6   68847   68811   68850       6   68847   68913   68970       6
   68844   68907   68961       6   68841   68808   68844       6   68841   68901
   68961       6   68838   68895   68952       6   68835   68802   68838       6
   68835   68889   68952       6   68832   68883   68946       6   68829   68799
   68832       6   68829   68877   68946       6   68826   68874   68934       6
   68823   68796   68826       6   68823   68868   68934       6   68820   68859
   68925       6   68817   68793   68820       6   68817   68853   68925       6
   68811   68847   68913       6   68811   68850   68919       6   68808   68784
   68811       7   68808   68841   68901       6   68808   68844   68907       6
   68802   68835   68889       6   68802   68838   68895       6   68799   68775
   68802       7   68799   68829   68877       6   68799   68832   68883       6
   68796   68823   68868       6   68796   68826   68874       6   68793   68772
   68796       7   68793   68817   68853       6   68793   68820   68859       6
   68784   68754   68787       8   68784   68808   68841       8   68784   68808
   68844       8   68784   68811   68847       8   68784   68811   68850       8
   68775   68742   68778       8   68775   68799   68829       8   68775   68799
   68832       8   68775   68802   68835       8   68775   68802   68838       8
   68772   68793   68817       8   68772   68793   68820       8   68772   68796
   68823       8   68772   68796   68826       8   68754   68784   68808       7
   68754   68784   68811       7   68754   68787   68757       6   68742   68775
   68799       7   68742   68775   68802       7   68742   68778   68748       6
   68736   68772   68793       7   68736   68772   68796       7   68730   68736
   68772       8   68724   68718   68748       9   68724   68757   68787      10
   68721   68703   68724      10   68721   68754   68784       8   68721   68754
   68787       6   68718   68724   68757       9   68718   68748   68778      10
   68715   68700   68718      10   68715   68742   68775       8   68715   68742
   68778       6   68712   68736   68730       6   68712   68736   68772       8
   68709   68730   68736       6   68703   68721   68754       6   68703   68724
   68718       9   68703   68724   68757      12   68700   68679   68703      13
   68700   68715   68742       6   68700   68718   68724       9   68700   68718
   68748      12   68697   68679   68700      13   68697   68679   68703      13
   68697   68694   68709      12   68697   68712   68736       6   68694   68697
   68712      10   68694   68709   68730      10   68685   68706   68727       4
   68679   68697   68694      14   68679   68697   68712      15   68679   68700
   68715      15   68679   68700   68718      14   68679   68703   68721      15
   68679   68703   68724      14   68676   68652   68679      14   68676   68694
   68697       9   68676   68694   68709       9   68670   68685   68706       5
   68664   68685   68670       6   68664   68685   68706       5   68658   68676
   68694       9   68652   68676   68658      12   68652   68676   68694       9
   68652   68679   68697      13   68652   68679   68700      13   68652   68679
   68703      13   68649   68670   68685       6   68646   68637   68649       6
   68646   68664   68685       6   68643   68658   68676      10   68640   68634
   68643       6   68640   68652   68676      10   68640   68652   68679      15
   68637   68646   68664       6   68637   68649   68670       6   68634   68631
   68637       7   68634   68640   68652       6   68634   68643   68658       6
   68631   68634   68640       8   68631   68634   68643       8   68631   68637
   68646       8   68631   68637   68649       8   68622   68631   68634       7
   68622   68631   68637       7   68616   68622   68631       8   68610   68622
   68616       6   68610   68622   68631       8   68598   68616   68622       6
   68595   68589   68598       6   68595   68610   68622       6   68589   68586
   68592       4   68589   68595   68610       6   68589   68598   68616       6
   68586   68589   68595       5   68586   68589   68598       5   69453   69477
   69495       4   69444   69474   69492       4   69435   69471   69489       4
   69429   69468   69486       4   69417   69465   69483       4   69408   69462
   69480       4   69402   69453   69477       5   69396   69453   69402       6
   69396   69453   69477       5   69390   69444   69474       5   69384   69444
   69390       6   69384   69444   69474       5   69378   69435   69471       5
   69372   69435   69378       6   69372   69435   69471       5   69366   69429
   69468       5   69360   69429   69366       6   69360   69429   69468       5
   69357   69417   69465       5   69351   69417   69357       6   69351   69417
   69465       5   69342   69408   69462       5   69336   69408   69342       6
   69336   69408   69462       5   69333   69402   69453       6   69330   69294
   69333       6   69330   69396   69453       6   69327   69390   69444       6
   69324   69291   69327       6   69324   69384   69444       6   69321   69378
   69435       6   69318   69285   69321       6   69318   69372   69435       6
   69315   69366   69429       6   69312   69282   69315       6   69312   69360
   69429       6   69309   69357   69417       6   69306   69279   69309       6
   69306   69351   69417       6   69303   69342   69408       6   69300   69276
   69303       6   69300   69336   69408       6   69294   69330   69396       6
   69294   69333   69402       6   69291   69267   69294       7   69291   69324
   69384       6   69291   69327   69390       6   69285   69318   69372       6
   69285   69321   69378       6   69282   69258   69285       7   69282   69312
   69360       6   69282   69315   69366       6   69279   69306   69351       6
   69279   69309   69357       6   69276   69255   69279       7   69276   69300
   69336       6   69276   69303   69342       6   69267   69237   69270       8
   69267   69291   69324       8   69267   69291   69327       8   69267   69294
   69330       8   69267   69294   69333       8   69258   69225   69261       8
   69258   69282   69312       8   69258   69282   69315       8   69258   69285
   69318       8   69258   69285   69321       8   69255   69276   69300       8
   69255   69276   69303       8   69255   69279   69306       8   69255   69279
   69309       8   69237   69267   69291       7   69237   69267   69294       7
   69237   69270   69240       6   69225   69258   69282       7   69225   69258
   69285       7   69225   69261   69231       6   69219   69255   69276       7
   69219   69255   69279       7   69213   69219   69255       8   69207   69201
   69231       9   69207   69240   69270      10   69204   69186   69207      10
   69204   69237   69267       8   69204   69237   69270       6   69201   69207
   69240       9   69201   69231   69261      10   69198   69183   69201      10
   69198   69225   69258       8   69198   69225   69261       6   69195   69219
   69213       6   69195   69219   69255       8   69192   69213   69219       6
   69186   69204   69237       6   69186   69207   69201       9   69186   69207
   69240      12   69183   69162   69186      13   69183   69198   69225       6
   69183   69201   69207       9   69183   69201   69231      12   69180   69162
   69183      13   69180   69162   69186      13   69180   69177   69192      12
   69180   69195   69219       6   69177   69180   69195      10   69177   69192
   69213      10   69168   69189   69210       4   69162   69180   69177      14
   69162   69180   69195      15   69162   69183   69198      15   69162   69183
   69201      14   69162   69186   69204      15   69162   69186   69207      14
   69159   69135   69162      14   69159   69177   69180       9   69159   69177
   69192       9   69153   69168   69189       5   69147   69168   69153       6
   69147   69168   69189       5   69141   69159   69177       9   69135   69159
   69141      12   69135   69159   69177       9   69135   69162   69180      13
   69135   69162   69183      13   69135   69162   69186      13   69132   69153
   69168       6   69129   69120   69132       6   69129   69147   69168       6
   69126   69141   69159      10   69123   69117   69126       6   69123   69135
   69159      10   69123   69135   69162      15   69120   69129   69147       6
   69120   69132   69153       6   69117   69114   69120       7   69117   69123
   69135       6   69117   69126   69141       6   69114   69117   69123       8
   69114   69117   69126       8   69114   69120   69129       8   69114   69120
   69132       8   69105   69114   69117       7   69105   69114   69120       7
   69099   69105   69114       8   69093   69105   69099       6   69093   69105
   69114       8   69081   69099   69105       6   69078   69072   69081       6
   69078   69093   69105       6   69072   69069   69075       4   69072   69078
   69093       6   69072   69081   69099       6   69069   69072   69078       5
   69069   69072   69081       5   69936   69960   69978       4   69927   69957
   69975       4   69918   69954   69972       4   69912   69951   69969       4
   69900   69948   69966       4   69891   69945   69963       4   69885   69936
   69960       5   69879   69936   69885       6   69879   69936   69960       5
   69873   69927   69957       5   69867   69927   69873       6   69867   69927
   69957       5   69861   69918   69954       5   69855   69918   69861       6
   69855   69918   69954       5   69849   69912   69951       5   69843   69912
   69849       6   69843   69912   69951       5   69840   69900   69948       5
   69834   69900   69840       6   69834   69900   69948       5   69825   69891
   69945       5   69819   69891   69825       6   69819   69891   69945       5
   69816   69885   69936       6   69813   69777   69816       6   69813   69879
   69936       6   69810   69873   69927       6   69807   69774   69810       6
   69807   69867   69927       6   69804   69861   69918       6   69801   69768
   69804       6   69801   69855   69918       6   69798   69849   69912       6
   69795   69765   69798       6   69795   69843   69912       6   69792   69840
   69900       6   69789   69762   69792       6   69789   69834   69900       6
   69786   69825   69891       6   69783   69759   69786       6   69783   69819
   69891       6   69777   69813   69879       6   69777   69816   69885       6
   69774   69750   69777       7   69774   69807   69867       6   69774   69810
   69873       6   69768   69801   69855       6   69768   69804   69861       6
   69765   69741   69768       7   69765   69795   69843       6   69765   69798
   69849       6   69762   69789   69834       6   69762   69792   69840       6
   69759   69738   69762       7   69759   69783   69819       6   69759   69786
   69825       6   69750   69720   69753       8   69750   69774   69807       8
   69750   69774   69810       8   69750   69777   69813       8   69750   69777
   69816       8   69741   69708   69744       8   69741   69765   69795       8
   69741   69765   69798       8   69741   69768   69801       8   69741   69768
   69804       8   69738   69759   69783       8   69738   69759   69786       8
   69738   69762   69789       8   69738   69762   69792       8   69720   69750
   69774       7   69720   69750   69777       7   69720   69753   69723       6
   69708   69741   69765       7   69708   69741   69768       7   69708   69744
   69714       6   69702   69738   69759       7   69702   69738   69762       7
   69696   69702   69738       8   69690   69684   69714       9   69690   69723
   69753      10   69687   69669   69690      10   69687   69720   69750       8
   69687   69720   69753       6   69684   69690   69723       9   69684   69714
   69744      10   69681   69666   69684      10   69681   69708   69741       8
   69681   69708   69744       6   69678   69702   69696       6   69678   69702
   69738       8   69675   69696   69702       6   69669   69687   69720       6
   69669   69690   69684       9   69669   69690   69723      12   69666   69645
   69669      13   69666   69681   69708       6   69666   69684   69690       9
   69666   69684   69714      12   69663   69645   69666      13   69663   69645
   69669      13   69663   69660   69675      12   69663   69678   69702       6
   69660   69663   69678      10   69660   69675   69696      10   69651   69672
   69693       4   69645   69663   69660      14   69645   69663   69678      15
   69645   69666   69681      15   69645   69666   69684      14   69645   69669
   69687      15   69645   69669   69690      14   69642   69618   69645      14
   69642   69660   69663       9   69642   69660   69675       9   69636   69651
   69672       5   69630   69651   69636       6   69630   69651   69672       5
   69624   69642   69660       9   69618   69642   69624      12   69618   69642
   69660       9   69618   69645   69663      13   69618   69645   69666      13
   69618   69645   69669      13   69615   69636   69651       6   69612   69603
   69615       6   69612   69630   69651       6   69609   69624   69642      10
   69606   69600   69609       6   69606   69618   69642      10   69606   69618
   69645      15   69603   69612   69630       6   69603   69615   69636       6
   69600   69597   69603       7   69600   69606   69618       6   69600   69609
   69624       6   69597   69600   69606       8   69597   69600   69609       8
   69597   69603   69612       8   69597   69603   69615       8   69588   69597
   69600       7   69588   69597   69603       7   69582   69588   69597       8
   69576   69588   69582       6   69576   69588   69597       8   69564   69582
   69588       6   69561   69555   69564       6   69561   69576   69588       6
   69555   69552   69558       4   69555   69561   69576       6   69555   69564
   69582       6   69552   69555   69561       5   69552   69555   69564       5
   70419   70443   70461       4   70410   70440   70458       4   70401   70437
   70455       4   70395   70434   70452       4   70383   70431   70449       4
   70374   70428   70446       4   70368   70419   70443       5   70362   70419
   70368       6   70362   70419   70443       5   70356   70410   70440       5
   70350   70410   70356       6   70350   70410   70440       5   70344   70401
   70437       5   70338   70401   70344       6   70338   70401   70437       5
   70332   70395   70434       5   70326   70395   70332       6   70326   70395
   70434       5   70323   70383   70431       5   70317   70383   70323       6
   70317   70383   70431       5   70308   70374   70428       5   70302   70374
   70308       6   70302   70374   70428       5   70299   70368   70419       6
   70296   70260   70299       6   70296   70362   70419       6   70293   70356
   70410       6   70290   70257   70293       6   70290   70350   70410       6
   70287   70344   70401       6   70284   70251   70287       6   70284   70338
   70401       6   70281   70332   70395       6   70278   70248   70281       6
   70278   70326   70395       6   70275   70323   70383       6   70272   70245
   70275       6   70272   70317   70383       6   70269   70308   70374       6
   70266   70242   70269       6   70266   70302   70374       6   70260   70296
   70362       6   70260   70299   70368       6   70257   70233   70260       7
   70257   70290   70350       6   70257   70293   70356       6   70251   70284
   70338       6   70251   70287   70344       6   70248   70224   70251       7
   70248   70278   70326       6   70248   70281   70332       6   70245   70272
   70317       6   70245   70275   70323       6   70242   70221   70245       7
   70242   70266   70302       6   70242   70269   70308       6   70233   70203
   70236       8   70233   70257   70290       8   70233   70257   70293       8
   70233   70260   70296       8   70233   70260   70299       8   70224   70191
   70227       8   70224   70248   70278       8   70224   70248   70281       8
   70224   70251   70284       8   70224   70251   70287       8   70221   70242
   70266       8   70221   70242   70269       8   70221   70245   70272       8
   70221   70245   70275       8   70203   70233   70257       7   70203   70233
   70260       7   70203   70236   70206       6   70191   70224   70248       7
   70191   70224   70251       7   70191   70227   70197       6   70185   70221
   70242       7   70185   70221   70245       7   70179   70185   70221       8
   70173   70167   70197       9   70173   70206   70236      10   70170   70152
   70173      10   70170   70203   70233       8   70170   70203   70236       6
   70167   70173   70206       9   70167   70197   70227      10   70164   70149
   70167      10   70164   70191   70224       8   70164   70191   70227       6
   70161   70185   70179       6   70161   70185   70221       8   70158   70179
   70185       6   70152   70170   70203       6   70152   70173   70167       9
   70152   70173   70206      12   70149   70128   70152      13   70149   70164
   70191       6   70149   70167   70173       9   70149   70167   70197      12
   70146   70128   70149      13   70146   70128   70152      13   70146   70143
   70158      12   70146   70161   70185       6   70143   70146   70161      10
   70143   70158   70179      10   70134   70155   70176       4   70128   70146
   70143      14   70128   70146   70161      15   70128   70149   70164      15
   70128   70149   70167      14   70128   70152   70170      15   70128   70152
   70173      14   70125   70101   70128      14   70125   70143   70146       9
   70125   70143   70158       9   70119   70134   70155       5   70113   70134
   70119       6   70113   70134   70155       5   70107   70125   70143       9
   70101   70125   70107      12   70101   70125   70143       9   70101   70128
   70146      13   70101   70128   70149      13   70101   70128   70152      13
   70098   70119   70134       6   70095   70086   70098       6   70095   70113
   70134       6   70092   70107   70125      10   70089   70083   70092       6
   70089   70101   70125      10   70089   70101   70128      15   70086   70095
   70113       6   70086   70098   70119       6   70083   70080   70086       7
   70083   70089   70101       6   70083   70092   70107       6   70080   70083
   70089       8   70080   70083   70092       8   70080   70086   70095       8
   70080   70086   70098       8   70071   70080   70083       7   70071   70080
   70086       7   70065   70071   70080       8   70059   70071   70065       6
   70059   70071   70080       8   70047   70065   70071       6   70044   70038
   70047       6   70044   70059   70071       6   70038   70035   70041       4
   70038   70044   70059       6   70038   70047   70065       6   70035   70038
   70044       5   70035   70038   70047       5   70902   70926   70944       4
   70893   70923   70941       4   70884   70920   70938       4   70878   70917
   70935       4   70866   70914   70932       4   70857   70911   70929       4
   70851   70902   70926       5   70845   70902   70851       6   70845   70902
   70926       5   70839   70893   70923       5   70833   70893   70839       6
   70833   70893   70923       5   70827   70884   70920       5   70821   70884
   70827       6   70821   70884   70920       5   70815   70878   70917       5
   70809   70878   70815       6   70809   70878   70917       5   70806   70866
   70914       5   70800   70866   70806       6   70800   70866   70914       5
   70791   70857   70911       5   70785   70857   70791       6   70785   70857
   70911       5   70782   70851   70902       6   70779   70743   70782       6
   70779   70845   70902       6   70776   70839   70893       6   70773   70740
   70776       6   70773   70833   70893       6   70770   70827   70884       6
   70767   70734   70770       6   70767   70821   70884       6   70764   70815
   70878       6   70761   70731   70764       6   70761   70809   70878       6
   70758   70806   70866       6   70755   70728   70758       6   70755   70800
   70866       6   70752   70791   70857       6   70749   70725   70752       6
   70749   70785   70857       6   70743   70779   70845       6   70743   70782
   70851       6   70740   70716   70743       7   70740   70773   70833       6
   70740   70776   70839       6   70734   70767   70821       6   70734   70770
   70827       6   70731   70707   70734       7   70731   70761   70809       6
   70731   70764   70815       6   70728   70755   70800       6   70728   70758
   70806       6   70725   70704   70728       7   70725   70749   70785       6
   70725   70752   70791       6   70716   70686   70719       8   70716   70740
   70773       8   70716   70740   70776       8   70716   70743   70779       8
   70716   70743   70782       8   70707   70674   70710       8   70707   70731
   70761       8   70707   70731   70764       8   70707   70734   70767       8
   70707   70734   70770       8   70704   70725   70749       8   70704   70725
   70752       8   70704   70728   70755       8   70704   70728   70758       8
   70686   70716   70740       7   70686   70716   70743       7   70686   70719
   70689       6   70674   70707   70731       7   70674   70707   70734       7
   70674   70710   70680       6   70668   70704   70725       7   70668   70704
   70728       7   70662   70668   70704       8   70656   70650   70680       9
   70656   70689   70719      10   70653   70635   70656      10   70653   70686
   70716       8   70653   70686   70719       6   70650   70656   70689       9
   70650   70680   70710      10   70647   70632   70650      10   70647   70674
   70707       8   70647   70674   70710       6   70644   70668   70662       6
   70644   70668   70704       8   70641   70662   70668       6   70635   70653
   70686       6   70635   70656   70650       9   70635   70656   70689      12
   70632   70611   70635      13   70632   70647   70674       6   70632   70650
   70656       9   70632   70650   70680      12   70629   70611   70632      13
   70629   70611   70635      13   70629   70626   70641      12   70629   70644
   70668       6   70626   70629   70644      10   70626   70641   70662      10
   70617   70638   70659       4   70611   70629   70626      14   70611   70629
   70644      15   70611   70632   70647      15   70611   70632   70650      14
   70611   70635   70653      15   70611   70635   70656      14   70608   70584
   70611      14   70608   70626   70629       9   70608   70626   70641       9
   70602   70617   70638       5   70596   70617   70602       6   70596   70617
   70638       5   70590   70608   70626       9   70584   70608   70590      12
   70584   70608   70626       9   70584   70611   70629      13   70584   70611
   70632      13   70584   70611   70635      13   70581   70602   70617       6
   70578   70569   70581       6   70578   70596   70617       6   70575   70590
   70608      10   70572   70566   70575       6   70572   70584   70608      10
   70572   70584   70611      15   70569   70578   70596       6   70569   70581
   70602       6   70566   70563   70569       7   70566   70572   70584       6
   70566   70575   70590       6   70563   70566   70572       8   70563   70566
   70575       8   70563   70569   70578       8   70563   70569   70581       8
   70554   70563   70566       7   70554   70563   70569       7   70548   70554
   70563       8   70542   70554   70548       6   70542   70554   70563       8
   70530   70548   70554       6   70527   70521   70530       6   70527   70542
   70554       6   70521   70518   70524       4   70521   70527   70542       6
   70521   70530   70548       6   70518   70521   70527       5   70518   70521
   70530       5   71385   71409   71427       4   71376   71406   71424       4
   71367   71403   71421       4   71361   71400   71418       4   71349   71397
   71415       4   71340   71394   71412       4   71334   71385   71409       5
   71328   71385   71334       6   71328   71385   71409       5   71322   71376
   71406       5   71316   71376   71322       6   71316   71376   71406       5
   71310   71367   71403       5   71304   71367   71310       6   71304   71367
   71403       5   71298   71361   71400       5   71292   71361   71298       6
   71292   71361   71400       5   71289   71349   71397       5   71283   71349
   71289       6   71283   71349   71397       5   71274   71340   71394       5
   71268   71340   71274       6   71268   71340   71394       5   71265   71334
   71385       6   71262   71226   71265       6   71262   71328   71385       6
   71259   71322   71376       6   71256   71223   71259       6   71256   71316
   71376       6   71253   71310   71367       6   71250   71217   71253       6
   71250   71304   71367       6   71247   71298   71361       6   71244   71214
   71247       6   71244   71292   71361       6   71241   71289   71349       6
   71238   71211   71241       6   71238   71283   71349       6   71235   71274
   71340       6   71232   71208   71235       6   71232   71268   71340       6
   71226   71262   71328       6   71226   71265   71334       6   71223   71199
   71226       7   71223   71256   71316       6   71223   71259   71322       6
   71217   71250   71304       6   71217   71253   71310       6   71214   71190
   71217       7   71214   71244   71292       6   71214   71247   71298       6
   71211   71238   71283       6   71211   71241   71289       6   71208   71187
   71211       7   71208   71232   71268       6   71208   71235   71274       6
   71199   71169   71202       8   71199   71223   71256       8   71199   71223
   71259       8   71199   71226   71262       8   71199   71226   71265       8
   71190   71157   71193       8   71190   71214   71244       8   71190   71214
   71247       8   71190   71217   71250       8   71190   71217   71253       8
   71187   71208   71232       8   71187   71208   71235       8   71187   71211
   71238       8   71187   71211   71241       8   71169   71199   71223       7
   71169   71199   71226       7   71169   71202   71172       6   71157   71190
   71214       7   71157   71190   71217       7   71157   71193   71163       6
   71151   71187   71208       7   71151   71187   71211       7   71145   71151
   71187       8   71139   71133   71163       9   71139   71172   71202      10
   71136   71118   71139      10   71136   71169   71199       8   71136   71169
   71202       6   71133   71139   71172       9   71133   71163   71193      10
   71130   71115   71133      10   71130   71157   71190       8   71130   71157
   71193       6   71127   71151   71145       6   71127   71151   71187       8
   71124   71145   71151       6   71118   71136   71169       6   71118   71139
   71133       9   71118   71139   71172      12   71115   71094   71118      13
   71115   71130   71157       6   71115   71133   71139       9   71115   71133
   71163      12   71112   71094   71115      13   71112   71094   71118      13
   71112   71109   71124      12   71112   71127   71151       6   71109   71112
   71127      10   71109   71124   71145      10   71100   71121   71142       4
   71094   71112   71109      14   71094   71112   71127      15   71094   71115
   71130      15   71094   71115   71133      14   71094   71118   71136      15
   71094   71118   71139      14   71091   71067   71094      14   71091   71109
   71112       9   71091   71109   71124       9   71085   71100   71121       5
   71079   71100   71085       6   71079   71100   71121       5   71073   71091
   71109       9   71067   71091   71073      12   71067   71091   71109       9
   71067   71094   71112      13   71067   71094   71115      13   71067   71094
   71118      13   71064   71085   71100       6   71061   71052   71064       6
   71061   71079   71100       6   71058   71073   71091      10   71055   71049
   71058       6   71055   71067   71091      10   71055   71067   71094      15
   71052   71061   71079       6   71052   71064   71085       6   71049   71046
   71052       7   71049   71055   71067       6   71049   71058   71073       6
   71046   71049   71055       8   71046   71049   71058       8   71046   71052
   71061       8   71046   71052   71064       8   71037   71046   71049       7
   71037   71046   71052       7   71031   71037   71046       8   71025   71037
   71031       6   71025   71037   71046       8   71013   71031   71037       6
   71010   71004   71013       6   71010   71025   71037       6   71004   71001
   71007       4   71004   71010   71025       6   71004   71013   71031       6
   71001   71004   71010       5   71001   71004   71013       5   71868   71892
   71910       4   71859   71889   71907       4   71850   71886   71904       4
   71844   71883   71901       4   71832   71880   71898       4   71823   71877
   71895       4   71817   71868   71892       5   71811   71868   71817       6
   71811   71868   71892       5   71805   71859   71889       5   71799   71859
   71805       6   71799   71859   71889       5   71793   71850   71886       5
   71787   71850   71793       6   71787   71850   71886       5   71781   71844
   71883       5   71775   71844   71781       6   71775   71844   71883       5
   71772   71832   71880       5   71766   71832   71772       6   71766   71832
   71880       5   71757   71823   71877       5   71751   71823   71757       6
   71751   71823   71877       5   71748   71817   71868       6   71745   71709
   71748       6   71745   71811   71868       6   71742   71805   71859       6
   71739   71706   71742       6   71739   71799   71859       6   71736   71793
   71850       6   71733   71700   71736       6   71733   71787   71850       6
   71730   71781   71844       6   71727   71697   71730       6   71727   71775
   71844       6   71724   71772   71832       6   71721   71694   71724       6
   71721   71766   71832       6   71718   71757   71823       6   71715   71691
   71718       6   71715   71751   71823       6   71709   71745   71811       6
   71709   71748   71817       6   71706   71682   71709       7   71706   71739
   71799       6   71706   71742   71805       6   71700   71733   71787       6
   71700   71736   71793       6   71697   71673   71700       7   71697   71727
   71775       6   71697   71730   71781       6   71694   71721   71766       6
   71694   71724   71772       6   71691   71670   71694       7   71691   71715
   71751       6   71691   71718   71757       6   71682   71652   71685       8
   71682   71706   71739       8   71682   71706   71742       8   71682   71709
   71745       8   71682   71709   71748       8   71673   71640   71676       8
   71673   71697   71727       8   71673   71697   71730       8   71673   71700
   71733       8   71673   71700   71736       8   71670   71691   71715       8
   71670   71691   71718       8   71670   71694   71721       8   71670   71694
   71724       8   71652   71682   71706       7   71652   71682   71709       7
   71652   71685   71655       6   71640   71673   71697       7   71640   71673
   71700       7   71640   71676   71646       6   71634   71670   71691       7
   71634   71670   71694       7   71628   71634   71670       8   71622   71616
   71646       9   71622   71655   71685      10   71619   71601   71622      10
   71619   71652   71682       8   71619   71652   71685       6   71616   71622
   71655       9   71616   71646   71676      10   71613   71598   71616      10
   71613   71640   71673       8   71613   71640   71676       6   71610   71634
   71628       6   71610   71634   71670       8   71607   71628   71634       6
   71601   71619   71652       6   71601   71622   71616       9   71601   71622
   71655      12   71598   71577   71601      13   71598   71613   71640       6
   71598   71616   71622       9   71598   71616   71646      12   71595   71577
   71598      13   71595   71577   71601      13   71595   71592   71607      12
   71595   71610   71634       6   71592   71595   71610      10   71592   71607
   71628      10   71583   71604   71625       4   71577   71595   71592      14
   71577   71595   71610      15   71577   71598   71613      15   71577   71598
   71616      14   71577   71601   71619      15   71577   71601   71622      14
   71574   71550   71577      14   71574   71592   71595       9   71574   71592
   71607       9   71568   71583   71604       5   71562   71583   71568       6
   71562   71583   71604       5   71556   71574   71592       9   71550   71574
   71556      12   71550   71574   71592       9   71550   71577   71595      13
   71550   71577   71598      13   71550   71577   71601      13   71547   71568
   71583       6   71544   71535   71547       6   71544   71562   71583       6
   71541   71556   71574      10   71538   71532   71541       6   71538   71550
   71574      10   71538   71550   71577      15   71535   71544   71562       6
   71535   71547   71568       6   71532   71529   71535       7   71532   71538
   71550       6   71532   71541   71556       6   71529   71532   71538       8
   71529   71532   71541       8   71529   71535   71544       8   71529   71535
   71547       8   71520   71529   71532       7   71520   71529   71535       7
   71514   71520   71529       8   71508   71520   71514       6   71508   71520
   71529       8   71496   71514   71520       6   71493   71487   71496       6
   71493   71508   71520       6   71487   71484   71490       4   71487   71493
   71508       6   71487   71496   71514       6   71484   71487   71493       5
   71484   71487   71496       5   72351   72375   72393       4   72342   72372
   72390       4   72333   72369   72387       4   72327   72366   72384       4
   72315   72363   72381       4   72306   72360   72378       4   72300   72351
   72375       5   72294   72351   72300       6   72294   72351   72375       5
   72288   72342   72372       5   72282   72342   72288       6   72282   72342
   72372       5   72276   72333   72369       5   72270   72333   72276       6
   72270   72333   72369       5   72264   72327   72366       5   72258   72327
   72264       6   72258   72327   72366       5   72255   72315   72363       5
   72249   72315   72255       6   72249   72315   72363       5   72240   72306
   72360       5   72234   72306   72240       6   72234   72306   72360       5
   72231   72300   72351       6   72228   72192   72231       6   72228   72294
   72351       6   72225   72288   72342       6   72222   72189   72225       6
   72222   72282   72342       6   72219   72276   72333       6   72216   72183
   72219       6   72216   72270   72333       6   72213   72264   72327       6
   72210   72180   72213       6   72210   72258   72327       6   72207   72255
   72315       6   72204   72177   72207       6   72204   72249   72315       6
   72201   72240   72306       6   72198   72174   72201       6   72198   72234
   72306       6   72192   72228   72294       6   72192   72231   72300       6
   72189   72165   72192       7   72189   72222   72282       6   72189   72225
   72288       6   72183   72216   72270       6   72183   72219   72276       6
   72180   72156   72183       7   72180   72210   72258       6   72180   72213
   72264       6   72177   72204   72249       6   72177   72207   72255       6
   72174   72153   72177       7   72174   72198   72234       6   72174   72201
   72240       6   72165   72135   72168       8   72165   72189   72222       8
   72165   72189   72225       8   72165   72192   72228       8   72165   72192
   72231       8   72156   72123   72159       8   72156   72180   72210       8
   72156   72180   72213       8   72156   72183   72216       8   72156   72183
   72219       8   72153   72174   72198       8   72153   72174   72201       8
   72153   72177   72204       8   72153   72177   72207       8   72135   72165
   72189       7   72135   72165   72192       7   72135   72168   72138       6
   72123   72156   72180       7   72123   72156   72183       7   72123   72159
   72129       6   72117   72153   72174       7   72117   72153   72177       7
   72111   72117   72153       8   72105   72099   72129       9   72105   72138
   72168      10   72102   72084   72105      10   72102   72135   72165       8
   72102   72135   72168       6   72099   72105   72138       9   72099   72129
   72159      10   72096   72081   72099      10   72096   72123   72156       8
   72096   72123   72159       6   72093   72117   72111       6   72093   72117
   72153       8   72090   72111   72117       6   72084   72102   72135       6
   72084   72105   72099       9   72084   72105   72138      12   72081   72060
   72084      13   72081   72096   72123       6   72081   72099   72105       9
   72081   72099   72129      12   72078   72060   72081      13   72078   72060
   72084      13   72078   72075   72090      12   72078   72093   72117       6
   72075   72078   72093      10   72075   72090   72111      10   72066   72087
   72108       4   72060   72078   72075      14   72060   72078   72093      15
   72060   72081   72096      15   72060   72081   72099      14   72060   72084
   72102      15   72060   72084   72105      14   72057   72033   72060      14
   72057   72075   72078       9   72057   72075   72090       9   72051   72066
   72087       5   72045   72066   72051       6   72045   72066   72087       5
   72039   72057   72075       9   72033   72057   72039      12   72033   72057
   72075       9   72033   72060   72078      13   72033   72060   72081      13
   72033   72060   72084      13   72030   72051   72066       6   72027   72018
   72030       6   72027   72045   72066       6   72024   72039   72057      10
   72021   72015   72024       6   72021   72033   72057      10   72021   72033
   72060      15   72018   72027   72045       6   72018   72030   72051       6
   72015   72012   72018       7   72015   72021   72033       6   72015   72024
   72039       6   72012   72015   72021       8   72012   72015   72024       8
   72012   72018   72027       8   72012   72018   72030       8   72003   72012
   72015       7   72003   72012   72018       7   71997   72003   72012       8
   71991   72003   71997       6   71991   72003   72012       8   71979   71997
   72003       6   71976   71970   71979       6   71976   71991   72003       6
   71970   71967   71973       4   71970   71976   71991       6   71970   71979
   71997       6   71967   71970   71976       5   71967   71970   71979       5
%FLAG DIHEDRALS_INC_HYDROGEN                                                    
%FORMAT(10I8)                                                                   
     390     333     384     408       1     387     327     384     408       1
     384     408     426     474       2     384     408     426     477       2
     384     408     426     480       2     381     321     375     405       1
     378     315     375     405       1     375     405     423     465       2
     375     405     423     468       2     375     405     423     471       2
     372     309     366     402       1     369     303     366     402       1
     366     402     420     456       2     366     402     420     459       2
     366     402     420     462       2     363     297     360     399       1
     360     399     417     447       2     360     399     417     450       2
     360     399     417     453       2     357     291     360     399       1
     354     288     348     396       1     351     282     348     396       1
     348     396     414     438       2     348     396     414     441       2
     348     396     414     444       2     345     273     339     393       1
     342     267     339     393       1     339     393     411     429       2
     339     393     411     432       2     339     393     411     435       2
     336     264     333     384       1     336     264     333     390       1
     333     384     327     387       1     330     261     327     384       1
     330     261     327     387       1     327     384     333     390       1
     324     258     321     375       1     324     258     321     381       1
     321     375     315     378       1     318     255     315     375       1
     318     255     315     378       1     315     375     321     381       1
     312     252     309     366       1     312     252     309     372       1
     309     366     303     369       1     306     249     303     366       1
     306     249     303     369       1     303     366     309     372       1
     300     246     297     360       1     300     246     297     363       1
     297     360     291     357       1     294     243     291     357       1
     294     243     291     360       1     291     360     297     363       1
     288     348     282     351       1     285     240     288     348       1
     285     240     288     354       1     282     348     288     354       1
     279     237     282     348       1     279     237     282     351       1
     276     234     273     339       1     276     234     273     345       1
     273     339     267     342       1     270     231     267     339       1
     270     231     267     342       1     267     339     273     345       1
     264     225     261     330       1     261     225     264     336       1
     258     222     255     318       1     255     222     258     324       1
     252     216     249     306       1     249     216     252     312       1
     246     213     243     294       1     243     213     246     300       1
     240     210     237     279       1     237     210     240     285       1
     234     207     231     270       1     231     207     234     276       1
     225     261     327     387       1     225     264     333     390       1
     222     255     315     378       1     222     258     321     381       1
     216     249     303     369       1     216     252     309     372       1
     213     243     291     357       1     213     246     297     363       1
     210     237     282     351       1     210     240     288     354       1
     207     231     267     342       1     207     234     273     345       1
     204     171     201     228       1     198     168     201     228       1
     198     222     255     318       1     198     222     258     324       1
     198     225     261     330       1     198     225     264     336       1
     195     162     192     219       1     189     156     192     219       1
     189     213     243     294       1     189     213     246     300       1
     189     216     249     306       1     189     216     252     312       1
     186     207     231     270       1     186     207     234     276       1
     186     210     237     279       1     186     210     240     285       1
     183     144     150     186       1     168     201     171     204       1
     165     135     168     198       1     165     135     168     201       1
     159     129     156     189       1     159     129     156     192       1
     156     192     162     195       1     153     126     150     186       1
     147     123     144     150       1     147     123     144     183       1
     144     150     126     153       1     138     117     135     165       1
     138     132     162     195       1     138     171     201     228       1
     135     168     201     228       1     132     114     129     159       1
     132     138     171     204       1     132     162     192     219       1
     129     156     192     219       1     126     150     144     183       1
     117     138     171     204       1     114     132     162     195       1
     111     108     123     147       1     108     111     126     153       1
     108     123     144     183       1     105      84      99     120       1
     102      78      99     120       1      99     120     141     174       2
      99     120     141     177       2      99     120     141     180       2
      96      72      90     108       1      93     111     126     153       1
      93     114     129     159       1      93     117     135     165       1
      90     108     123     147       1      87      63      84      99       1
      87      63      84     105       1      84      99      78     102       1
      81      60      78      99       1      81      60      78     102       1
      78      99      84     105       1      75      57      72      90       1
      75      57      72      96       1      69      54      66      90       1
      69      54      66      93       1      66      90      72      96       1
      63      51      60      81       1      60      51      63      87       1
      57      48      54      69       1      54      48      57      75       1
      51      60      78     102       1      51      63      84     105       1
      48      57      72      96       1      45      48      54      69       1
      45      48      57      75       1      45      51      60      81       1
      45      51      63      87       1      42      30      36      45       1
      39      24      36      45       1      33      12      30      36       1
      33      12      30      42       1      30      36      24      39       1
      27       9      24      36       1      27       9      24      39       1
      24      36      30      42       1      12       3       9      27       1
       9       3      12      33       1       3       0       6      15       2
       3       0       6      18       2       3       0       6      21       2
       3       9      24      39       1       3      12      30      42       1
       0       3       9      27       1       0       3      12      33       1
     873     816     867     891       1     870     810     867     891       1
     867     891     909     957       2     867     891     909     960       2
     867     891     909     963       2     864     804     858     888       1
     861     798     858     888       1     858     888     906     948       2
     858     888     906     951       2     858     888     906     954       2
     855     792     849     885       1     852     786     849     885       1
     849     885     903     939       2     849     885     903     942       2
     849     885     903     945       2     846     780     843     882       1
     843     882     900     930       2     843     882     900     933       2
     843     882     900     936       2     840     774     843     882       1
     837     771     831     879       1     834     765     831     879       1
     831     879     897     921       2     831     879     897     924       2
     831     879     897     927       2     828     756     822     876       1
     825     750     822     876       1     822     876     894     912       2
     822     876     894     915       2     822     876     894     918       2
     819     747     816     867       1     819     747     816     873       1
     816     867     810     870       1     813     744     810     867       1
     813     744     810     870       1     810     867     816     873       1
     807     741     804     858       1     807     741     804     864       1
     804     858     798     861       1     801     738     798     858       1
     801     738     798     861       1     798     858     804     864       1
     795     735     792     849       1     795     735     792     855       1
     792     849     786     852       1     789     732     786     849       1
     789     732     786     852       1     786     849     792     855       1
     783     729     780     843       1     783     729     780     846       1
     780     843     774     840       1     777     726     774     840       1
     777     726     774     843       1     774     843     780     846       1
     771     831     765     834       1     768     723     771     831       1
     768     723     771     837       1     765     831     771     837       1
     762     720     765     831       1     762     720     765     834       1
     759     717     756     822       1     759     717     756     828       1
     756     822     750     825       1     753     714     750     822       1
     753     714     750     825       1     750     822     756     828       1
     747     708     744     813       1     744     708     747     819       1
     741     705     738     801       1     738     705     741     807       1
     735     699     732     789       1     732     699     735     795       1
     729     696     726     777       1     726     696     729     783       1
     723     693     720     762       1     720     693     723     768       1
     717     690     714     753       1     714     690     717     759       1
     708     744     810     870       1     708     747     816     873       1
     705     738     798     861       1     705     741     804     864       1
     699     732     786     852       1     699     735     792     855       1
     696     726     774     840       1     696     729     780     846       1
     693     720     765     834       1     693     723     771     837       1
     690     714     750     825       1     690     717     756     828       1
     687     654     684     711       1     681     651     684     711       1
     681     705     738     801       1     681     705     741     807       1
     681     708     744     813       1     681     708     747     819       1
     678     645     675     702       1     672     639     675     702       1
     672     696     726     777       1     672     696     729     783       1
     672     699     732     789       1     672     699     735     795       1
     669     690     714     753       1     669     690     717     759       1
     669     693     720     762       1     669     693     723     768       1
     666     627     633     669       1     651     684     654     687       1
     648     618     651     681       1     648     618     651     684       1
     642     612     639     672       1     642     612     639     675       1
     639     675     645     678       1     636     609     633     669       1
     630     606     627     633       1     630     606     627     666       1
     627     633     609     636       1     621     600     618     648       1
     621     615     645     678       1     621     654     684     711       1
     618     651     684     711       1     615     597     612     642       1
     615     621     654     687       1     615     645     675     702       1
     612     639     675     702       1     609     633     627     666       1
     600     621     654     687       1     597     615     645     678       1
     594     591     606     630       1     591     594     609     636       1
     591     606     627     666       1     588     567     582     603       1
     585     561     582     603       1     582     603     624     657       2
     582     603     624     660       2     582     603     624     663       2
     579     555     573     591       1     576     594     609     636       1
     576     597     612     642       1     576     600     618     648       1
     573     591     606     630       1     570     546     567     582       1
     570     546     567     588       1     567     582     561     585       1
     564     543     561     582       1     564     543     561     585       1
     561     582     567     588       1     558     540     555     573       1
     558     540     555     579       1     552     537     549     573       1
     552     537     549     576       1     549     573     555     579       1
     546     534     543     564       1     543     534     546     570       1
     540     531     537     552       1     537     531     540     558       1
     534     543     561     585       1     534     546     567     588       1
     531     540     555     579       1     528     531     537     552       1
     528     531     540     558       1     528     534     543     564       1
     528     534     546     570       1     525     513     519     528       1
     522     507     519     528       1     516     495     513     519       1
     516     495     513     525       1     513     519     507     522       1
     510     492     507     519       1     510     492     507     522       1
     507     519     513     525       1     495     486     492     510       1
     492     486     495     516       1     486     483     489     498       2
     486     483     489     501       2     486     483     489     504       2
     486     492     507     522       1     486     495     513     525       1
     483     486     492     510       1     483     486     495     516       1
    1356    1299    1350    1374       1    1353    1293    1350    1374       1
    1350    1374    1392    1440       2    1350    1374    1392    1443       2
    1350    1374    1392    1446       2    1347    1287    1341    1371       1
    1344    1281    1341    1371       1    1341    1371    1389    1431       2
    1341    1371    1389    1434       2    1341    1371    1389    1437       2
    1338    1275    1332    1368       1    1335    1269    1332    1368       1
    1332    1368    1386    1422       2    1332    1368    1386    1425       2
    1332    1368    1386    1428       2    1329    1263    1326    1365       1
    1326    1365    1383    1413       2    1326    1365    1383    1416       2
    1326    1365    1383    1419       2    1323    1257    1326    1365       1
    1320    1254    1314    1362       1    1317    1248    1314    1362       1
    1314    1362    1380    1404       2    1314    1362    1380    1407       2
    1314    1362    1380    1410       2    1311    1239    1305    1359       1
    1308    1233    1305    1359       1    1305    1359    1377    1395       2
    1305    1359    1377    1398       2    1305    1359    1377    1401       2
    1302    1230    1299    1350       1    1302    1230    1299    1356       1
    1299    1350    1293    1353       1    1296    1227    1293    1350       1
    1296    1227    1293    1353       1    1293    1350    1299    1356       1
    1290    1224    1287    1341       1    1290    1224    1287    1347       1
    1287    1341    1281    1344       1    1284    1221    1281    1341       1
    1284    1221    1281    1344       1    1281    1341    1287    1347       1
    1278    1218    1275    1332       1    1278    1218    1275    1338       1
    1275    1332    1269    1335       1    1272    1215    1269    1332       1
    1272    1215    1269    1335       1    1269    1332    1275    1338       1
    1266    1212    1263    1326       1    1266    1212    1263    1329       1
    1263    1326    1257    1323       1    1260    1209    1257    1323       1
    1260    1209    1257    1326       1    1257    1326    1263    1329       1
    1254    1314    1248    1317       1    1251    1206    1254    1314       1
    1251    1206    1254    1320       1    1248    1314    1254    1320       1
    1245    1203    1248    1314       1    1245    1203    1248    1317       1
    1242    1200    1239    1305       1    1242    1200    1239    1311       1
    1239    1305    1233    1308       1    1236    1197    1233    1305       1
    1236    1197    1233    1308       1    1233    1305    1239    1311       1
    1230    1191    1227    1296       1    1227    1191    1230    1302       1
    1224    1188    1221    1284       1    1221    1188    1224    1290       1
    1218    1182    1215    1272       1    1215    1182    1218    1278       1
    1212    1179    1209    1260       1    1209    1179    1212    1266       1
    1206    1176    1203    1245       1    1203    1176    1206    1251       1
    1200    1173    1197    1236       1    1197    1173    1200    1242       1
    1191    1227    1293    1353       1    1191    1230    1299    1356       1
    1188    1221    1281    1344       1    1188    1224    1287    1347       1
    1182    1215    1269    1335       1    1182    1218    1275    1338       1
    1179    1209    1257    1323       1    1179    1212    1263    1329       1
    1176    1203    1248    1317       1    1176    1206    1254    1320       1
    1173    1197    1233    1308       1    1173    1200    1239    1311       1
    1170    1137    1167    1194       1    1164    1134    1167    1194       1
    1164    1188    1221    1284       1    1164    1188    1224    1290       1
    1164    1191    1227    1296       1    1164    1191    1230    1302       1
    1161    1128    1158    1185       1    1155    1122    1158    1185       1
    1155    1179    1209    1260       1    1155    1179    1212    1266       1
    1155    1182    1215    1272       1    1155    1182    1218    1278       1
    1152    1173    1197    1236       1    1152    1173    1200    1242       1
    1152    1176    1203    1245       1    1152    1176    1206    1251       1
    1149    1110    1116    1152       1    1134    1167    1137    1170       1
    1131    1101    1134    1164       1    1131    1101    1134    1167       1
    1125    1095    1122    1155       1    1125    1095    1122    1158       1
    1122    1158    1128    1161       1    1119    1092    1116    1152       1
    1113    1089    1110    1116       1    1113    1089    1110    1149       1
    1110    1116    1092    1119       1    1104    1083    1101    1131       1
    1104    1098    1128    1161       1    1104    1137    1167    1194       1
    1101    1134    1167    1194       1    1098    1080    1095    1125       1
    1098    1104    1137    1170       1    1098    1128    1158    1185       1
    1095    1122    1158    1185       1    1092    1116    1110    1149       1
    1083    1104    1137    1170       1    1080    1098    1128    1161       1
    1077    1074    1089    1113       1    1074    1077    1092    1119       1
    1074    1089    1110    1149       1    1071    1050    1065    1086       1
    1068    1044    1065    1086       1    1065    1086    1107    1140       2
    1065    1086    1107    1143       2    1065    1086    1107    1146       2
    1062    1038    1056    1074       1    1059    1077    1092    1119       1
    1059    1080    1095    1125       1    1059    1083    1101    1131       1
    1056    1074    1089    1113       1    1053    1029    1050    1065       1
    1053    1029    1050    1071       1    1050    1065    1044    1068       1
    1047    1026    1044    1065       1    1047    1026    1044    1068       1
    1044    1065    1050    1071       1    1041    1023    1038    1056       1
    1041    1023    1038    1062       1    1035    1020    1032    1056       1
    1035    1020    1032    1059       1    1032    1056    1038    1062       1
    1029    1017    1026    1047       1    1026    1017    1029    1053       1
    1023    1014    1020    1035       1    1020    1014    1023    1041       1
    1017    1026    1044    1068       1    1017    1029    1050    1071       1
    1014    1023    1038    1062       1    1011    1014    1020    1035       1
    1011    1014    1023    1041       1    1011    1017    1026    1047       1
    1011    1017    1029    1053       1    1008     996    1002    1011       1
    1005     990    1002    1011       1     999     978     996    1002       1
     999     978     996    1008       1     996    1002     990    1005       1
     993     975     990    1002       1     993     975     990    1005       1
     990    1002     996    1008       1     978     969     975     993       1
     975     969     978     999       1     969     966     972     981       2
     969     966     972     984       2     969     966     972     987       2
     969     975     990    1005       1     969     978     996    1008       1
     966     969     975     993       1     966     969     978     999       1
    1839    1782    1833    1857       1    1836    1776    1833    1857       1
    1833    1857    1875    1923       2    1833    1857    1875    1926       2
    1833    1857    1875    1929       2    1830    1770    1824    1854       1
    1827    1764    1824    1854       1    1824    1854    1872    1914       2
    1824    1854    1872    1917       2    1824    1854    1872    1920       2
    1821    1758    1815    1851       1    1818    1752    1815    1851       1
    1815    1851    1869    1905       2    1815    1851    1869    1908       2
    1815    1851    1869    1911       2    1812    1746    1809    1848       1
    1809    1848    1866    1896       2    1809    1848    1866    1899       2
    1809    1848    1866    1902       2    1806    1740    1809    1848       1
    1803    1737    1797    1845       1    1800    1731    1797    1845       1
    1797    1845    1863    1887       2    1797    1845    1863    1890       2
    1797    1845    1863    1893       2    1794    1722    1788    1842       1
    1791    1716    1788    1842       1    1788    1842    1860    1878       2
    1788    1842    1860    1881       2    1788    1842    1860    1884       2
    1785    1713    1782    1833       1    1785    1713    1782    1839       1
    1782    1833    1776    1836       1    1779    1710    1776    1833       1
    1779    1710    1776    1836       1    1776    1833    1782    1839       1
    1773    1707    1770    1824       1    1773    1707    1770    1830       1
    1770    1824    1764    1827       1    1767    1704    1764    1824       1
    1767    1704    1764    1827       1    1764    1824    1770    1830       1
    1761    1701    1758    1815       1    1761    1701    1758    1821       1
    1758    1815    1752    1818       1    1755    1698    1752    1815       1
    1755    1698    1752    1818       1    1752    1815    1758    1821       1
    1749    1695    1746    1809       1    1749    1695    1746    1812       1
    1746    1809    1740    1806       1    1743    1692    1740    1806       1
    1743    1692    1740    1809       1    1740    1809    1746    1812       1
    1737    1797    1731    1800       1    1734    1689    1737    1797       1
    1734    1689    1737    1803       1    1731    1797    1737    1803       1
    1728    1686    1731    1797       1    1728    1686    1731    1800       1
    1725    1683    1722    1788       1    1725    1683    1722    1794       1
    1722    1788    1716    1791       1    1719    1680    1716    1788       1
    1719    1680    1716    1791       1    1716    1788    1722    1794       1
    1713    1674    1710    1779       1    1710    1674    1713    1785       1
    1707    1671    1704    1767       1    1704    1671    1707    1773       1
    1701    1665    1698    1755       1    1698    1665    1701    1761       1
    1695    1662    1692    1743       1    1692    1662    1695    1749       1
    1689    1659    1686    1728       1    1686    1659    1689    1734       1
    1683    1656    1680    1719       1    1680    1656    1683    1725       1
    1674    1710    1776    1836       1    1674    1713    1782    1839       1
    1671    1704    1764    1827       1    1671    1707    1770    1830       1
    1665    1698    1752    1818       1    1665    1701    1758    1821       1
    1662    1692    1740    1806       1    1662    1695    1746    1812       1
    1659    1686    1731    1800       1    1659    1689    1737    1803       1
    1656    1680    1716    1791       1    1656    1683    1722    1794       1
    1653    1620    1650    1677       1    1647    1617    1650    1677       1
    1647    1671    1704    1767       1    1647    1671    1707    1773       1
    1647    1674    1710    1779       1    1647    1674    1713    1785       1
    1644    1611    1641    1668       1    1638    1605    1641    1668       1
    1638    1662    1692    1743       1    1638    1662    1695    1749       1
    1638    1665    1698    1755       1    1638    1665    1701    1761       1
    1635    1656    1680    1719       1    1635    1656    1683    1725       1
    1635    1659    1686    1728       1    1635    1659    1689    1734       1
    1632    1593    1599    1635       1    1617    1650    1620    1653       1
    1614    1584    1617    1647       1    1614    1584    1617    1650       1
    1608    1578    1605    1638       1    1608    1578    1605    1641       1
    1605    1641    1611    1644       1    1602    1575    1599    1635       1
    1596    1572    1593    1599       1    1596    1572    1593    1632       1
    1593    1599    1575    1602       1    1587    1566    1584    1614       1
    1587    1581    1611    1644       1    1587    1620    1650    1677       1
    1584    1617    1650    1677       1    1581    1563    1578    1608       1
    1581    1587    1620    1653       1    1581    1611    1641    1668       1
    1578    1605    1641    1668       1    1575    1599    1593    1632       1
    1566    1587    1620    1653       1    1563    1581    1611    1644       1
    1560    1557    1572    1596       1    1557    1560    1575    1602       1
    1557    1572    1593    1632       1    1554    1533    1548    1569       1
    1551    1527    1548    1569       1    1548    1569    1590    1623       2
    1548    1569    1590    1626       2    1548    1569    1590    1629       2
    1545    1521    1539    1557       1    1542    1560    1575    1602       1
    1542    1563    1578    1608       1    1542    1566    1584    1614       1
    1539    1557    1572    1596       1    1536    1512    1533    1548       1
    1536    1512    1533    1554       1    1533    1548    1527    1551       1
    1530    1509    1527    1548       1    1530    1509    1527    1551       1
    1527    1548    1533    1554       1    1524    1506    1521    1539       1
    1524    1506    1521    1545       1    1518    1503    1515    1539       1
    1518    1503    1515    1542       1    1515    1539    1521    1545       1
    1512    1500    1509    1530       1    1509    1500    1512    1536       1
    1506    1497    1503    1518       1    1503    1497    1506    1524       1
    1500    1509    1527    1551       1    1500    1512    1533    1554       1
    1497    1506    1521    1545       1    1494    1497    1503    1518       1
    1494    1497    1506    1524       1    1494    1500    1509    1530       1
    1494    1500    1512    1536       1    1491    1479    1485    1494       1
    1488    1473    1485    1494       1    1482    1461    1479    1485       1
    1482    1461    1479    1491       1    1479    1485    1473    1488       1
    1476    1458    1473    1485       1    1476    1458    1473    1488       1
    1473    1485    1479    1491       1    1461    1452    1458    1476       1
    1458    1452    1461    1482       1    1452    1449    1455    1464       2
    1452    1449    1455    1467       2    1452    1449    1455    1470       2
    1452    1458    1473    1488       1    1452    1461    1479    1491       1
    1449    1452    1458    1476       1    1449    1452    1461    1482       1
    2322    2265    2316    2340       1    2319    2259    2316    2340       1
    2316    2340    2358    2406       2    2316    2340    2358    2409       2
    2316    2340    2358    2412       2    2313    2253    2307    2337       1
    2310    2247    2307    2337       1    2307    2337    2355    2397       2
    2307    2337    2355    2400       2    2307    2337    2355    2403       2
    2304    2241    2298    2334       1    2301    2235    2298    2334       1
    2298    2334    2352    2388       2    2298    2334    2352    2391       2
    2298    2334    2352    2394       2    2295    2229    2292    2331       1
    2292    2331    2349    2379       2    2292    2331    2349    2382       2
    2292    2331    2349    2385       2    2289    2223    2292    2331       1
    2286    2220    2280    2328       1    2283    2214    2280    2328       1
    2280    2328    2346    2370       2    2280    2328    2346    2373       2
    2280    2328    2346    2376       2    2277    2205    2271    2325       1
    2274    2199    2271    2325       1    2271    2325    2343    2361       2
    2271    2325    2343    2364       2    2271    2325    2343    2367       2
    2268    2196    2265    2316       1    2268    2196    2265    2322       1
    2265    2316    2259    2319       1    2262    2193    2259    2316       1
    2262    2193    2259    2319       1    2259    2316    2265    2322       1
    2256    2190    2253    2307       1    2256    2190    2253    2313       1
    2253    2307    2247    2310       1    2250    2187    2247    2307       1
    2250    2187    2247    2310       1    2247    2307    2253    2313       1
    2244    2184    2241    2298       1    2244    2184    2241    2304       1
    2241    2298    2235    2301       1    2238    2181    2235    2298       1
    2238    2181    2235    2301       1    2235    2298    2241    2304       1
    2232    2178    2229    2292       1    2232    2178    2229    2295       1
    2229    2292    2223    2289       1    2226    2175    2223    2289       1
    2226    2175    2223    2292       1    2223    2292    2229    2295       1
    2220    2280    2214    2283       1    2217    2172    2220    2280       1
    2217    2172    2220    2286       1    2214    2280    2220    2286       1
    2211    2169    2214    2280       1    2211    2169    2214    2283       1
    2208    2166    2205    2271       1    2208    2166    2205    2277       1
    2205    2271    2199    2274       1    2202    2163    2199    2271       1
    2202    2163    2199    2274       1    2199    2271    2205    2277       1
    2196    2157    2193    2262       1    2193    2157    2196    2268       1
    2190    2154    2187    2250       1    2187    2154    2190    2256       1
    2184    2148    2181    2238       1    2181    2148    2184    2244       1
    2178    2145    2175    2226       1    2175    2145    2178    2232       1
    2172    2142    2169    2211       1    2169    2142    2172    2217       1
    2166    2139    2163    2202       1    2163    2139    2166    2208       1
    2157    2193    2259    2319       1    2157    2196    2265    2322       1
    2154    2187    2247    2310       1    2154    2190    2253    2313       1
    2148    2181    2235    2301       1    2148    2184    2241    2304       1
    2145    2175    2223    2289       1    2145    2178    2229    2295       1
    2142    2169    2214    2283       1    2142    2172    2220    2286       1
    2139    2163    2199    2274       1    2139    2166    2205    2277       1
    2136    2103    2133    2160       1    2130    2100    2133    2160       1
    2130    2154    2187    2250       1    2130    2154    2190    2256       1
    2130    2157    2193    2262       1    2130    2157    2196    2268       1
    2127    2094    2124    2151       1    2121    2088    2124    2151       1
    2121    2145    2175    2226       1    2121    2145    2178    2232       1
    2121    2148    2181    2238       1    2121    2148    2184    2244       1
    2118    2139    2163    2202       1    2118    2139    2166    2208       1
    2118    2142    2169    2211       1    2118    2142    2172    2217       1
    2115    2076    2082    2118       1    2100    2133    2103    2136       1
    2097    2067    2100    2130       1    2097    2067    2100    2133       1
    2091    2061    2088    2121       1    2091    2061    2088    2124       1
    2088    2124    2094    2127       1    2085    2058    2082    2118       1
    2079    2055    2076    2082       1    2079    2055    2076    2115       1
    2076    2082    2058    2085       1    2070    2049    2067    2097       1
    2070    2064    2094    2127       1    2070    2103    2133    2160       1
    2067    2100    2133    2160       1    2064    2046    2061    2091       1
    2064    2070    2103    2136       1    2064    2094    2124    2151       1
    2061    2088    2124    2151       1    2058    2082    2076    2115       1
    2049    2070    2103    2136       1    2046    2064    2094    2127       1
    2043    2040    2055    2079       1    2040    2043    2058    2085       1
    2040    2055    2076    2115       1    2037    2016    2031    2052       1
    2034    2010    2031    2052       1    2031    2052    2073    2106       2
    2031    2052    2073    2109       2    2031    2052    2073    2112       2
    2028    2004    2022    2040       1    2025    2043    2058    2085       1
    2025    2046    2061    2091       1    2025    2049    2067    2097       1
    2022    2040    2055    2079       1    2019    1995    2016    2031       1
    2019    1995    2016    2037       1    2016    2031    2010    2034       1
    2013    1992    2010    2031       1    2013    1992    2010    2034       1
    2010    2031    2016    2037       1    2007    1989    2004    2022       1
    2007    1989    2004    2028       1    2001    1986    1998    2022       1
    2001    1986    1998    2025       1    1998    2022    2004    2028       1
    1995    1983    1992    2013       1    1992    1983    1995    2019       1
    1989    1980    1986    2001       1    1986    1980    1989    2007       1
    1983    1992    2010    2034       1    1983    1995    2016    2037       1
    1980    1989    2004    2028       1    1977    1980    1986    2001       1
    1977    1980    1989    2007       1    1977    1983    1992    2013       1
    1977    1983    1995    2019       1    1974    1962    1968    1977       1
    1971    1956    1968    1977       1    1965    1944    1962    1968       1
    1965    1944    1962    1974       1    1962    1968    1956    1971       1
    1959    1941    1956    1968       1    1959    1941    1956    1971       1
    1956    1968    1962    1974       1    1944    1935    1941    1959       1
    1941    1935    1944    1965       1    1935    1932    1938    1947       2
    1935    1932    1938    1950       2    1935    1932    1938    1953       2
    1935    1941    1956    1971       1    1935    1944    1962    1974       1
    1932    1935    1941    1959       1    1932    1935    1944    1965       1
    2805    2748    2799    2823       1    2802    2742    2799    2823       1
    2799    2823    2841    2889       2    2799    2823    2841    2892       2
    2799    2823    2841    2895       2    2796    2736    2790    2820       1
    2793    2730    2790    2820       1    2790    2820    2838    2880       2
    2790    2820    2838    2883       2    2790    2820    2838    2886       2
    2787    2724    2781    2817       1    2784    2718    2781    2817       1
    2781    2817    2835    2871       2    2781    2817    2835    2874       2
    2781    2817    2835    2877       2    2778    2712    2775    2814       1
    2775    2814    2832    2862       2    2775    2814    2832    2865       2
    2775    2814    2832    2868       2    2772    2706    2775    2814       1
    2769    2703    2763    2811       1    2766    2697    2763    2811       1
    2763    2811    2829    2853       2    2763    2811    2829    2856       2
    2763    2811    2829    2859       2    2760    2688    2754    2808       1
    2757    2682    2754    2808       1    2754    2808    2826    2844       2
    2754    2808    2826    2847       2    2754    2808    2826    2850       2
    2751    2679    2748    2799       1    2751    2679    2748    2805       1
    2748    2799    2742    2802       1    2745    2676    2742    2799       1
    2745    2676    2742    2802       1    2742    2799    2748    2805       1
    2739    2673    2736    2790       1    2739    2673    2736    2796       1
    2736    2790    2730    2793       1    2733    2670    2730    2790       1
    2733    2670    2730    2793       1    2730    2790    2736    2796       1
    2727    2667    2724    2781       1    2727    2667    2724    2787       1
    2724    2781    2718    2784       1    2721    2664    2718    2781       1
    2721    2664    2718    2784       1    2718    2781    2724    2787       1
    2715    2661    2712    2775       1    2715    2661    2712    2778       1
    2712    2775    2706    2772       1    2709    2658    2706    2772       1
    2709    2658    2706    2775       1    2706    2775    2712    2778       1
    2703    2763    2697    2766       1    2700    2655    2703    2763       1
    2700    2655    2703    2769       1    2697    2763    2703    2769       1
    2694    2652    2697    2763       1    2694    2652    2697    2766       1
    2691    2649    2688    2754       1    2691    2649    2688    2760       1
    2688    2754    2682    2757       1    2685    2646    2682    2754       1
    2685    2646    2682    2757       1    2682    2754    2688    2760       1
    2679    2640    2676    2745       1    2676    2640    2679    2751       1
    2673    2637    2670    2733       1    2670    2637    2673    2739       1
    2667    2631    2664    2721       1    2664    2631    2667    2727       1
    2661    2628    2658    2709       1    2658    2628    2661    2715       1
    2655    2625    2652    2694       1    2652    2625    2655    2700       1
    2649    2622    2646    2685       1    2646    2622    2649    2691       1
    2640    2676    2742    2802       1    2640    2679    2748    2805       1
    2637    2670    2730    2793       1    2637    2673    2736    2796       1
    2631    2664    2718    2784       1    2631    2667    2724    2787       1
    2628    2658    2706    2772       1    2628    2661    2712    2778       1
    2625    2652    2697    2766       1    2625    2655    2703    2769       1
    2622    2646    2682    2757       1    2622    2649    2688    2760       1
    2619    2586    2616    2643       1    2613    2583    2616    2643       1
    2613    2637    2670    2733       1    2613    2637    2673    2739       1
    2613    2640    2676    2745       1    2613    2640    2679    2751       1
    2610    2577    2607    2634       1    2604    2571    2607    2634       1
    2604    2628    2658    2709       1    2604    2628    2661    2715       1
    2604    2631    2664    2721       1    2604    2631    2667    2727       1
    2601    2622    2646    2685       1    2601    2622    2649    2691       1
    2601    2625    2652    2694       1    2601    2625    2655    2700       1
    2598    2559    2565    2601       1    2583    2616    2586    2619       1
    2580    2550    2583    2613       1    2580    2550    2583    2616       1
    2574    2544    2571    2604       1    2574    2544    2571    2607       1
    2571    2607    2577    2610       1    2568    2541    2565    2601       1
    2562    2538    2559    2565       1    2562    2538    2559    2598       1
    2559    2565    2541    2568       1    2553    2532    2550    2580       1
    2553    2547    2577    2610       1    2553    2586    2616    2643       1
    2550    2583    2616    2643       1    2547    2529    2544    2574       1
    2547    2553    2586    2619       1    2547    2577    2607    2634       1
    2544    2571    2607    2634       1    2541    2565    2559    2598       1
    2532    2553    2586    2619       1    2529    2547    2577    2610       1
    2526    2523    2538    2562       1    2523    2526    2541    2568       1
    2523    2538    2559    2598       1    2520    2499    2514    2535       1
    2517    2493    2514    2535       1    2514    2535    2556    2589       2
    2514    2535    2556    2592       2    2514    2535    2556    2595       2
    2511    2487    2505    2523       1    2508    2526    2541    2568       1
    2508    2529    2544    2574       1    2508    2532    2550    2580       1
    2505    2523    2538    2562       1    2502    2478    2499    2514       1
    2502    2478    2499    2520       1    2499    2514    2493    2517       1
    2496    2475    2493    2514       1    2496    2475    2493    2517       1
    2493    2514    2499    2520       1    2490    2472    2487    2505       1
    2490    2472    2487    2511       1    2484    2469    2481    2505       1
    2484    2469    2481    2508       1    2481    2505    2487    2511       1
    2478    2466    2475    2496       1    2475    2466    2478    2502       1
    2472    2463    2469    2484       1    2469    2463    2472    2490       1
    2466    2475    2493    2517       1    2466    2478    2499    2520       1
    2463    2472    2487    2511       1    2460    2463    2469    2484       1
    2460    2463    2472    2490       1    2460    2466    2475    2496       1
    2460    2466    2478    2502       1    2457    2445    2451    2460       1
    2454    2439    2451    2460       1    2448    2427    2445    2451       1
    2448    2427    2445    2457       1    2445    2451    2439    2454       1
    2442    2424    2439    2451       1    2442    2424    2439    2454       1
    2439    2451    2445    2457       1    2427    2418    2424    2442       1
    2424    2418    2427    2448       1    2418    2415    2421    2430       2
    2418    2415    2421    2433       2    2418    2415    2421    2436       2
    2418    2424    2439    2454       1    2418    2427    2445    2457       1
    2415    2418    2424    2442       1    2415    2418    2427    2448       1
    3288    3231    3282    3306       1    3285    3225    3282    3306       1
    3282    3306    3324    3372       2    3282    3306    3324    3375       2
    3282    3306    3324    3378       2    3279    3219    3273    3303       1
    3276    3213    3273    3303       1    3273    3303    3321    3363       2
    3273    3303    3321    3366       2    3273    3303    3321    3369       2
    3270    3207    3264    3300       1    3267    3201    3264    3300       1
    3264    3300    3318    3354       2    3264    3300    3318    3357       2
    3264    3300    3318    3360       2    3261    3195    3258    3297       1
    3258    3297    3315    3345       2    3258    3297    3315    3348       2
    3258    3297    3315    3351       2    3255    3189    3258    3297       1
    3252    3186    3246    3294       1    3249    3180    3246    3294       1
    3246    3294    3312    3336       2    3246    3294    3312    3339       2
    3246    3294    3312    3342       2    3243    3171    3237    3291       1
    3240    3165    3237    3291       1    3237    3291    3309    3327       2
    3237    3291    3309    3330       2    3237    3291    3309    3333       2
    3234    3162    3231    3282       1    3234    3162    3231    3288       1
    3231    3282    3225    3285       1    3228    3159    3225    3282       1
    3228    3159    3225    3285       1    3225    3282    3231    3288       1
    3222    3156    3219    3273       1    3222    3156    3219    3279       1
    3219    3273    3213    3276       1    3216    3153    3213    3273       1
    3216    3153    3213    3276       1    3213    3273    3219    3279       1
    3210    3150    3207    3264       1    3210    3150    3207    3270       1
    3207    3264    3201    3267       1    3204    3147    3201    3264       1
    3204    3147    3201    3267       1    3201    3264    3207    3270       1
    3198    3144    3195    3258       1    3198    3144    3195    3261       1
    3195    3258    3189    3255       1    3192    3141    3189    3255       1
    3192    3141    3189    3258       1    3189    3258    3195    3261       1
    3186    3246    3180    3249       1    3183    3138    3186    3246       1
    3183    3138    3186    3252       1    3180    3246    3186    3252       1
    3177    3135    3180    3246       1    3177    3135    3180    3249       1
    3174    3132    3171    3237       1    3174    3132    3171    3243       1
    3171    3237    3165    3240       1    3168    3129    3165    3237       1
    3168    3129    3165    3240       1    3165    3237    3171    3243       1
    3162    3123    3159    3228       1    3159    3123    3162    3234       1
    3156    3120    3153    3216       1    3153    3120    3156    3222       1
    3150    3114    3147    3204       1    3147    3114    3150    3210       1
    3144    3111    3141    3192       1    3141    3111    3144    3198       1
    3138    3108    3135    3177       1    3135    3108    3138    3183       1
    3132    3105    3129    3168       1    3129    3105    3132    3174       1
    3123    3159    3225    3285       1    3123    3162    3231    3288       1
    3120    3153    3213    3276       1    3120    3156    3219    3279       1
    3114    3147    3201    3267       1    3114    3150    3207    3270       1
    3111    3141    3189    3255       1    3111    3144    3195    3261       1
    3108    3135    3180    3249       1    3108    3138    3186    3252       1
    3105    3129    3165    3240       1    3105    3132    3171    3243       1
    3102    3069    3099    3126       1    3096    3066    3099    3126       1
    3096    3120    3153    3216       1    3096    3120    3156    3222       1
    3096    3123    3159    3228       1    3096    3123    3162    3234       1
    3093    3060    3090    3117       1    3087    3054    3090    3117       1
    3087    3111    3141    3192       1    3087    3111    3144    3198       1
    3087    3114    3147    3204       1    3087    3114    3150    3210       1
    3084    3105    3129    3168       1    3084    3105    3132    3174       1
    3084    3108    3135    3177       1    3084    3108    3138    3183       1
    3081    3042    3048    3084       1    3066    3099    3069    3102       1
    3063    3033    3066    3096       1    3063    3033    3066    3099       1
    3057    3027    3054    3087       1    3057    3027    3054    3090       1
    3054    3090    3060    3093       1    3051    3024    3048    3084       1
    3045    3021    3042    3048       1    3045    3021    3042    3081       1
    3042    3048    3024    3051       1    3036    3015    3033    3063       1
    3036    3030    3060    3093       1    3036    3069    3099    3126       1
    3033    3066    3099    3126       1    3030    3012    3027    3057       1
    3030    3036    3069    3102       1    3030    3060    3090    3117       1
    3027    3054    3090    3117       1    3024    3048    3042    3081       1
    3015    3036    3069    3102       1    3012    3030    3060    3093       1
    3009    3006    3021    3045       1    3006    3009    3024    3051       1
    3006    3021    3042    3081       1    3003    2982    2997    3018       1
    3000    2976    2997    3018       1    2997    3018    3039    3072       2
    2997    3018    3039    3075       2    2997    3018    3039    3078       2
    2994    2970    2988    3006       1    2991    3009    3024    3051       1
    2991    3012    3027    3057       1    2991    3015    3033    3063       1
    2988    3006    3021    3045       1    2985    2961    2982    2997       1
    2985    2961    2982    3003       1    2982    2997    2976    3000       1
    2979    2958    2976    2997       1    2979    2958    2976    3000       1
    2976    2997    2982    3003       1    2973    2955    2970    2988       1
    2973    2955    2970    2994       1    2967    2952    2964    2988       1
    2967    2952    2964    2991       1    2964    2988    2970    2994       1
    2961    2949    2958    2979       1    2958    2949    2961    2985       1
    2955    2946    2952    2967       1    2952    2946    2955    2973       1
    2949    2958    2976    3000       1    2949    2961    2982    3003       1
    2946    2955    2970    2994       1    2943    2946    2952    2967       1
    2943    2946    2955    2973       1    2943    2949    2958    2979       1
    2943    2949    2961    2985       1    2940    2928    2934    2943       1
    2937    2922    2934    2943       1    2931    2910    2928    2934       1
    2931    2910    2928    2940       1    2928    2934    2922    2937       1
    2925    2907    2922    2934       1    2925    2907    2922    2937       1
    2922    2934    2928    2940       1    2910    2901    2907    2925       1
    2907    2901    2910    2931       1    2901    2898    2904    2913       2
    2901    2898    2904    2916       2    2901    2898    2904    2919       2
    2901    2907    2922    2937       1    2901    2910    2928    2940       1
    2898    2901    2907    2925       1    2898    2901    2910    2931       1
    3771    3714    3765    3789       1    3768    3708    3765    3789       1
    3765    3789    3807    3855       2    3765    3789    3807    3858       2
    3765    3789    3807    3861       2    3762    3702    3756    3786       1
    3759    3696    3756    3786       1    3756    3786    3804    3846       2
    3756    3786    3804    3849       2    3756    3786    3804    3852       2
    3753    3690    3747    3783       1    3750    3684    3747    3783       1
    3747    3783    3801    3837       2    3747    3783    3801    3840       2
    3747    3783    3801    3843       2    3744    3678    3741    3780       1
    3741    3780    3798    3828       2    3741    3780    3798    3831       2
    3741    3780    3798    3834       2    3738    3672    3741    3780       1
    3735    3669    3729    3777       1    3732    3663    3729    3777       1
    3729    3777    3795    3819       2    3729    3777    3795    3822       2
    3729    3777    3795    3825       2    3726    3654    3720    3774       1
    3723    3648    3720    3774       1    3720    3774    3792    3810       2
    3720    3774    3792    3813       2    3720    3774    3792    3816       2
    3717    3645    3714    3765       1    3717    3645    3714    3771       1
    3714    3765    3708    3768       1    3711    3642    3708    3765       1
    3711    3642    3708    3768       1    3708    3765    3714    3771       1
    3705    3639    3702    3756       1    3705    3639    3702    3762       1
    3702    3756    3696    3759       1    3699    3636    3696    3756       1
    3699    3636    3696    3759       1    3696    3756    3702    3762       1
    3693    3633    3690    3747       1    3693    3633    3690    3753       1
    3690    3747    3684    3750       1    3687    3630    3684    3747       1
    3687    3630    3684    3750       1    3684    3747    3690    3753       1
    3681    3627    3678    3741       1    3681    3627    3678    3744       1
    3678    3741    3672    3738       1    3675    3624    3672    3738       1
    3675    3624    3672    3741       1    3672    3741    3678    3744       1
    3669    3729    3663    3732       1    3666    3621    3669    3729       1
    3666    3621    3669    3735       1    3663    3729    3669    3735       1
    3660    3618    3663    3729       1    3660    3618    3663    3732       1
    3657    3615    3654    3720       1    3657    3615    3654    3726       1
    3654    3720    3648    3723       1    3651    3612    3648    3720       1
    3651    3612    3648    3723       1    3648    3720    3654    3726       1
    3645    3606    3642    3711       1    3642    3606    3645    3717       1
    3639    3603    3636    3699       1    3636    3603    3639    3705       1
    3633    3597    3630    3687       1    3630    3597    3633    3693       1
    3627    3594    3624    3675       1    3624    3594    3627    3681       1
    3621    3591    3618    3660       1    3618    3591    3621    3666       1
    3615    3588    3612    3651       1    3612    3588    3615    3657       1
    3606    3642    3708    3768       1    3606    3645    3714    3771       1
    3603    3636    3696    3759       1    3603    3639    3702    3762       1
    3597    3630    3684    3750       1    3597    3633    3690    3753       1
    3594    3624    3672    3738       1    3594    3627    3678    3744       1
    3591    3618    3663    3732       1    3591    3621    3669    3735       1
    3588    3612    3648    3723       1    3588    3615    3654    3726       1
    3585    3552    3582    3609       1    3579    3549    3582    3609       1
    3579    3603    3636    3699       1    3579    3603    3639    3705       1
    3579    3606    3642    3711       1    3579    3606    3645    3717       1
    3576    3543    3573    3600       1    3570    3537    3573    3600       1
    3570    3594    3624    3675       1    3570    3594    3627    3681       1
    3570    3597    3630    3687       1    3570    3597    3633    3693       1
    3567    3588    3612    3651       1    3567    3588    3615    3657       1
    3567    3591    3618    3660       1    3567    3591    3621    3666       1
    3564    3525    3531    3567       1    3549    3582    3552    3585       1
    3546    3516    3549    3579       1    3546    3516    3549    3582       1
    3540    3510    3537    3570       1    3540    3510    3537    3573       1
    3537    3573    3543    3576       1    3534    3507    3531    3567       1
    3528    3504    3525    3531       1    3528    3504    3525    3564       1
    3525    3531    3507    3534       1    3519    3498    3516    3546       1
    3519    3513    3543    3576       1    3519    3552    3582    3609       1
    3516    3549    3582    3609       1    3513    3495    3510    3540       1
    3513    3519    3552    3585       1    3513    3543    3573    3600       1
    3510    3537    3573    3600       1    3507    3531    3525    3564       1
    3498    3519    3552    3585       1    3495    3513    3543    3576       1
    3492    3489    3504    3528       1    3489    3492    3507    3534       1
    3489    3504    3525    3564       1    3486    3465    3480    3501       1
    3483    3459    3480    3501       1    3480    3501    3522    3555       2
    3480    3501    3522    3558       2    3480    3501    3522    3561       2
    3477    3453    3471    3489       1    3474    3492    3507    3534       1
    3474    3495    3510    3540       1    3474    3498    3516    3546       1
    3471    3489    3504    3528       1    3468    3444    3465    3480       1
    3468    3444    3465    3486       1    3465    3480    3459    3483       1
    3462    3441    3459    3480       1    3462    3441    3459    3483       1
    3459    3480    3465    3486       1    3456    3438    3453    3471       1
    3456    3438    3453    3477       1    3450    3435    3447    3471       1
    3450    3435    3447    3474       1    3447    3471    3453    3477       1
    3444    3432    3441    3462       1    3441    3432    3444    3468       1
    3438    3429    3435    3450       1    3435    3429    3438    3456       1
    3432    3441    3459    3483       1    3432    3444    3465    3486       1
    3429    3438    3453    3477       1    3426    3429    3435    3450       1
    3426    3429    3438    3456       1    3426    3432    3441    3462       1
    3426    3432    3444    3468       1    3423    3411    3417    3426       1
    3420    3405    3417    3426       1    3414    3393    3411    3417       1
    3414    3393    3411    3423       1    3411    3417    3405    3420       1
    3408    3390    3405    3417       1    3408    3390    3405    3420       1
    3405    3417    3411    3423       1    3393    3384    3390    3408       1
    3390    3384    3393    3414       1    3384    3381    3387    3396       2
    3384    3381    3387    3399       2    3384    3381    3387    3402       2
    3384    3390    3405    3420       1    3384    3393    3411    3423       1
    3381    3384    3390    3408       1    3381    3384    3393    3414       1
    4254    4197    4248    4272       1    4251    4191    4248    4272       1
    4248    4272    4290    4338       2    4248    4272    4290    4341       2
    4248    4272    4290    4344       2    4245    4185    4239    4269       1
    4242    4179    4239    4269       1    4239    4269    4287    4329       2
    4239    4269    4287    4332       2    4239    4269    4287    4335       2
    4236    4173    4230    4266       1    4233    4167    4230    4266       1
    4230    4266    4284    4320       2    4230    4266    4284    4323       2
    4230    4266    4284    4326       2    4227    4161    4224    4263       1
    4224    4263    4281    4311       2    4224    4263    4281    4314       2
    4224    4263    4281    4317       2    4221    4155    4224    4263       1
    4218    4152    4212    4260       1    4215    4146    4212    4260       1
    4212    4260    4278    4302       2    4212    4260    4278    4305       2
    4212    4260    4278    4308       2    4209    4137    4203    4257       1
    4206    4131    4203    4257       1    4203    4257    4275    4293       2
    4203    4257    4275    4296       2    4203    4257    4275    4299       2
    4200    4128    4197    4248       1    4200    4128    4197    4254       1
    4197    4248    4191    4251       1    4194    4125    4191    4248       1
    4194    4125    4191    4251       1    4191    4248    4197    4254       1
    4188    4122    4185    4239       1    4188    4122    4185    4245       1
    4185    4239    4179    4242       1    4182    4119    4179    4239       1
    4182    4119    4179    4242       1    4179    4239    4185    4245       1
    4176    4116    4173    4230       1    4176    4116    4173    4236       1
    4173    4230    4167    4233       1    4170    4113    4167    4230       1
    4170    4113    4167    4233       1    4167    4230    4173    4236       1
    4164    4110    4161    4224       1    4164    4110    4161    4227       1
    4161    4224    4155    4221       1    4158    4107    4155    4221       1
    4158    4107    4155    4224       1    4155    4224    4161    4227       1
    4152    4212    4146    4215       1    4149    4104    4152    4212       1
    4149    4104    4152    4218       1    4146    4212    4152    4218       1
    4143    4101    4146    4212       1    4143    4101    4146    4215       1
    4140    4098    4137    4203       1    4140    4098    4137    4209       1
    4137    4203    4131    4206       1    4134    4095    4131    4203       1
    4134    4095    4131    4206       1    4131    4203    4137    4209       1
    4128    4089    4125    4194       1    4125    4089    4128    4200       1
    4122    4086    4119    4182       1    4119    4086    4122    4188       1
    4116    4080    4113    4170       1    4113    4080    4116    4176       1
    4110    4077    4107    4158       1    4107    4077    4110    4164       1
    4104    4074    4101    4143       1    4101    4074    4104    4149       1
    4098    4071    4095    4134       1    4095    4071    4098    4140       1
    4089    4125    4191    4251       1    4089    4128    4197    4254       1
    4086    4119    4179    4242       1    4086    4122    4185    4245       1
    4080    4113    4167    4233       1    4080    4116    4173    4236       1
    4077    4107    4155    4221       1    4077    4110    4161    4227       1
    4074    4101    4146    4215       1    4074    4104    4152    4218       1
    4071    4095    4131    4206       1    4071    4098    4137    4209       1
    4068    4035    4065    4092       1    4062    4032    4065    4092       1
    4062    4086    4119    4182       1    4062    4086    4122    4188       1
    4062    4089    4125    4194       1    4062    4089    4128    4200       1
    4059    4026    4056    4083       1    4053    4020    4056    4083       1
    4053    4077    4107    4158       1    4053    4077    4110    4164       1
    4053    4080    4113    4170       1    4053    4080    4116    4176       1
    4050    4071    4095    4134       1    4050    4071    4098    4140       1
    4050    4074    4101    4143       1    4050    4074    4104    4149       1
    4047    4008    4014    4050       1    4032    4065    4035    4068       1
    4029    3999    4032    4062       1    4029    3999    4032    4065       1
    4023    3993    4020    4053       1    4023    3993    4020    4056       1
    4020    4056    4026    4059       1    4017    3990    4014    4050       1
    4011    3987    4008    4014       1    4011    3987    4008    4047       1
    4008    4014    3990    4017       1    4002    3981    3999    4029       1
    4002    3996    4026    4059       1    4002    4035    4065    4092       1
    3999    4032    4065    4092       1    3996    3978    3993    4023       1
    3996    4002    4035    4068       1    3996    4026    4056    4083       1
    3993    4020    4056    4083       1    3990    4014    4008    4047       1
    3981    4002    4035    4068       1    3978    3996    4026    4059       1
    3975    3972    3987    4011       1    3972    3975    3990    4017       1
    3972    3987    4008    4047       1    3969    3948    3963    3984       1
    3966    3942    3963    3984       1    3963    3984    4005    4038       2
    3963    3984    4005    4041       2    3963    3984    4005    4044       2
    3960    3936    3954    3972       1    3957    3975    3990    4017       1
    3957    3978    3993    4023       1    3957    3981    3999    4029       1
    3954    3972    3987    4011       1    3951    3927    3948    3963       1
    3951    3927    3948    3969       1    3948    3963    3942    3966       1
    3945    3924    3942    3963       1    3945    3924    3942    3966       1
    3942    3963    3948    3969       1    3939    3921    3936    3954       1
    3939    3921    3936    3960       1    3933    3918    3930    3954       1
    3933    3918    3930    3957       1    3930    3954    3936    3960       1
    3927    3915    3924    3945       1    3924    3915    3927    3951       1
    3921    3912    3918    3933       1    3918    3912    3921    3939       1
    3915    3924    3942    3966       1    3915    3927    3948    3969       1
    3912    3921    3936    3960       1    3909    3912    3918    3933       1
    3909    3912    3921    3939       1    3909    3915    3924    3945       1
    3909    3915    3927    3951       1    3906    3894    3900    3909       1
    3903    3888    3900    3909       1    3897    3876    3894    3900       1
    3897    3876    3894    3906       1    3894    3900    3888    3903       1
    3891    3873    3888    3900       1    3891    3873    3888    3903       1
    3888    3900    3894    3906       1    3876    3867    3873    3891       1
    3873    3867    3876    3897       1    3867    3864    3870    3879       2
    3867    3864    3870    3882       2    3867    3864    3870    3885       2
    3867    3873    3888    3903       1    3867    3876    3894    3906       1
    3864    3867    3873    3891       1    3864    3867    3876    3897       1
    4737    4680    4731    4755       1    4734    4674    4731    4755       1
    4731    4755    4773    4821       2    4731    4755    4773    4824       2
    4731    4755    4773    4827       2    4728    4668    4722    4752       1
    4725    4662    4722    4752       1    4722    4752    4770    4812       2
    4722    4752    4770    4815       2    4722    4752    4770    4818       2
    4719    4656    4713    4749       1    4716    4650    4713    4749       1
    4713    4749    4767    4803       2    4713    4749    4767    4806       2
    4713    4749    4767    4809       2    4710    4644    4707    4746       1
    4707    4746    4764    4794       2    4707    4746    4764    4797       2
    4707    4746    4764    4800       2    4704    4638    4707    4746       1
    4701    4635    4695    4743       1    4698    4629    4695    4743       1
    4695    4743    4761    4785       2    4695    4743    4761    4788       2
    4695    4743    4761    4791       2    4692    4620    4686    4740       1
    4689    4614    4686    4740       1    4686    4740    4758    4776       2
    4686    4740    4758    4779       2    4686    4740    4758    4782       2
    4683    4611    4680    4731       1    4683    4611    4680    4737       1
    4680    4731    4674    4734       1    4677    4608    4674    4731       1
    4677    4608    4674    4734       1    4674    4731    4680    4737       1
    4671    4605    4668    4722       1    4671    4605    4668    4728       1
    4668    4722    4662    4725       1    4665    4602    4662    4722       1
    4665    4602    4662    4725       1    4662    4722    4668    4728       1
    4659    4599    4656    4713       1    4659    4599    4656    4719       1
    4656    4713    4650    4716       1    4653    4596    4650    4713       1
    4653    4596    4650    4716       1    4650    4713    4656    4719       1
    4647    4593    4644    4707       1    4647    4593    4644    4710       1
    4644    4707    4638    4704       1    4641    4590    4638    4704       1
    4641    4590    4638    4707       1    4638    4707    4644    4710       1
    4635    4695    4629    4698       1    4632    4587    4635    4695       1
    4632    4587    4635    4701       1    4629    4695    4635    4701       1
    4626    4584    4629    4695       1    4626    4584    4629    4698       1
    4623    4581    4620    4686       1    4623    4581    4620    4692       1
    4620    4686    4614    4689       1    4617    4578    4614    4686       1
    4617    4578    4614    4689       1    4614    4686    4620    4692       1
    4611    4572    4608    4677       1    4608    4572    4611    4683       1
    4605    4569    4602    4665       1    4602    4569    4605    4671       1
    4599    4563    4596    4653       1    4596    4563    4599    4659       1
    4593    4560    4590    4641       1    4590    4560    4593    4647       1
    4587    4557    4584    4626       1    4584    4557    4587    4632       1
    4581    4554    4578    4617       1    4578    4554    4581    4623       1
    4572    4608    4674    4734       1    4572    4611    4680    4737       1
    4569    4602    4662    4725       1    4569    4605    4668    4728       1
    4563    4596    4650    4716       1    4563    4599    4656    4719       1
    4560    4590    4638    4704       1    4560    4593    4644    4710       1
    4557    4584    4629    4698       1    4557    4587    4635    4701       1
    4554    4578    4614    4689       1    4554    4581    4620    4692       1
    4551    4518    4548    4575       1    4545    4515    4548    4575       1
    4545    4569    4602    4665       1    4545    4569    4605    4671       1
    4545    4572    4608    4677       1    4545    4572    4611    4683       1
    4542    4509    4539    4566       1    4536    4503    4539    4566       1
    4536    4560    4590    4641       1    4536    4560    4593    4647       1
    4536    4563    4596    4653       1    4536    4563    4599    4659       1
    4533    4554    4578    4617       1    4533    4554    4581    4623       1
    4533    4557    4584    4626       1    4533    4557    4587    4632       1
    4530    4491    4497    4533       1    4515    4548    4518    4551       1
    4512    4482    4515    4545       1    4512    4482    4515    4548       1
    4506    4476    4503    4536       1    4506    4476    4503    4539       1
    4503    4539    4509    4542       1    4500    4473    4497    4533       1
    4494    4470    4491    4497       1    4494    4470    4491    4530       1
    4491    4497    4473    4500       1    4485    4464    4482    4512       1
    4485    4479    4509    4542       1    4485    4518    4548    4575       1
    4482    4515    4548    4575       1    4479    4461    4476    4506       1
    4479    4485    4518    4551       1    4479    4509    4539    4566       1
    4476    4503    4539    4566       1    4473    4497    4491    4530       1
    4464    4485    4518    4551       1    4461    4479    4509    4542       1
    4458    4455    4470    4494       1    4455    4458    4473    4500       1
    4455    4470    4491    4530       1    4452    4431    4446    4467       1
    4449    4425    4446    4467       1    4446    4467    4488    4521       2
    4446    4467    4488    4524       2    4446    4467    4488    4527       2
    4443    4419    4437    4455       1    4440    4458    4473    4500       1
    4440    4461    4476    4506       1    4440    4464    4482    4512       1
    4437    4455    4470    4494       1    4434    4410    4431    4446       1
    4434    4410    4431    4452       1    4431    4446    4425    4449       1
    4428    4407    4425    4446       1    4428    4407    4425    4449       1
    4425    4446    4431    4452       1    4422    4404    4419    4437       1
    4422    4404    4419    4443       1    4416    4401    4413    4437       1
    4416    4401    4413    4440       1    4413    4437    4419    4443       1
    4410    4398    4407    4428       1    4407    4398    4410    4434       1
    4404    4395    4401    4416       1    4401    4395    4404    4422       1
    4398    4407    4425    4449       1    4398    4410    4431    4452       1
    4395    4404    4419    4443       1    4392    4395    4401    4416       1
    4392    4395    4404    4422       1    4392    4398    4407    4428       1
    4392    4398    4410    4434       1    4389    4377    4383    4392       1
    4386    4371    4383    4392       1    4380    4359    4377    4383       1
    4380    4359    4377    4389       1    4377    4383    4371    4386       1
    4374    4356    4371    4383       1    4374    4356    4371    4386       1
    4371    4383    4377    4389       1    4359    4350    4356    4374       1
    4356    4350    4359    4380       1    4350    4347    4353    4362       2
    4350    4347    4353    4365       2    4350    4347    4353    4368       2
    4350    4356    4371    4386       1    4350    4359    4377    4389       1
    4347    4350    4356    4374       1    4347    4350    4359    4380       1
    5220    5163    5214    5238       1    5217    5157    5214    5238       1
    5214    5238    5256    5304       2    5214    5238    5256    5307       2
    5214    5238    5256    5310       2    5211    5151    5205    5235       1
    5208    5145    5205    5235       1    5205    5235    5253    5295       2
    5205    5235    5253    5298       2    5205    5235    5253    5301       2
    5202    5139    5196    5232       1    5199    5133    5196    5232       1
    5196    5232    5250    5286       2    5196    5232    5250    5289       2
    5196    5232    5250    5292       2    5193    5127    5190    5229       1
    5190    5229    5247    5277       2    5190    5229    5247    5280       2
    5190    5229    5247    5283       2    5187    5121    5190    5229       1
    5184    5118    5178    5226       1    5181    5112    5178    5226       1
    5178    5226    5244    5268       2    5178    5226    5244    5271       2
    5178    5226    5244    5274       2    5175    5103    5169    5223       1
    5172    5097    5169    5223       1    5169    5223    5241    5259       2
    5169    5223    5241    5262       2    5169    5223    5241    5265       2
    5166    5094    5163    5214       1    5166    5094    5163    5220       1
    5163    5214    5157    5217       1    5160    5091    5157    5214       1
    5160    5091    5157    5217       1    5157    5214    5163    5220       1
    5154    5088    5151    5205       1    5154    5088    5151    5211       1
    5151    5205    5145    5208       1    5148    5085    5145    5205       1
    5148    5085    5145    5208       1    5145    5205    5151    5211       1
    5142    5082    5139    5196       1    5142    5082    5139    5202       1
    5139    5196    5133    5199       1    5136    5079    5133    5196       1
    5136    5079    5133    5199       1    5133    5196    5139    5202       1
    5130    5076    5127    5190       1    5130    5076    5127    5193       1
    5127    5190    5121    5187       1    5124    5073    5121    5187       1
    5124    5073    5121    5190       1    5121    5190    5127    5193       1
    5118    5178    5112    5181       1    5115    5070    5118    5178       1
    5115    5070    5118    5184       1    5112    5178    5118    5184       1
    5109    5067    5112    5178       1    5109    5067    5112    5181       1
    5106    5064    5103    5169       1    5106    5064    5103    5175       1
    5103    5169    5097    5172       1    5100    5061    5097    5169       1
    5100    5061    5097    5172       1    5097    5169    5103    5175       1
    5094    5055    5091    5160       1    5091    5055    5094    5166       1
    5088    5052    5085    5148       1    5085    5052    5088    5154       1
    5082    5046    5079    5136       1    5079    5046    5082    5142       1
    5076    5043    5073    5124       1    5073    5043    5076    5130       1
    5070    5040    5067    5109       1    5067    5040    5070    5115       1
    5064    5037    5061    5100       1    5061    5037    5064    5106       1
    5055    5091    5157    5217       1    5055    5094    5163    5220       1
    5052    5085    5145    5208       1    5052    5088    5151    5211       1
    5046    5079    5133    5199       1    5046    5082    5139    5202       1
    5043    5073    5121    5187       1    5043    5076    5127    5193       1
    5040    5067    5112    5181       1    5040    5070    5118    5184       1
    5037    5061    5097    5172       1    5037    5064    5103    5175       1
    5034    5001    5031    5058       1    5028    4998    5031    5058       1
    5028    5052    5085    5148       1    5028    5052    5088    5154       1
    5028    5055    5091    5160       1    5028    5055    5094    5166       1
    5025    4992    5022    5049       1    5019    4986    5022    5049       1
    5019    5043    5073    5124       1    5019    5043    5076    5130       1
    5019    5046    5079    5136       1    5019    5046    5082    5142       1
    5016    5037    5061    5100       1    5016    5037    5064    5106       1
    5016    5040    5067    5109       1    5016    5040    5070    5115       1
    5013    4974    4980    5016       1    4998    5031    5001    5034       1
    4995    4965    4998    5028       1    4995    4965    4998    5031       1
    4989    4959    4986    5019       1    4989    4959    4986    5022       1
    4986    5022    4992    5025       1    4983    4956    4980    5016       1
    4977    4953    4974    4980       1    4977    4953    4974    5013       1
    4974    4980    4956    4983       1    4968    4947    4965    4995       1
    4968    4962    4992    5025       1    4968    5001    5031    5058       1
    4965    4998    5031    5058       1    4962    4944    4959    4989       1
    4962    4968    5001    5034       1    4962    4992    5022    5049       1
    4959    4986    5022    5049       1    4956    4980    4974    5013       1
    4947    4968    5001    5034       1    4944    4962    4992    5025       1
    4941    4938    4953    4977       1    4938    4941    4956    4983       1
    4938    4953    4974    5013       1    4935    4914    4929    4950       1
    4932    4908    4929    4950       1    4929    4950    4971    5004       2
    4929    4950    4971    5007       2    4929    4950    4971    5010       2
    4926    4902    4920    4938       1    4923    4941    4956    4983       1
    4923    4944    4959    4989       1    4923    4947    4965    4995       1
    4920    4938    4953    4977       1    4917    4893    4914    4929       1
    4917    4893    4914    4935       1    4914    4929    4908    4932       1
    4911    4890    4908    4929       1    4911    4890    4908    4932       1
    4908    4929    4914    4935       1    4905    4887    4902    4920       1
    4905    4887    4902    4926       1    4899    4884    4896    4920       1
    4899    4884    4896    4923       1    4896    4920    4902    4926       1
    4893    4881    4890    4911       1    4890    4881    4893    4917       1
    4887    4878    4884    4899       1    4884    4878    4887    4905       1
    4881    4890    4908    4932       1    4881    4893    4914    4935       1
    4878    4887    4902    4926       1    4875    4878    4884    4899       1
    4875    4878    4887    4905       1    4875    4881    4890    4911       1
    4875    4881    4893    4917       1    4872    4860    4866    4875       1
    4869    4854    4866    4875       1    4863    4842    4860    4866       1
    4863    4842    4860    4872       1    4860    4866    4854    4869       1
    4857    4839    4854    4866       1    4857    4839    4854    4869       1
    4854    4866    4860    4872       1    4842    4833    4839    4857       1
    4839    4833    4842    4863       1    4833    4830    4836    4845       2
    4833    4830    4836    4848       2    4833    4830    4836    4851       2
    4833    4839    4854    4869       1    4833    4842    4860    4872       1
    4830    4833    4839    4857       1    4830    4833    4842    4863       1
    5703    5646    5697    5721       1    5700    5640    5697    5721       1
    5697    5721    5739    5787       2    5697    5721    5739    5790       2
    5697    5721    5739    5793       2    5694    5634    5688    5718       1
    5691    5628    5688    5718       1    5688    5718    5736    5778       2
    5688    5718    5736    5781       2    5688    5718    5736    5784       2
    5685    5622    5679    5715       1    5682    5616    5679    5715       1
    5679    5715    5733    5769       2    5679    5715    5733    5772       2
    5679    5715    5733    5775       2    5676    5610    5673    5712       1
    5673    5712    5730    5760       2    5673    5712    5730    5763       2
    5673    5712    5730    5766       2    5670    5604    5673    5712       1
    5667    5601    5661    5709       1    5664    5595    5661    5709       1
    5661    5709    5727    5751       2    5661    5709    5727    5754       2
    5661    5709    5727    5757       2    5658    5586    5652    5706       1
    5655    5580    5652    5706       1    5652    5706    5724    5742       2
    5652    5706    5724    5745       2    5652    5706    5724    5748       2
    5649    5577    5646    5697       1    5649    5577    5646    5703       1
    5646    5697    5640    5700       1    5643    5574    5640    5697       1
    5643    5574    5640    5700       1    5640    5697    5646    5703       1
    5637    5571    5634    5688       1    5637    5571    5634    5694       1
    5634    5688    5628    5691       1    5631    5568    5628    5688       1
    5631    5568    5628    5691       1    5628    5688    5634    5694       1
    5625    5565    5622    5679       1    5625    5565    5622    5685       1
    5622    5679    5616    5682       1    5619    5562    5616    5679       1
    5619    5562    5616    5682       1    5616    5679    5622    5685       1
    5613    5559    5610    5673       1    5613    5559    5610    5676       1
    5610    5673    5604    5670       1    5607    5556    5604    5670       1
    5607    5556    5604    5673       1    5604    5673    5610    5676       1
    5601    5661    5595    5664       1    5598    5553    5601    5661       1
    5598    5553    5601    5667       1    5595    5661    5601    5667       1
    5592    5550    5595    5661       1    5592    5550    5595    5664       1
    5589    5547    5586    5652       1    5589    5547    5586    5658       1
    5586    5652    5580    5655       1    5583    5544    5580    5652       1
    5583    5544    5580    5655       1    5580    5652    5586    5658       1
    5577    5538    5574    5643       1    5574    5538    5577    5649       1
    5571    5535    5568    5631       1    5568    5535    5571    5637       1
    5565    5529    5562    5619       1    5562    5529    5565    5625       1
    5559    5526    5556    5607       1    5556    5526    5559    5613       1
    5553    5523    5550    5592       1    5550    5523    5553    5598       1
    5547    5520    5544    5583       1    5544    5520    5547    5589       1
    5538    5574    5640    5700       1    5538    5577    5646    5703       1
    5535    5568    5628    5691       1    5535    5571    5634    5694       1
    5529    5562    5616    5682       1    5529    5565    5622    5685       1
    5526    5556    5604    5670       1    5526    5559    5610    5676       1
    5523    5550    5595    5664       1    5523    5553    5601    5667       1
    5520    5544    5580    5655       1    5520    5547    5586    5658       1
    5517    5484    5514    5541       1    5511    5481    5514    5541       1
    5511    5535    5568    5631       1    5511    5535    5571    5637       1
    5511    5538    5574    5643       1    5511    5538    5577    5649       1
    5508    5475    5505    5532       1    5502    5469    5505    5532       1
    5502    5526    5556    5607       1    5502    5526    5559    5613       1
    5502    5529    5562    5619       1    5502    5529    5565    5625       1
    5499    5520    5544    5583       1    5499    5520    5547    5589       1
    5499    5523    5550    5592       1    5499    5523    5553    5598       1
    5496    5457    5463    5499       1    5481    5514    5484    5517       1
    5478    5448    5481    5511       1    5478    5448    5481    5514       1
    5472    5442    5469    5502       1    5472    5442    5469    5505       1
    5469    5505    5475    5508       1    5466    5439    5463    5499       1
    5460    5436    5457    5463       1    5460    5436    5457    5496       1
    5457    5463    5439    5466       1    5451    5430    5448    5478       1
    5451    5445    5475    5508       1    5451    5484    5514    5541       1
    5448    5481    5514    5541       1    5445    5427    5442    5472       1
    5445    5451    5484    5517       1    5445    5475    5505    5532       1
    5442    5469    5505    5532       1    5439    5463    5457    5496       1
    5430    5451    5484    5517       1    5427    5445    5475    5508       1
    5424    5421    5436    5460       1    5421    5424    5439    5466       1
    5421    5436    5457    5496       1    5418    5397    5412    5433       1
    5415    5391    5412    5433       1    5412    5433    5454    5487       2
    5412    5433    5454    5490       2    5412    5433    5454    5493       2
    5409    5385    5403    5421       1    5406    5424    5439    5466       1
    5406    5427    5442    5472       1    5406    5430    5448    5478       1
    5403    5421    5436    5460       1    5400    5376    5397    5412       1
    5400    5376    5397    5418       1    5397    5412    5391    5415       1
    5394    5373    5391    5412       1    5394    5373    5391    5415       1
    5391    5412    5397    5418       1    5388    5370    5385    5403       1
    5388    5370    5385    5409       1    5382    5367    5379    5403       1
    5382    5367    5379    5406       1    5379    5403    5385    5409       1
    5376    5364    5373    5394       1    5373    5364    5376    5400       1
    5370    5361    5367    5382       1    5367    5361    5370    5388       1
    5364    5373    5391    5415       1    5364    5376    5397    5418       1
    5361    5370    5385    5409       1    5358    5361    5367    5382       1
    5358    5361    5370    5388       1    5358    5364    5373    5394       1
    5358    5364    5376    5400       1    5355    5343    5349    5358       1
    5352    5337    5349    5358       1    5346    5325    5343    5349       1
    5346    5325    5343    5355       1    5343    5349    5337    5352       1
    5340    5322    5337    5349       1    5340    5322    5337    5352       1
    5337    5349    5343    5355       1    5325    5316    5322    5340       1
    5322    5316    5325    5346       1    5316    5313    5319    5328       2
    5316    5313    5319    5331       2    5316    5313    5319    5334       2
    5316    5322    5337    5352       1    5316    5325    5343    5355       1
    5313    5316    5322    5340       1    5313    5316    5325    5346       1
    6186    6129    6180    6204       1    6183    6123    6180    6204       1
    6180    6204    6222    6270       2    6180    6204    6222    6273       2
    6180    6204    6222    6276       2    6177    6117    6171    6201       1
    6174    6111    6171    6201       1    6171    6201    6219    6261       2
    6171    6201    6219    6264       2    6171    6201    6219    6267       2
    6168    6105    6162    6198       1    6165    6099    6162    6198       1
    6162    6198    6216    6252       2    6162    6198    6216    6255       2
    6162    6198    6216    6258       2    6159    6093    6156    6195       1
    6156    6195    6213    6243       2    6156    6195    6213    6246       2
    6156    6195    6213    6249       2    6153    6087    6156    6195       1
    6150    6084    6144    6192       1    6147    6078    6144    6192       1
    6144    6192    6210    6234       2    6144    6192    6210    6237       2
    6144    6192    6210    6240       2    6141    6069    6135    6189       1
    6138    6063    6135    6189       1    6135    6189    6207    6225       2
    6135    6189    6207    6228       2    6135    6189    6207    6231       2
    6132    6060    6129    6180       1    6132    6060    6129    6186       1
    6129    6180    6123    6183       1    6126    6057    6123    6180       1
    6126    6057    6123    6183       1    6123    6180    6129    6186       1
    6120    6054    6117    6171       1    6120    6054    6117    6177       1
    6117    6171    6111    6174       1    6114    6051    6111    6171       1
    6114    6051    6111    6174       1    6111    6171    6117    6177       1
    6108    6048    6105    6162       1    6108    6048    6105    6168       1
    6105    6162    6099    6165       1    6102    6045    6099    6162       1
    6102    6045    6099    6165       1    6099    6162    6105    6168       1
    6096    6042    6093    6156       1    6096    6042    6093    6159       1
    6093    6156    6087    6153       1    6090    6039    6087    6153       1
    6090    6039    6087    6156       1    6087    6156    6093    6159       1
    6084    6144    6078    6147       1    6081    6036    6084    6144       1
    6081    6036    6084    6150       1    6078    6144    6084    6150       1
    6075    6033    6078    6144       1    6075    6033    6078    6147       1
    6072    6030    6069    6135       1    6072    6030    6069    6141       1
    6069    6135    6063    6138       1    6066    6027    6063    6135       1
    6066    6027    6063    6138       1    6063    6135    6069    6141       1
    6060    6021    6057    6126       1    6057    6021    6060    6132       1
    6054    6018    6051    6114       1    6051    6018    6054    6120       1
    6048    6012    6045    6102       1    6045    6012    6048    6108       1
    6042    6009    6039    6090       1    6039    6009    6042    6096       1
    6036    6006    6033    6075       1    6033    6006    6036    6081       1
    6030    6003    6027    6066       1    6027    6003    6030    6072       1
    6021    6057    6123    6183       1    6021    6060    6129    6186       1
    6018    6051    6111    6174       1    6018    6054    6117    6177       1
    6012    6045    6099    6165       1    6012    6048    6105    6168       1
    6009    6039    6087    6153       1    6009    6042    6093    6159       1
    6006    6033    6078    6147       1    6006    6036    6084    6150       1
    6003    6027    6063    6138       1    6003    6030    6069    6141       1
    6000    5967    5997    6024       1    5994    5964    5997    6024       1
    5994    6018    6051    6114       1    5994    6018    6054    6120       1
    5994    6021    6057    6126       1    5994    6021    6060    6132       1
    5991    5958    5988    6015       1    5985    5952    5988    6015       1
    5985    6009    6039    6090       1    5985    6009    6042    6096       1
    5985    6012    6045    6102       1    5985    6012    6048    6108       1
    5982    6003    6027    6066       1    5982    6003    6030    6072       1
    5982    6006    6033    6075       1    5982    6006    6036    6081       1
    5979    5940    5946    5982       1    5964    5997    5967    6000       1
    5961    5931    5964    5994       1    5961    5931    5964    5997       1
    5955    5925    5952    5985       1    5955    5925    5952    5988       1
    5952    5988    5958    5991       1    5949    5922    5946    5982       1
    5943    5919    5940    5946       1    5943    5919    5940    5979       1
    5940    5946    5922    5949       1    5934    5913    5931    5961       1
    5934    5928    5958    5991       1    5934    5967    5997    6024       1
    5931    5964    5997    6024       1    5928    5910    5925    5955       1
    5928    5934    5967    6000       1    5928    5958    5988    6015       1
    5925    5952    5988    6015       1    5922    5946    5940    5979       1
    5913    5934    5967    6000       1    5910    5928    5958    5991       1
    5907    5904    5919    5943       1    5904    5907    5922    5949       1
    5904    5919    5940    5979       1    5901    5880    5895    5916       1
    5898    5874    5895    5916       1    5895    5916    5937    5970       2
    5895    5916    5937    5973       2    5895    5916    5937    5976       2
    5892    5868    5886    5904       1    5889    5907    5922    5949       1
    5889    5910    5925    5955       1    5889    5913    5931    5961       1
    5886    5904    5919    5943       1    5883    5859    5880    5895       1
    5883    5859    5880    5901       1    5880    5895    5874    5898       1
    5877    5856    5874    5895       1    5877    5856    5874    5898       1
    5874    5895    5880    5901       1    5871    5853    5868    5886       1
    5871    5853    5868    5892       1    5865    5850    5862    5886       1
    5865    5850    5862    5889       1    5862    5886    5868    5892       1
    5859    5847    5856    5877       1    5856    5847    5859    5883       1
    5853    5844    5850    5865       1    5850    5844    5853    5871       1
    5847    5856    5874    5898       1    5847    5859    5880    5901       1
    5844    5853    5868    5892       1    5841    5844    5850    5865       1
    5841    5844    5853    5871       1    5841    5847    5856    5877       1
    5841    5847    5859    5883       1    5838    5826    5832    5841       1
    5835    5820    5832    5841       1    5829    5808    5826    5832       1
    5829    5808    5826    5838       1    5826    5832    5820    5835       1
    5823    5805    5820    5832       1    5823    5805    5820    5835       1
    5820    5832    5826    5838       1    5808    5799    5805    5823       1
    5805    5799    5808    5829       1    5799    5796    5802    5811       2
    5799    5796    5802    5814       2    5799    5796    5802    5817       2
    5799    5805    5820    5835       1    5799    5808    5826    5838       1
    5796    5799    5805    5823       1    5796    5799    5808    5829       1
    6669    6612    6663    6687       1    6666    6606    6663    6687       1
    6663    6687    6705    6753       2    6663    6687    6705    6756       2
    6663    6687    6705    6759       2    6660    6600    6654    6684       1
    6657    6594    6654    6684       1    6654    6684    6702    6744       2
    6654    6684    6702    6747       2    6654    6684    6702    6750       2
    6651    6588    6645    6681       1    6648    6582    6645    6681       1
    6645    6681    6699    6735       2    6645    6681    6699    6738       2
    6645    6681    6699    6741       2    6642    6576    6639    6678       1
    6639    6678    6696    6726       2    6639    6678    6696    6729       2
    6639    6678    6696    6732       2    6636    6570    6639    6678       1
    6633    6567    6627    6675       1    6630    6561    6627    6675       1
    6627    6675    6693    6717       2    6627    6675    6693    6720       2
    6627    6675    6693    6723       2    6624    6552    6618    6672       1
    6621    6546    6618    6672       1    6618    6672    6690    6708       2
    6618    6672    6690    6711       2    6618    6672    6690    6714       2
    6615    6543    6612    6663       1    6615    6543    6612    6669       1
    6612    6663    6606    6666       1    6609    6540    6606    6663       1
    6609    6540    6606    6666       1    6606    6663    6612    6669       1
    6603    6537    6600    6654       1    6603    6537    6600    6660       1
    6600    6654    6594    6657       1    6597    6534    6594    6654       1
    6597    6534    6594    6657       1    6594    6654    6600    6660       1
    6591    6531    6588    6645       1    6591    6531    6588    6651       1
    6588    6645    6582    6648       1    6585    6528    6582    6645       1
    6585    6528    6582    6648       1    6582    6645    6588    6651       1
    6579    6525    6576    6639       1    6579    6525    6576    6642       1
    6576    6639    6570    6636       1    6573    6522    6570    6636       1
    6573    6522    6570    6639       1    6570    6639    6576    6642       1
    6567    6627    6561    6630       1    6564    6519    6567    6627       1
    6564    6519    6567    6633       1    6561    6627    6567    6633       1
    6558    6516    6561    6627       1    6558    6516    6561    6630       1
    6555    6513    6552    6618       1    6555    6513    6552    6624       1
    6552    6618    6546    6621       1    6549    6510    6546    6618       1
    6549    6510    6546    6621       1    6546    6618    6552    6624       1
    6543    6504    6540    6609       1    6540    6504    6543    6615       1
    6537    6501    6534    6597       1    6534    6501    6537    6603       1
    6531    6495    6528    6585       1    6528    6495    6531    6591       1
    6525    6492    6522    6573       1    6522    6492    6525    6579       1
    6519    6489    6516    6558       1    6516    6489    6519    6564       1
    6513    6486    6510    6549       1    6510    6486    6513    6555       1
    6504    6540    6606    6666       1    6504    6543    6612    6669       1
    6501    6534    6594    6657       1    6501    6537    6600    6660       1
    6495    6528    6582    6648       1    6495    6531    6588    6651       1
    6492    6522    6570    6636       1    6492    6525    6576    6642       1
    6489    6516    6561    6630       1    6489    6519    6567    6633       1
    6486    6510    6546    6621       1    6486    6513    6552    6624       1
    6483    6450    6480    6507       1    6477    6447    6480    6507       1
    6477    6501    6534    6597       1    6477    6501    6537    6603       1
    6477    6504    6540    6609       1    6477    6504    6543    6615       1
    6474    6441    6471    6498       1    6468    6435    6471    6498       1
    6468    6492    6522    6573       1    6468    6492    6525    6579       1
    6468    6495    6528    6585       1    6468    6495    6531    6591       1
    6465    6486    6510    6549       1    6465    6486    6513    6555       1
    6465    6489    6516    6558       1    6465    6489    6519    6564       1
    6462    6423    6429    6465       1    6447    6480    6450    6483       1
    6444    6414    6447    6477       1    6444    6414    6447    6480       1
    6438    6408    6435    6468       1    6438    6408    6435    6471       1
    6435    6471    6441    6474       1    6432    6405    6429    6465       1
    6426    6402    6423    6429       1    6426    6402    6423    6462       1
    6423    6429    6405    6432       1    6417    6396    6414    6444       1
    6417    6411    6441    6474       1    6417    6450    6480    6507       1
    6414    6447    6480    6507       1    6411    6393    6408    6438       1
    6411    6417    6450    6483       1    6411    6441    6471    6498       1
    6408    6435    6471    6498       1    6405    6429    6423    6462       1
    6396    6417    6450    6483       1    6393    6411    6441    6474       1
    6390    6387    6402    6426       1    6387    6390    6405    6432       1
    6387    6402    6423    6462       1    6384    6363    6378    6399       1
    6381    6357    6378    6399       1    6378    6399    6420    6453       2
    6378    6399    6420    6456       2    6378    6399    6420    6459       2
    6375    6351    6369    6387       1    6372    6390    6405    6432       1
    6372    6393    6408    6438       1    6372    6396    6414    6444       1
    6369    6387    6402    6426       1    6366    6342    6363    6378       1
    6366    6342    6363    6384       1    6363    6378    6357    6381       1
    6360    6339    6357    6378       1    6360    6339    6357    6381       1
    6357    6378    6363    6384       1    6354    6336    6351    6369       1
    6354    6336    6351    6375       1    6348    6333    6345    6369       1
    6348    6333    6345    6372       1    6345    6369    6351    6375       1
    6342    6330    6339    6360       1    6339    6330    6342    6366       1
    6336    6327    6333    6348       1    6333    6327    6336    6354       1
    6330    6339    6357    6381       1    6330    6342    6363    6384       1
    6327    6336    6351    6375       1    6324    6327    6333    6348       1
    6324    6327    6336    6354       1    6324    6330    6339    6360       1
    6324    6330    6342    6366       1    6321    6309    6315    6324       1
    6318    6303    6315    6324       1    6312    6291    6309    6315       1
    6312    6291    6309    6321       1    6309    6315    6303    6318       1
    6306    6288    6303    6315       1    6306    6288    6303    6318       1
    6303    6315    6309    6321       1    6291    6282    6288    6306       1
    6288    6282    6291    6312       1    6282    6279    6285    6294       2
    6282    6279    6285    6297       2    6282    6279    6285    6300       2
    6282    6288    6303    6318       1    6282    6291    6309    6321       1
    6279    6282    6288    6306       1    6279    6282    6291    6312       1
    7152    7095    7146    7170       1    7149    7089    7146    7170       1
    7146    7170    7188    7236       2    7146    7170    7188    7239       2
    7146    7170    7188    7242       2    7143    7083    7137    7167       1
    7140    7077    7137    7167       1    7137    7167    7185    7227       2
    7137    7167    7185    7230       2    7137    7167    7185    7233       2
    7134    7071    7128    7164       1    7131    7065    7128    7164       1
    7128    7164    7182    7218       2    7128    7164    7182    7221       2
    7128    7164    7182    7224       2    7125    7059    7122    7161       1
    7122    7161    7179    7209       2    7122    7161    7179    7212       2
    7122    7161    7179    7215       2    7119    7053    7122    7161       1
    7116    7050    7110    7158       1    7113    7044    7110    7158       1
    7110    7158    7176    7200       2    7110    7158    7176    7203       2
    7110    7158    7176    7206       2    7107    7035    7101    7155       1
    7104    7029    7101    7155       1    7101    7155    7173    7191       2
    7101    7155    7173    7194       2    7101    7155    7173    7197       2
    7098    7026    7095    7146       1    7098    7026    7095    7152       1
    7095    7146    7089    7149       1    7092    7023    7089    7146       1
    7092    7023    7089    7149       1    7089    7146    7095    7152       1
    7086    7020    7083    7137       1    7086    7020    7083    7143       1
    7083    7137    7077    7140       1    7080    7017    7077    7137       1
    7080    7017    7077    7140       1    7077    7137    7083    7143       1
    7074    7014    7071    7128       1    7074    7014    7071    7134       1
    7071    7128    7065    7131       1    7068    7011    7065    7128       1
    7068    7011    7065    7131       1    7065    7128    7071    7134       1
    7062    7008    7059    7122       1    7062    7008    7059    7125       1
    7059    7122    7053    7119       1    7056    7005    7053    7119       1
    7056    7005    7053    7122       1    7053    7122    7059    7125       1
    7050    7110    7044    7113       1    7047    7002    7050    7110       1
    7047    7002    7050    7116       1    7044    7110    7050    7116       1
    7041    6999    7044    7110       1    7041    6999    7044    7113       1
    7038    6996    7035    7101       1    7038    6996    7035    7107       1
    7035    7101    7029    7104       1    7032    6993    7029    7101       1
    7032    6993    7029    7104       1    7029    7101    7035    7107       1
    7026    6987    7023    7092       1    7023    6987    7026    7098       1
    7020    6984    7017    7080       1    7017    6984    7020    7086       1
    7014    6978    7011    7068       1    7011    6978    7014    7074       1
    7008    6975    7005    7056       1    7005    6975    7008    7062       1
    7002    6972    6999    7041       1    6999    6972    7002    7047       1
    6996    6969    6993    7032       1    6993    6969    6996    7038       1
    6987    7023    7089    7149       1    6987    7026    7095    7152       1
    6984    7017    7077    7140       1    6984    7020    7083    7143       1
    6978    7011    7065    7131       1    6978    7014    7071    7134       1
    6975    7005    7053    7119       1    6975    7008    7059    7125       1
    6972    6999    7044    7113       1    6972    7002    7050    7116       1
    6969    6993    7029    7104       1    6969    6996    7035    7107       1
    6966    6933    6963    6990       1    6960    6930    6963    6990       1
    6960    6984    7017    7080       1    6960    6984    7020    7086       1
    6960    6987    7023    7092       1    6960    6987    7026    7098       1
    6957    6924    6954    6981       1    6951    6918    6954    6981       1
    6951    6975    7005    7056       1    6951    6975    7008    7062       1
    6951    6978    7011    7068       1    6951    6978    7014    7074       1
    6948    6969    6993    7032       1    6948    6969    6996    7038       1
    6948    6972    6999    7041       1    6948    6972    7002    7047       1
    6945    6906    6912    6948       1    6930    6963    6933    6966       1
    6927    6897    6930    6960       1    6927    6897    6930    6963       1
    6921    6891    6918    6951       1    6921    6891    6918    6954       1
    6918    6954    6924    6957       1    6915    6888    6912    6948       1
    6909    6885    6906    6912       1    6909    6885    6906    6945       1
    6906    6912    6888    6915       1    6900    6879    6897    6927       1
    6900    6894    6924    6957       1    6900    6933    6963    6990       1
    6897    6930    6963    6990       1    6894    6876    6891    6921       1
    6894    6900    6933    6966       1    6894    6924    6954    6981       1
    6891    6918    6954    6981       1    6888    6912    6906    6945       1
    6879    6900    6933    6966       1    6876    6894    6924    6957       1
    6873    6870    6885    6909       1    6870    6873    6888    6915       1
    6870    6885    6906    6945       1    6867    6846    6861    6882       1
    6864    6840    6861    6882       1    6861    6882    6903    6936       2
    6861    6882    6903    6939       2    6861    6882    6903    6942       2
    6858    6834    6852    6870       1    6855    6873    6888    6915       1
    6855    6876    6891    6921       1    6855    6879    6897    6927       1
    6852    6870    6885    6909       1    6849    6825    6846    6861       1
    6849    6825    6846    6867       1    6846    6861    6840    6864       1
    6843    6822    6840    6861       1    6843    6822    6840    6864       1
    6840    6861    6846    6867       1    6837    6819    6834    6852       1
    6837    6819    6834    6858       1    6831    6816    6828    6852       1
    6831    6816    6828    6855       1    6828    6852    6834    6858       1
    6825    6813    6822    6843       1    6822    6813    6825    6849       1
    6819    6810    6816    6831       1    6816    6810    6819    6837       1
    6813    6822    6840    6864       1    6813    6825    6846    6867       1
    6810    6819    6834    6858       1    6807    6810    6816    6831       1
    6807    6810    6819    6837       1    6807    6813    6822    6843       1
    6807    6813    6825    6849       1    6804    6792    6798    6807       1
    6801    6786    6798    6807       1    6795    6774    6792    6798       1
    6795    6774    6792    6804       1    6792    6798    6786    6801       1
    6789    6771    6786    6798       1    6789    6771    6786    6801       1
    6786    6798    6792    6804       1    6774    6765    6771    6789       1
    6771    6765    6774    6795       1    6765    6762    6768    6777       2
    6765    6762    6768    6780       2    6765    6762    6768    6783       2
    6765    6771    6786    6801       1    6765    6774    6792    6804       1
    6762    6765    6771    6789       1    6762    6765    6774    6795       1
    7635    7578    7629    7653       1    7632    7572    7629    7653       1
    7629    7653    7671    7719       2    7629    7653    7671    7722       2
    7629    7653    7671    7725       2    7626    7566    7620    7650       1
    7623    7560    7620    7650       1    7620    7650    7668    7710       2
    7620    7650    7668    7713       2    7620    7650    7668    7716       2
    7617    7554    7611    7647       1    7614    7548    7611    7647       1
    7611    7647    7665    7701       2    7611    7647    7665    7704       2
    7611    7647    7665    7707       2    7608    7542    7605    7644       1
    7605    7644    7662    7692       2    7605    7644    7662    7695       2
    7605    7644    7662    7698       2    7602    7536    7605    7644       1
    7599    7533    7593    7641       1    7596    7527    7593    7641       1
    7593    7641    7659    7683       2    7593    7641    7659    7686       2
    7593    7641    7659    7689       2    7590    7518    7584    7638       1
    7587    7512    7584    7638       1    7584    7638    7656    7674       2
    7584    7638    7656    7677       2    7584    7638    7656    7680       2
    7581    7509    7578    7629       1    7581    7509    7578    7635       1
    7578    7629    7572    7632       1    7575    7506    7572    7629       1
    7575    7506    7572    7632       1    7572    7629    7578    7635       1
    7569    7503    7566    7620       1    7569    7503    7566    7626       1
    7566    7620    7560    7623       1    7563    7500    7560    7620       1
    7563    7500    7560    7623       1    7560    7620    7566    7626       1
    7557    7497    7554    7611       1    7557    7497    7554    7617       1
    7554    7611    7548    7614       1    7551    7494    7548    7611       1
    7551    7494    7548    7614       1    7548    7611    7554    7617       1
    7545    7491    7542    7605       1    7545    7491    7542    7608       1
    7542    7605    7536    7602       1    7539    7488    7536    7602       1
    7539    7488    7536    7605       1    7536    7605    7542    7608       1
    7533    7593    7527    7596       1    7530    7485    7533    7593       1
    7530    7485    7533    7599       1    7527    7593    7533    7599       1
    7524    7482    7527    7593       1    7524    7482    7527    7596       1
    7521    7479    7518    7584       1    7521    7479    7518    7590       1
    7518    7584    7512    7587       1    7515    7476    7512    7584       1
    7515    7476    7512    7587       1    7512    7584    7518    7590       1
    7509    7470    7506    7575       1    7506    7470    7509    7581       1
    7503    7467    7500    7563       1    7500    7467    7503    7569       1
    7497    7461    7494    7551       1    7494    7461    7497    7557       1
    7491    7458    7488    7539       1    7488    7458    7491    7545       1
    7485    7455    7482    7524       1    7482    7455    7485    7530       1
    7479    7452    7476    7515       1    7476    7452    7479    7521       1
    7470    7506    7572    7632       1    7470    7509    7578    7635       1
    7467    7500    7560    7623       1    7467    7503    7566    7626       1
    7461    7494    7548    7614       1    7461    7497    7554    7617       1
    7458    7488    7536    7602       1    7458    7491    7542    7608       1
    7455    7482    7527    7596       1    7455    7485    7533    7599       1
    7452    7476    7512    7587       1    7452    7479    7518    7590       1
    7449    7416    7446    7473       1    7443    7413    7446    7473       1
    7443    7467    7500    7563       1    7443    7467    7503    7569       1
    7443    7470    7506    7575       1    7443    7470    7509    7581       1
    7440    7407    7437    7464       1    7434    7401    7437    7464       1
    7434    7458    7488    7539       1    7434    7458    7491    7545       1
    7434    7461    7494    7551       1    7434    7461    7497    7557       1
    7431    7452    7476    7515       1    7431    7452    7479    7521       1
    7431    7455    7482    7524       1    7431    7455    7485    7530       1
    7428    7389    7395    7431       1    7413    7446    7416    7449       1
    7410    7380    7413    7443       1    7410    7380    7413    7446       1
    7404    7374    7401    7434       1    7404    7374    7401    7437       1
    7401    7437    7407    7440       1    7398    7371    7395    7431       1
    7392    7368    7389    7395       1    7392    7368    7389    7428       1
    7389    7395    7371    7398       1    7383    7362    7380    7410       1
    7383    7377    7407    7440       1    7383    7416    7446    7473       1
    7380    7413    7446    7473       1    7377    7359    7374    7404       1
    7377    7383    7416    7449       1    7377    7407    7437    7464       1
    7374    7401    7437    7464       1    7371    7395    7389    7428       1
    7362    7383    7416    7449       1    7359    7377    7407    7440       1
    7356    7353    7368    7392       1    7353    7356    7371    7398       1
    7353    7368    7389    7428       1    7350    7329    7344    7365       1
    7347    7323    7344    7365       1    7344    7365    7386    7419       2
    7344    7365    7386    7422       2    7344    7365    7386    7425       2
    7341    7317    7335    7353       1    7338    7356    7371    7398       1
    7338    7359    7374    7404       1    7338    7362    7380    7410       1
    7335    7353    7368    7392       1    7332    7308    7329    7344       1
    7332    7308    7329    7350       1    7329    7344    7323    7347       1
    7326    7305    7323    7344       1    7326    7305    7323    7347       1
    7323    7344    7329    7350       1    7320    7302    7317    7335       1
    7320    7302    7317    7341       1    7314    7299    7311    7335       1
    7314    7299    7311    7338       1    7311    7335    7317    7341       1
    7308    7296    7305    7326       1    7305    7296    7308    7332       1
    7302    7293    7299    7314       1    7299    7293    7302    7320       1
    7296    7305    7323    7347       1    7296    7308    7329    7350       1
    7293    7302    7317    7341       1    7290    7293    7299    7314       1
    7290    7293    7302    7320       1    7290    7296    7305    7326       1
    7290    7296    7308    7332       1    7287    7275    7281    7290       1
    7284    7269    7281    7290       1    7278    7257    7275    7281       1
    7278    7257    7275    7287       1    7275    7281    7269    7284       1
    7272    7254    7269    7281       1    7272    7254    7269    7284       1
    7269    7281    7275    7287       1    7257    7248    7254    7272       1
    7254    7248    7257    7278       1    7248    7245    7251    7260       2
    7248    7245    7251    7263       2    7248    7245    7251    7266       2
    7248    7254    7269    7284       1    7248    7257    7275    7287       1
    7245    7248    7254    7272       1    7245    7248    7257    7278       1
    8118    8061    8112    8136       1    8115    8055    8112    8136       1
    8112    8136    8154    8202       2    8112    8136    8154    8205       2
    8112    8136    8154    8208       2    8109    8049    8103    8133       1
    8106    8043    8103    8133       1    8103    8133    8151    8193       2
    8103    8133    8151    8196       2    8103    8133    8151    8199       2
    8100    8037    8094    8130       1    8097    8031    8094    8130       1
    8094    8130    8148    8184       2    8094    8130    8148    8187       2
    8094    8130    8148    8190       2    8091    8025    8088    8127       1
    8088    8127    8145    8175       2    8088    8127    8145    8178       2
    8088    8127    8145    8181       2    8085    8019    8088    8127       1
    8082    8016    8076    8124       1    8079    8010    8076    8124       1
    8076    8124    8142    8166       2    8076    8124    8142    8169       2
    8076    8124    8142    8172       2    8073    8001    8067    8121       1
    8070    7995    8067    8121       1    8067    8121    8139    8157       2
    8067    8121    8139    8160       2    8067    8121    8139    8163       2
    8064    7992    8061    8112       1    8064    7992    8061    8118       1
    8061    8112    8055    8115       1    8058    7989    8055    8112       1
    8058    7989    8055    8115       1    8055    8112    8061    8118       1
    8052    7986    8049    8103       1    8052    7986    8049    8109       1
    8049    8103    8043    8106       1    8046    7983    8043    8103       1
    8046    7983    8043    8106       1    8043    8103    8049    8109       1
    8040    7980    8037    8094       1    8040    7980    8037    8100       1
    8037    8094    8031    8097       1    8034    7977    8031    8094       1
    8034    7977    8031    8097       1    8031    8094    8037    8100       1
    8028    7974    8025    8088       1    8028    7974    8025    8091       1
    8025    8088    8019    8085       1    8022    7971    8019    8085       1
    8022    7971    8019    8088       1    8019    8088    8025    8091       1
    8016    8076    8010    8079       1    8013    7968    8016    8076       1
    8013    7968    8016    8082       1    8010    8076    8016    8082       1
    8007    7965    8010    8076       1    8007    7965    8010    8079       1
    8004    7962    8001    8067       1    8004    7962    8001    8073       1
    8001    8067    7995    8070       1    7998    7959    7995    8067       1
    7998    7959    7995    8070       1    7995    8067    8001    8073       1
    7992    7953    7989    8058       1    7989    7953    7992    8064       1
    7986    7950    7983    8046       1    7983    7950    7986    8052       1
    7980    7944    7977    8034       1    7977    7944    7980    8040       1
    7974    7941    7971    8022       1    7971    7941    7974    8028       1
    7968    7938    7965    8007       1    7965    7938    7968    8013       1
    7962    7935    7959    7998       1    7959    7935    7962    8004       1
    7953    7989    8055    8115       1    7953    7992    8061    8118       1
    7950    7983    8043    8106       1    7950    7986    8049    8109       1
    7944    7977    8031    8097       1    7944    7980    8037    8100       1
    7941    7971    8019    8085       1    7941    7974    8025    8091       1
    7938    7965    8010    8079       1    7938    7968    8016    8082       1
    7935    7959    7995    8070       1    7935    7962    8001    8073       1
    7932    7899    7929    7956       1    7926    7896    7929    7956       1
    7926    7950    7983    8046       1    7926    7950    7986    8052       1
    7926    7953    7989    8058       1    7926    7953    7992    8064       1
    7923    7890    7920    7947       1    7917    7884    7920    7947       1
    7917    7941    7971    8022       1    7917    7941    7974    8028       1
    7917    7944    7977    8034       1    7917    7944    7980    8040       1
    7914    7935    7959    7998       1    7914    7935    7962    8004       1
    7914    7938    7965    8007       1    7914    7938    7968    8013       1
    7911    7872    7878    7914       1    7896    7929    7899    7932       1
    7893    7863    7896    7926       1    7893    7863    7896    7929       1
    7887    7857    7884    7917       1    7887    7857    7884    7920       1
    7884    7920    7890    7923       1    7881    7854    7878    7914       1
    7875    7851    7872    7878       1    7875    7851    7872    7911       1
    7872    7878    7854    7881       1    7866    7845    7863    7893       1
    7866    7860    7890    7923       1    7866    7899    7929    7956       1
    7863    7896    7929    7956       1    7860    7842    7857    7887       1
    7860    7866    7899    7932       1    7860    7890    7920    7947       1
    7857    7884    7920    7947       1    7854    7878    7872    7911       1
    7845    7866    7899    7932       1    7842    7860    7890    7923       1
    7839    7836    7851    7875       1    7836    7839    7854    7881       1
    7836    7851    7872    7911       1    7833    7812    7827    7848       1
    7830    7806    7827    7848       1    7827    7848    7869    7902       2
    7827    7848    7869    7905       2    7827    7848    7869    7908       2
    7824    7800    7818    7836       1    7821    7839    7854    7881       1
    7821    7842    7857    7887       1    7821    7845    7863    7893       1
    7818    7836    7851    7875       1    7815    7791    7812    7827       1
    7815    7791    7812    7833       1    7812    7827    7806    7830       1
    7809    7788    7806    7827       1    7809    7788    7806    7830       1
    7806    7827    7812    7833       1    7803    7785    7800    7818       1
    7803    7785    7800    7824       1    7797    7782    7794    7818       1
    7797    7782    7794    7821       1    7794    7818    7800    7824       1
    7791    7779    7788    7809       1    7788    7779    7791    7815       1
    7785    7776    7782    7797       1    7782    7776    7785    7803       1
    7779    7788    7806    7830       1    7779    7791    7812    7833       1
    7776    7785    7800    7824       1    7773    7776    7782    7797       1
    7773    7776    7785    7803       1    7773    7779    7788    7809       1
    7773    7779    7791    7815       1    7770    7758    7764    7773       1
    7767    7752    7764    7773       1    7761    7740    7758    7764       1
    7761    7740    7758    7770       1    7758    7764    7752    7767       1
    7755    7737    7752    7764       1    7755    7737    7752    7767       1
    7752    7764    7758    7770       1    7740    7731    7737    7755       1
    7737    7731    7740    7761       1    7731    7728    7734    7743       2
    7731    7728    7734    7746       2    7731    7728    7734    7749       2
    7731    7737    7752    7767       1    7731    7740    7758    7770       1
    7728    7731    7737    7755       1    7728    7731    7740    7761       1
    8601    8544    8595    8619       1    8598    8538    8595    8619       1
    8595    8619    8637    8685       2    8595    8619    8637    8688       2
    8595    8619    8637    8691       2    8592    8532    8586    8616       1
    8589    8526    8586    8616       1    8586    8616    8634    8676       2
    8586    8616    8634    8679       2    8586    8616    8634    8682       2
    8583    8520    8577    8613       1    8580    8514    8577    8613       1
    8577    8613    8631    8667       2    8577    8613    8631    8670       2
    8577    8613    8631    8673       2    8574    8508    8571    8610       1
    8571    8610    8628    8658       2    8571    8610    8628    8661       2
    8571    8610    8628    8664       2    8568    8502    8571    8610       1
    8565    8499    8559    8607       1    8562    8493    8559    8607       1
    8559    8607    8625    8649       2    8559    8607    8625    8652       2
    8559    8607    8625    8655       2    8556    8484    8550    8604       1
    8553    8478    8550    8604       1    8550    8604    8622    8640       2
    8550    8604    8622    8643       2    8550    8604    8622    8646       2
    8547    8475    8544    8595       1    8547    8475    8544    8601       1
    8544    8595    8538    8598       1    8541    8472    8538    8595       1
    8541    8472    8538    8598       1    8538    8595    8544    8601       1
    8535    8469    8532    8586       1    8535    8469    8532    8592       1
    8532    8586    8526    8589       1    8529    8466    8526    8586       1
    8529    8466    8526    8589       1    8526    8586    8532    8592       1
    8523    8463    8520    8577       1    8523    8463    8520    8583       1
    8520    8577    8514    8580       1    8517    8460    8514    8577       1
    8517    8460    8514    8580       1    8514    8577    8520    8583       1
    8511    8457    8508    8571       1    8511    8457    8508    8574       1
    8508    8571    8502    8568       1    8505    8454    8502    8568       1
    8505    8454    8502    8571       1    8502    8571    8508    8574       1
    8499    8559    8493    8562       1    8496    8451    8499    8559       1
    8496    8451    8499    8565       1    8493    8559    8499    8565       1
    8490    8448    8493    8559       1    8490    8448    8493    8562       1
    8487    8445    8484    8550       1    8487    8445    8484    8556       1
    8484    8550    8478    8553       1    8481    8442    8478    8550       1
    8481    8442    8478    8553       1    8478    8550    8484    8556       1
    8475    8436    8472    8541       1    8472    8436    8475    8547       1
    8469    8433    8466    8529       1    8466    8433    8469    8535       1
    8463    8427    8460    8517       1    8460    8427    8463    8523       1
    8457    8424    8454    8505       1    8454    8424    8457    8511       1
    8451    8421    8448    8490       1    8448    8421    8451    8496       1
    8445    8418    8442    8481       1    8442    8418    8445    8487       1
    8436    8472    8538    8598       1    8436    8475    8544    8601       1
    8433    8466    8526    8589       1    8433    8469    8532    8592       1
    8427    8460    8514    8580       1    8427    8463    8520    8583       1
    8424    8454    8502    8568       1    8424    8457    8508    8574       1
    8421    8448    8493    8562       1    8421    8451    8499    8565       1
    8418    8442    8478    8553       1    8418    8445    8484    8556       1
    8415    8382    8412    8439       1    8409    8379    8412    8439       1
    8409    8433    8466    8529       1    8409    8433    8469    8535       1
    8409    8436    8472    8541       1    8409    8436    8475    8547       1
    8406    8373    8403    8430       1    8400    8367    8403    8430       1
    8400    8424    8454    8505       1    8400    8424    8457    8511       1
    8400    8427    8460    8517       1    8400    8427    8463    8523       1
    8397    8418    8442    8481       1    8397    8418    8445    8487       1
    8397    8421    8448    8490       1    8397    8421    8451    8496       1
    8394    8355    8361    8397       1    8379    8412    8382    8415       1
    8376    8346    8379    8409       1    8376    8346    8379    8412       1
    8370    8340    8367    8400       1    8370    8340    8367    8403       1
    8367    8403    8373    8406       1    8364    8337    8361    8397       1
    8358    8334    8355    8361       1    8358    8334    8355    8394       1
    8355    8361    8337    8364       1    8349    8328    8346    8376       1
    8349    8343    8373    8406       1    8349    8382    8412    8439       1
    8346    8379    8412    8439       1    8343    8325    8340    8370       1
    8343    8349    8382    8415       1    8343    8373    8403    8430       1
    8340    8367    8403    8430       1    8337    8361    8355    8394       1
    8328    8349    8382    8415       1    8325    8343    8373    8406       1
    8322    8319    8334    8358       1    8319    8322    8337    8364       1
    8319    8334    8355    8394       1    8316    8295    8310    8331       1
    8313    8289    8310    8331       1    8310    8331    8352    8385       2
    8310    8331    8352    8388       2    8310    8331    8352    8391       2
    8307    8283    8301    8319       1    8304    8322    8337    8364       1
    8304    8325    8340    8370       1    8304    8328    8346    8376       1
    8301    8319    8334    8358       1    8298    8274    8295    8310       1
    8298    8274    8295    8316       1    8295    8310    8289    8313       1
    8292    8271    8289    8310       1    8292    8271    8289    8313       1
    8289    8310    8295    8316       1    8286    8268    8283    8301       1
    8286    8268    8283    8307       1    8280    8265    8277    8301       1
    8280    8265    8277    8304       1    8277    8301    8283    8307       1
    8274    8262    8271    8292       1    8271    8262    8274    8298       1
    8268    8259    8265    8280       1    8265    8259    8268    8286       1
    8262    8271    8289    8313       1    8262    8274    8295    8316       1
    8259    8268    8283    8307       1    8256    8259    8265    8280       1
    8256    8259    8268    8286       1    8256    8262    8271    8292       1
    8256    8262    8274    8298       1    8253    8241    8247    8256       1
    8250    8235    8247    8256       1    8244    8223    8241    8247       1
    8244    8223    8241    8253       1    8241    8247    8235    8250       1
    8238    8220    8235    8247       1    8238    8220    8235    8250       1
    8235    8247    8241    8253       1    8223    8214    8220    8238       1
    8220    8214    8223    8244       1    8214    8211    8217    8226       2
    8214    8211    8217    8229       2    8214    8211    8217    8232       2
    8214    8220    8235    8250       1    8214    8223    8241    8253       1
    8211    8214    8220    8238       1    8211    8214    8223    8244       1
    9084    9027    9078    9102       1    9081    9021    9078    9102       1
    9078    9102    9120    9168       2    9078    9102    9120    9171       2
    9078    9102    9120    9174       2    9075    9015    9069    9099       1
    9072    9009    9069    9099       1    9069    9099    9117    9159       2
    9069    9099    9117    9162       2    9069    9099    9117    9165       2
    9066    9003    9060    9096       1    9063    8997    9060    9096       1
    9060    9096    9114    9150       2    9060    9096    9114    9153       2
    9060    9096    9114    9156       2    9057    8991    9054    9093       1
    9054    9093    9111    9141       2    9054    9093    9111    9144       2
    9054    9093    9111    9147       2    9051    8985    9054    9093       1
    9048    8982    9042    9090       1    9045    8976    9042    9090       1
    9042    9090    9108    9132       2    9042    9090    9108    9135       2
    9042    9090    9108    9138       2    9039    8967    9033    9087       1
    9036    8961    9033    9087       1    9033    9087    9105    9123       2
    9033    9087    9105    9126       2    9033    9087    9105    9129       2
    9030    8958    9027    9078       1    9030    8958    9027    9084       1
    9027    9078    9021    9081       1    9024    8955    9021    9078       1
    9024    8955    9021    9081       1    9021    9078    9027    9084       1
    9018    8952    9015    9069       1    9018    8952    9015    9075       1
    9015    9069    9009    9072       1    9012    8949    9009    9069       1
    9012    8949    9009    9072       1    9009    9069    9015    9075       1
    9006    8946    9003    9060       1    9006    8946    9003    9066       1
    9003    9060    8997    9063       1    9000    8943    8997    9060       1
    9000    8943    8997    9063       1    8997    9060    9003    9066       1
    8994    8940    8991    9054       1    8994    8940    8991    9057       1
    8991    9054    8985    9051       1    8988    8937    8985    9051       1
    8988    8937    8985    9054       1    8985    9054    8991    9057       1
    8982    9042    8976    9045       1    8979    8934    8982    9042       1
    8979    8934    8982    9048       1    8976    9042    8982    9048       1
    8973    8931    8976    9042       1    8973    8931    8976    9045       1
    8970    8928    8967    9033       1    8970    8928    8967    9039       1
    8967    9033    8961    9036       1    8964    8925    8961    9033       1
    8964    8925    8961    9036       1    8961    9033    8967    9039       1
    8958    8919    8955    9024       1    8955    8919    8958    9030       1
    8952    8916    8949    9012       1    8949    8916    8952    9018       1
    8946    8910    8943    9000       1    8943    8910    8946    9006       1
    8940    8907    8937    8988       1    8937    8907    8940    8994       1
    8934    8904    8931    8973       1    8931    8904    8934    8979       1
    8928    8901    8925    8964       1    8925    8901    8928    8970       1
    8919    8955    9021    9081       1    8919    8958    9027    9084       1
    8916    8949    9009    9072       1    8916    8952    9015    9075       1
    8910    8943    8997    9063       1    8910    8946    9003    9066       1
    8907    8937    8985    9051       1    8907    8940    8991    9057       1
    8904    8931    8976    9045       1    8904    8934    8982    9048       1
    8901    8925    8961    9036       1    8901    8928    8967    9039       1
    8898    8865    8895    8922       1    8892    8862    8895    8922       1
    8892    8916    8949    9012       1    8892    8916    8952    9018       1
    8892    8919    8955    9024       1    8892    8919    8958    9030       1
    8889    8856    8886    8913       1    8883    8850    8886    8913       1
    8883    8907    8937    8988       1    8883    8907    8940    8994       1
    8883    8910    8943    9000       1    8883    8910    8946    9006       1
    8880    8901    8925    8964       1    8880    8901    8928    8970       1
    8880    8904    8931    8973       1    8880    8904    8934    8979       1
    8877    8838    8844    8880       1    8862    8895    8865    8898       1
    8859    8829    8862    8892       1    8859    8829    8862    8895       1
    8853    8823    8850    8883       1    8853    8823    8850    8886       1
    8850    8886    8856    8889       1    8847    8820    8844    8880       1
    8841    8817    8838    8844       1    8841    8817    8838    8877       1
    8838    8844    8820    8847       1    8832    8811    8829    8859       1
    8832    8826    8856    8889       1    8832    8865    8895    8922       1
    8829    8862    8895    8922       1    8826    8808    8823    8853       1
    8826    8832    8865    8898       1    8826    8856    8886    8913       1
    8823    8850    8886    8913       1    8820    8844    8838    8877       1
    8811    8832    8865    8898       1    8808    8826    8856    8889       1
    8805    8802    8817    8841       1    8802    8805    8820    8847       1
    8802    8817    8838    8877       1    8799    8778    8793    8814       1
    8796    8772    8793    8814       1    8793    8814    8835    8868       2
    8793    8814    8835    8871       2    8793    8814    8835    8874       2
    8790    8766    8784    8802       1    8787    8805    8820    8847       1
    8787    8808    8823    8853       1    8787    8811    8829    8859       1
    8784    8802    8817    8841       1    8781    8757    8778    8793       1
    8781    8757    8778    8799       1    8778    8793    8772    8796       1
    8775    8754    8772    8793       1    8775    8754    8772    8796       1
    8772    8793    8778    8799       1    8769    8751    8766    8784       1
    8769    8751    8766    8790       1    8763    8748    8760    8784       1
    8763    8748    8760    8787       1    8760    8784    8766    8790       1
    8757    8745    8754    8775       1    8754    8745    8757    8781       1
    8751    8742    8748    8763       1    8748    8742    8751    8769       1
    8745    8754    8772    8796       1    8745    8757    8778    8799       1
    8742    8751    8766    8790       1    8739    8742    8748    8763       1
    8739    8742    8751    8769       1    8739    8745    8754    8775       1
    8739    8745    8757    8781       1    8736    8724    8730    8739       1
    8733    8718    8730    8739       1    8727    8706    8724    8730       1
    8727    8706    8724    8736       1    8724    8730    8718    8733       1
    8721    8703    8718    8730       1    8721    8703    8718    8733       1
    8718    8730    8724    8736       1    8706    8697    8703    8721       1
    8703    8697    8706    8727       1    8697    8694    8700    8709       2
    8697    8694    8700    8712       2    8697    8694    8700    8715       2
    8697    8703    8718    8733       1    8697    8706    8724    8736       1
    8694    8697    8703    8721       1    8694    8697    8706    8727       1
    9567    9510    9561    9585       1    9564    9504    9561    9585       1
    9561    9585    9603    9651       2    9561    9585    9603    9654       2
    9561    9585    9603    9657       2    9558    9498    9552    9582       1
    9555    9492    9552    9582       1    9552    9582    9600    9642       2
    9552    9582    9600    9645       2    9552    9582    9600    9648       2
    9549    9486    9543    9579       1    9546    9480    9543    9579       1
    9543    9579    9597    9633       2    9543    9579    9597    9636       2
    9543    9579    9597    9639       2    9540    9474    9537    9576       1
    9537    9576    9594    9624       2    9537    9576    9594    9627       2
    9537    9576    9594    9630       2    9534    9468    9537    9576       1
    9531    9465    9525    9573       1    9528    9459    9525    9573       1
    9525    9573    9591    9615       2    9525    9573    9591    9618       2
    9525    9573    9591    9621       2    9522    9450    9516    9570       1
    9519    9444    9516    9570       1    9516    9570    9588    9606       2
    9516    9570    9588    9609       2    9516    9570    9588    9612       2
    9513    9441    9510    9561       1    9513    9441    9510    9567       1
    9510    9561    9504    9564       1    9507    9438    9504    9561       1
    9507    9438    9504    9564       1    9504    9561    9510    9567       1
    9501    9435    9498    9552       1    9501    9435    9498    9558       1
    9498    9552    9492    9555       1    9495    9432    9492    9552       1
    9495    9432    9492    9555       1    9492    9552    9498    9558       1
    9489    9429    9486    9543       1    9489    9429    9486    9549       1
    9486    9543    9480    9546       1    9483    9426    9480    9543       1
    9483    9426    9480    9546       1    9480    9543    9486    9549       1
    9477    9423    9474    9537       1    9477    9423    9474    9540       1
    9474    9537    9468    9534       1    9471    9420    9468    9534       1
    9471    9420    9468    9537       1    9468    9537    9474    9540       1
    9465    9525    9459    9528       1    9462    9417    9465    9525       1
    9462    9417    9465    9531       1    9459    9525    9465    9531       1
    9456    9414    9459    9525       1    9456    9414    9459    9528       1
    9453    9411    9450    9516       1    9453    9411    9450    9522       1
    9450    9516    9444    9519       1    9447    9408    9444    9516       1
    9447    9408    9444    9519       1    9444    9516    9450    9522       1
    9441    9402    9438    9507       1    9438    9402    9441    9513       1
    9435    9399    9432    9495       1    9432    9399    9435    9501       1
    9429    9393    9426    9483       1    9426    9393    9429    9489       1
    9423    9390    9420    9471       1    9420    9390    9423    9477       1
    9417    9387    9414    9456       1    9414    9387    9417    9462       1
    9411    9384    9408    9447       1    9408    9384    9411    9453       1
    9402    9438    9504    9564       1    9402    9441    9510    9567       1
    9399    9432    9492    9555       1    9399    9435    9498    9558       1
    9393    9426    9480    9546       1    9393    9429    9486    9549       1
    9390    9420    9468    9534       1    9390    9423    9474    9540       1
    9387    9414    9459    9528       1    9387    9417    9465    9531       1
    9384    9408    9444    9519       1    9384    9411    9450    9522       1
    9381    9348    9378    9405       1    9375    9345    9378    9405       1
    9375    9399    9432    9495       1    9375    9399    9435    9501       1
    9375    9402    9438    9507       1    9375    9402    9441    9513       1
    9372    9339    9369    9396       1    9366    9333    9369    9396       1
    9366    9390    9420    9471       1    9366    9390    9423    9477       1
    9366    9393    9426    9483       1    9366    9393    9429    9489       1
    9363    9384    9408    9447       1    9363    9384    9411    9453       1
    9363    9387    9414    9456       1    9363    9387    9417    9462       1
    9360    9321    9327    9363       1    9345    9378    9348    9381       1
    9342    9312    9345    9375       1    9342    9312    9345    9378       1
    9336    9306    9333    9366       1    9336    9306    9333    9369       1
    9333    9369    9339    9372       1    9330    9303    9327    9363       1
    9324    9300    9321    9327       1    9324    9300    9321    9360       1
    9321    9327    9303    9330       1    9315    9294    9312    9342       1
    9315    9309    9339    9372       1    9315    9348    9378    9405       1
    9312    9345    9378    9405       1    9309    9291    9306    9336       1
    9309    9315    9348    9381       1    9309    9339    9369    9396       1
    9306    9333    9369    9396       1    9303    9327    9321    9360       1
    9294    9315    9348    9381       1    9291    9309    9339    9372       1
    9288    9285    9300    9324       1    9285    9288    9303    9330       1
    9285    9300    9321    9360       1    9282    9261    9276    9297       1
    9279    9255    9276    9297       1    9276    9297    9318    9351       2
    9276    9297    9318    9354       2    9276    9297    9318    9357       2
    9273    9249    9267    9285       1    9270    9288    9303    9330       1
    9270    9291    9306    9336       1    9270    9294    9312    9342       1
    9267    9285    9300    9324       1    9264    9240    9261    9276       1
    9264    9240    9261    9282       1    9261    9276    9255    9279       1
    9258    9237    9255    9276       1    9258    9237    9255    9279       1
    9255    9276    9261    9282       1    9252    9234    9249    9267       1
    9252    9234    9249    9273       1    9246    9231    9243    9267       1
    9246    9231    9243    9270       1    9243    9267    9249    9273       1
    9240    9228    9237    9258       1    9237    9228    9240    9264       1
    9234    9225    9231    9246       1    9231    9225    9234    9252       1
    9228    9237    9255    9279       1    9228    9240    9261    9282       1
    9225    9234    9249    9273       1    9222    9225    9231    9246       1
    9222    9225    9234    9252       1    9222    9228    9237    9258       1
    9222    9228    9240    9264       1    9219    9207    9213    9222       1
    9216    9201    9213    9222       1    9210    9189    9207    9213       1
    9210    9189    9207    9219       1    9207    9213    9201    9216       1
    9204    9186    9201    9213       1    9204    9186    9201    9216       1
    9201    9213    9207    9219       1    9189    9180    9186    9204       1
    9186    9180    9189    9210       1    9180    9177    9183    9192       2
    9180    9177    9183    9195       2    9180    9177    9183    9198       2
    9180    9186    9201    9216       1    9180    9189    9207    9219       1
    9177    9180    9186    9204       1    9177    9180    9189    9210       1
   10050    9993   10044   10068       1   10047    9987   10044   10068       1
   10044   10068   10086   10134       2   10044   10068   10086   10137       2
   10044   10068   10086   10140       2   10041    9981   10035   10065       1
   10038    9975   10035   10065       1   10035   10065   10083   10125       2
   10035   10065   10083   10128       2   10035   10065   10083   10131       2
   10032    9969   10026   10062       1   10029    9963   10026   10062       1
   10026   10062   10080   10116       2   10026   10062   10080   10119       2
   10026   10062   10080   10122       2   10023    9957   10020   10059       1
   10020   10059   10077   10107       2   10020   10059   10077   10110       2
   10020   10059   10077   10113       2   10017    9951   10020   10059       1
   10014    9948   10008   10056       1   10011    9942   10008   10056       1
   10008   10056   10074   10098       2   10008   10056   10074   10101       2
   10008   10056   10074   10104       2   10005    9933    9999   10053       1
   10002    9927    9999   10053       1    9999   10053   10071   10089       2
    9999   10053   10071   10092       2    9999   10053   10071   10095       2
    9996    9924    9993   10044       1    9996    9924    9993   10050       1
    9993   10044    9987   10047       1    9990    9921    9987   10044       1
    9990    9921    9987   10047       1    9987   10044    9993   10050       1
    9984    9918    9981   10035       1    9984    9918    9981   10041       1
    9981   10035    9975   10038       1    9978    9915    9975   10035       1
    9978    9915    9975   10038       1    9975   10035    9981   10041       1
    9972    9912    9969   10026       1    9972    9912    9969   10032       1
    9969   10026    9963   10029       1    9966    9909    9963   10026       1
    9966    9909    9963   10029       1    9963   10026    9969   10032       1
    9960    9906    9957   10020       1    9960    9906    9957   10023       1
    9957   10020    9951   10017       1    9954    9903    9951   10017       1
    9954    9903    9951   10020       1    9951   10020    9957   10023       1
    9948   10008    9942   10011       1    9945    9900    9948   10008       1
    9945    9900    9948   10014       1    9942   10008    9948   10014       1
    9939    9897    9942   10008       1    9939    9897    9942   10011       1
    9936    9894    9933    9999       1    9936    9894    9933   10005       1
    9933    9999    9927   10002       1    9930    9891    9927    9999       1
    9930    9891    9927   10002       1    9927    9999    9933   10005       1
    9924    9885    9921    9990       1    9921    9885    9924    9996       1
    9918    9882    9915    9978       1    9915    9882    9918    9984       1
    9912    9876    9909    9966       1    9909    9876    9912    9972       1
    9906    9873    9903    9954       1    9903    9873    9906    9960       1
    9900    9870    9897    9939       1    9897    9870    9900    9945       1
    9894    9867    9891    9930       1    9891    9867    9894    9936       1
    9885    9921    9987   10047       1    9885    9924    9993   10050       1
    9882    9915    9975   10038       1    9882    9918    9981   10041       1
    9876    9909    9963   10029       1    9876    9912    9969   10032       1
    9873    9903    9951   10017       1    9873    9906    9957   10023       1
    9870    9897    9942   10011       1    9870    9900    9948   10014       1
    9867    9891    9927   10002       1    9867    9894    9933   10005       1
    9864    9831    9861    9888       1    9858    9828    9861    9888       1
    9858    9882    9915    9978       1    9858    9882    9918    9984       1
    9858    9885    9921    9990       1    9858    9885    9924    9996       1
    9855    9822    9852    9879       1    9849    9816    9852    9879       1
    9849    9873    9903    9954       1    9849    9873    9906    9960       1
    9849    9876    9909    9966       1    9849    9876    9912    9972       1
    9846    9867    9891    9930       1    9846    9867    9894    9936       1
    9846    9870    9897    9939       1    9846    9870    9900    9945       1
    9843    9804    9810    9846       1    9828    9861    9831    9864       1
    9825    9795    9828    9858       1    9825    9795    9828    9861       1
    9819    9789    9816    9849       1    9819    9789    9816    9852       1
    9816    9852    9822    9855       1    9813    9786    9810    9846       1
    9807    9783    9804    9810       1    9807    9783    9804    9843       1
    9804    9810    9786    9813       1    9798    9777    9795    9825       1
    9798    9792    9822    9855       1    9798    9831    9861    9888       1
    9795    9828    9861    9888       1    9792    9774    9789    9819       1
    9792    9798    9831    9864       1    9792    9822    9852    9879       1
    9789    9816    9852    9879       1    9786    9810    9804    9843       1
    9777    9798    9831    9864       1    9774    9792    9822    9855       1
    9771    9768    9783    9807       1    9768    9771    9786    9813       1
    9768    9783    9804    9843       1    9765    9744    9759    9780       1
    9762    9738    9759    9780       1    9759    9780    9801    9834       2
    9759    9780    9801    9837       2    9759    9780    9801    9840       2
    9756    9732    9750    9768       1    9753    9771    9786    9813       1
    9753    9774    9789    9819       1    9753    9777    9795    9825       1
    9750    9768    9783    9807       1    9747    9723    9744    9759       1
    9747    9723    9744    9765       1    9744    9759    9738    9762       1
    9741    9720    9738    9759       1    9741    9720    9738    9762       1
    9738    9759    9744    9765       1    9735    9717    9732    9750       1
    9735    9717    9732    9756       1    9729    9714    9726    9750       1
    9729    9714    9726    9753       1    9726    9750    9732    9756       1
    9723    9711    9720    9741       1    9720    9711    9723    9747       1
    9717    9708    9714    9729       1    9714    9708    9717    9735       1
    9711    9720    9738    9762       1    9711    9723    9744    9765       1
    9708    9717    9732    9756       1    9705    9708    9714    9729       1
    9705    9708    9717    9735       1    9705    9711    9720    9741       1
    9705    9711    9723    9747       1    9702    9690    9696    9705       1
    9699    9684    9696    9705       1    9693    9672    9690    9696       1
    9693    9672    9690    9702       1    9690    9696    9684    9699       1
    9687    9669    9684    9696       1    9687    9669    9684    9699       1
    9684    9696    9690    9702       1    9672    9663    9669    9687       1
    9669    9663    9672    9693       1    9663    9660    9666    9675       2
    9663    9660    9666    9678       2    9663    9660    9666    9681       2
    9663    9669    9684    9699       1    9663    9672    9690    9702       1
    9660    9663    9669    9687       1    9660    9663    9672    9693       1
   10533   10476   10527   10551       1   10530   10470   10527   10551       1
   10527   10551   10569   10617       2   10527   10551   10569   10620       2
   10527   10551   10569   10623       2   10524   10464   10518   10548       1
   10521   10458   10518   10548       1   10518   10548   10566   10608       2
   10518   10548   10566   10611       2   10518   10548   10566   10614       2
   10515   10452   10509   10545       1   10512   10446   10509   10545       1
   10509   10545   10563   10599       2   10509   10545   10563   10602       2
   10509   10545   10563   10605       2   10506   10440   10503   10542       1
   10503   10542   10560   10590       2   10503   10542   10560   10593       2
   10503   10542   10560   10596       2   10500   10434   10503   10542       1
   10497   10431   10491   10539       1   10494   10425   10491   10539       1
   10491   10539   10557   10581       2   10491   10539   10557   10584       2
   10491   10539   10557   10587       2   10488   10416   10482   10536       1
   10485   10410   10482   10536       1   10482   10536   10554   10572       2
   10482   10536   10554   10575       2   10482   10536   10554   10578       2
   10479   10407   10476   10527       1   10479   10407   10476   10533       1
   10476   10527   10470   10530       1   10473   10404   10470   10527       1
   10473   10404   10470   10530       1   10470   10527   10476   10533       1
   10467   10401   10464   10518       1   10467   10401   10464   10524       1
   10464   10518   10458   10521       1   10461   10398   10458   10518       1
   10461   10398   10458   10521       1   10458   10518   10464   10524       1
   10455   10395   10452   10509       1   10455   10395   10452   10515       1
   10452   10509   10446   10512       1   10449   10392   10446   10509       1
   10449   10392   10446   10512       1   10446   10509   10452   10515       1
   10443   10389   10440   10503       1   10443   10389   10440   10506       1
   10440   10503   10434   10500       1   10437   10386   10434   10500       1
   10437   10386   10434   10503       1   10434   10503   10440   10506       1
   10431   10491   10425   10494       1   10428   10383   10431   10491       1
   10428   10383   10431   10497       1   10425   10491   10431   10497       1
   10422   10380   10425   10491       1   10422   10380   10425   10494       1
   10419   10377   10416   10482       1   10419   10377   10416   10488       1
   10416   10482   10410   10485       1   10413   10374   10410   10482       1
   10413   10374   10410   10485       1   10410   10482   10416   10488       1
   10407   10368   10404   10473       1   10404   10368   10407   10479       1
   10401   10365   10398   10461       1   10398   10365   10401   10467       1
   10395   10359   10392   10449       1   10392   10359   10395   10455       1
   10389   10356   10386   10437       1   10386   10356   10389   10443       1
   10383   10353   10380   10422       1   10380   10353   10383   10428       1
   10377   10350   10374   10413       1   10374   10350   10377   10419       1
   10368   10404   10470   10530       1   10368   10407   10476   10533       1
   10365   10398   10458   10521       1   10365   10401   10464   10524       1
   10359   10392   10446   10512       1   10359   10395   10452   10515       1
   10356   10386   10434   10500       1   10356   10389   10440   10506       1
   10353   10380   10425   10494       1   10353   10383   10431   10497       1
   10350   10374   10410   10485       1   10350   10377   10416   10488       1
   10347   10314   10344   10371       1   10341   10311   10344   10371       1
   10341   10365   10398   10461       1   10341   10365   10401   10467       1
   10341   10368   10404   10473       1   10341   10368   10407   10479       1
   10338   10305   10335   10362       1   10332   10299   10335   10362       1
   10332   10356   10386   10437       1   10332   10356   10389   10443       1
   10332   10359   10392   10449       1   10332   10359   10395   10455       1
   10329   10350   10374   10413       1   10329   10350   10377   10419       1
   10329   10353   10380   10422       1   10329   10353   10383   10428       1
   10326   10287   10293   10329       1   10311   10344   10314   10347       1
   10308   10278   10311   10341       1   10308   10278   10311   10344       1
   10302   10272   10299   10332       1   10302   10272   10299   10335       1
   10299   10335   10305   10338       1   10296   10269   10293   10329       1
   10290   10266   10287   10293       1   10290   10266   10287   10326       1
   10287   10293   10269   10296       1   10281   10260   10278   10308       1
   10281   10275   10305   10338       1   10281   10314   10344   10371       1
   10278   10311   10344   10371       1   10275   10257   10272   10302       1
   10275   10281   10314   10347       1   10275   10305   10335   10362       1
   10272   10299   10335   10362       1   10269   10293   10287   10326       1
   10260   10281   10314   10347       1   10257   10275   10305   10338       1
   10254   10251   10266   10290       1   10251   10254   10269   10296       1
   10251   10266   10287   10326       1   10248   10227   10242   10263       1
   10245   10221   10242   10263       1   10242   10263   10284   10317       2
   10242   10263   10284   10320       2   10242   10263   10284   10323       2
   10239   10215   10233   10251       1   10236   10254   10269   10296       1
   10236   10257   10272   10302       1   10236   10260   10278   10308       1
   10233   10251   10266   10290       1   10230   10206   10227   10242       1
   10230   10206   10227   10248       1   10227   10242   10221   10245       1
   10224   10203   10221   10242       1   10224   10203   10221   10245       1
   10221   10242   10227   10248       1   10218   10200   10215   10233       1
   10218   10200   10215   10239       1   10212   10197   10209   10233       1
   10212   10197   10209   10236       1   10209   10233   10215   10239       1
   10206   10194   10203   10224       1   10203   10194   10206   10230       1
   10200   10191   10197   10212       1   10197   10191   10200   10218       1
   10194   10203   10221   10245       1   10194   10206   10227   10248       1
   10191   10200   10215   10239       1   10188   10191   10197   10212       1
   10188   10191   10200   10218       1   10188   10194   10203   10224       1
   10188   10194   10206   10230       1   10185   10173   10179   10188       1
   10182   10167   10179   10188       1   10176   10155   10173   10179       1
   10176   10155   10173   10185       1   10173   10179   10167   10182       1
   10170   10152   10167   10179       1   10170   10152   10167   10182       1
   10167   10179   10173   10185       1   10155   10146   10152   10170       1
   10152   10146   10155   10176       1   10146   10143   10149   10158       2
   10146   10143   10149   10161       2   10146   10143   10149   10164       2
   10146   10152   10167   10182       1   10146   10155   10173   10185       1
   10143   10146   10152   10170       1   10143   10146   10155   10176       1
   11016   10959   11010   11034       1   11013   10953   11010   11034       1
   11010   11034   11052   11100       2   11010   11034   11052   11103       2
   11010   11034   11052   11106       2   11007   10947   11001   11031       1
   11004   10941   11001   11031       1   11001   11031   11049   11091       2
   11001   11031   11049   11094       2   11001   11031   11049   11097       2
   10998   10935   10992   11028       1   10995   10929   10992   11028       1
   10992   11028   11046   11082       2   10992   11028   11046   11085       2
   10992   11028   11046   11088       2   10989   10923   10986   11025       1
   10986   11025   11043   11073       2   10986   11025   11043   11076       2
   10986   11025   11043   11079       2   10983   10917   10986   11025       1
   10980   10914   10974   11022       1   10977   10908   10974   11022       1
   10974   11022   11040   11064       2   10974   11022   11040   11067       2
   10974   11022   11040   11070       2   10971   10899   10965   11019       1
   10968   10893   10965   11019       1   10965   11019   11037   11055       2
   10965   11019   11037   11058       2   10965   11019   11037   11061       2
   10962   10890   10959   11010       1   10962   10890   10959   11016       1
   10959   11010   10953   11013       1   10956   10887   10953   11010       1
   10956   10887   10953   11013       1   10953   11010   10959   11016       1
   10950   10884   10947   11001       1   10950   10884   10947   11007       1
   10947   11001   10941   11004       1   10944   10881   10941   11001       1
   10944   10881   10941   11004       1   10941   11001   10947   11007       1
   10938   10878   10935   10992       1   10938   10878   10935   10998       1
   10935   10992   10929   10995       1   10932   10875   10929   10992       1
   10932   10875   10929   10995       1   10929   10992   10935   10998       1
   10926   10872   10923   10986       1   10926   10872   10923   10989       1
   10923   10986   10917   10983       1   10920   10869   10917   10983       1
   10920   10869   10917   10986       1   10917   10986   10923   10989       1
   10914   10974   10908   10977       1   10911   10866   10914   10974       1
   10911   10866   10914   10980       1   10908   10974   10914   10980       1
   10905   10863   10908   10974       1   10905   10863   10908   10977       1
   10902   10860   10899   10965       1   10902   10860   10899   10971       1
   10899   10965   10893   10968       1   10896   10857   10893   10965       1
   10896   10857   10893   10968       1   10893   10965   10899   10971       1
   10890   10851   10887   10956       1   10887   10851   10890   10962       1
   10884   10848   10881   10944       1   10881   10848   10884   10950       1
   10878   10842   10875   10932       1   10875   10842   10878   10938       1
   10872   10839   10869   10920       1   10869   10839   10872   10926       1
   10866   10836   10863   10905       1   10863   10836   10866   10911       1
   10860   10833   10857   10896       1   10857   10833   10860   10902       1
   10851   10887   10953   11013       1   10851   10890   10959   11016       1
   10848   10881   10941   11004       1   10848   10884   10947   11007       1
   10842   10875   10929   10995       1   10842   10878   10935   10998       1
   10839   10869   10917   10983       1   10839   10872   10923   10989       1
   10836   10863   10908   10977       1   10836   10866   10914   10980       1
   10833   10857   10893   10968       1   10833   10860   10899   10971       1
   10830   10797   10827   10854       1   10824   10794   10827   10854       1
   10824   10848   10881   10944       1   10824   10848   10884   10950       1
   10824   10851   10887   10956       1   10824   10851   10890   10962       1
   10821   10788   10818   10845       1   10815   10782   10818   10845       1
   10815   10839   10869   10920       1   10815   10839   10872   10926       1
   10815   10842   10875   10932       1   10815   10842   10878   10938       1
   10812   10833   10857   10896       1   10812   10833   10860   10902       1
   10812   10836   10863   10905       1   10812   10836   10866   10911       1
   10809   10770   10776   10812       1   10794   10827   10797   10830       1
   10791   10761   10794   10824       1   10791   10761   10794   10827       1
   10785   10755   10782   10815       1   10785   10755   10782   10818       1
   10782   10818   10788   10821       1   10779   10752   10776   10812       1
   10773   10749   10770   10776       1   10773   10749   10770   10809       1
   10770   10776   10752   10779       1   10764   10743   10761   10791       1
   10764   10758   10788   10821       1   10764   10797   10827   10854       1
   10761   10794   10827   10854       1   10758   10740   10755   10785       1
   10758   10764   10797   10830       1   10758   10788   10818   10845       1
   10755   10782   10818   10845       1   10752   10776   10770   10809       1
   10743   10764   10797   10830       1   10740   10758   10788   10821       1
   10737   10734   10749   10773       1   10734   10737   10752   10779       1
   10734   10749   10770   10809       1   10731   10710   10725   10746       1
   10728   10704   10725   10746       1   10725   10746   10767   10800       2
   10725   10746   10767   10803       2   10725   10746   10767   10806       2
   10722   10698   10716   10734       1   10719   10737   10752   10779       1
   10719   10740   10755   10785       1   10719   10743   10761   10791       1
   10716   10734   10749   10773       1   10713   10689   10710   10725       1
   10713   10689   10710   10731       1   10710   10725   10704   10728       1
   10707   10686   10704   10725       1   10707   10686   10704   10728       1
   10704   10725   10710   10731       1   10701   10683   10698   10716       1
   10701   10683   10698   10722       1   10695   10680   10692   10716       1
   10695   10680   10692   10719       1   10692   10716   10698   10722       1
   10689   10677   10686   10707       1   10686   10677   10689   10713       1
   10683   10674   10680   10695       1   10680   10674   10683   10701       1
   10677   10686   10704   10728       1   10677   10689   10710   10731       1
   10674   10683   10698   10722       1   10671   10674   10680   10695       1
   10671   10674   10683   10701       1   10671   10677   10686   10707       1
   10671   10677   10689   10713       1   10668   10656   10662   10671       1
   10665   10650   10662   10671       1   10659   10638   10656   10662       1
   10659   10638   10656   10668       1   10656   10662   10650   10665       1
   10653   10635   10650   10662       1   10653   10635   10650   10665       1
   10650   10662   10656   10668       1   10638   10629   10635   10653       1
   10635   10629   10638   10659       1   10629   10626   10632   10641       2
   10629   10626   10632   10644       2   10629   10626   10632   10647       2
   10629   10635   10650   10665       1   10629   10638   10656   10668       1
   10626   10629   10635   10653       1   10626   10629   10638   10659       1
   11499   11442   11493   11517       1   11496   11436   11493   11517       1
   11493   11517   11535   11583       2   11493   11517   11535   11586       2
   11493   11517   11535   11589       2   11490   11430   11484   11514       1
   11487   11424   11484   11514       1   11484   11514   11532   11574       2
   11484   11514   11532   11577       2   11484   11514   11532   11580       2
   11481   11418   11475   11511       1   11478   11412   11475   11511       1
   11475   11511   11529   11565       2   11475   11511   11529   11568       2
   11475   11511   11529   11571       2   11472   11406   11469   11508       1
   11469   11508   11526   11556       2   11469   11508   11526   11559       2
   11469   11508   11526   11562       2   11466   11400   11469   11508       1
   11463   11397   11457   11505       1   11460   11391   11457   11505       1
   11457   11505   11523   11547       2   11457   11505   11523   11550       2
   11457   11505   11523   11553       2   11454   11382   11448   11502       1
   11451   11376   11448   11502       1   11448   11502   11520   11538       2
   11448   11502   11520   11541       2   11448   11502   11520   11544       2
   11445   11373   11442   11493       1   11445   11373   11442   11499       1
   11442   11493   11436   11496       1   11439   11370   11436   11493       1
   11439   11370   11436   11496       1   11436   11493   11442   11499       1
   11433   11367   11430   11484       1   11433   11367   11430   11490       1
   11430   11484   11424   11487       1   11427   11364   11424   11484       1
   11427   11364   11424   11487       1   11424   11484   11430   11490       1
   11421   11361   11418   11475       1   11421   11361   11418   11481       1
   11418   11475   11412   11478       1   11415   11358   11412   11475       1
   11415   11358   11412   11478       1   11412   11475   11418   11481       1
   11409   11355   11406   11469       1   11409   11355   11406   11472       1
   11406   11469   11400   11466       1   11403   11352   11400   11466       1
   11403   11352   11400   11469       1   11400   11469   11406   11472       1
   11397   11457   11391   11460       1   11394   11349   11397   11457       1
   11394   11349   11397   11463       1   11391   11457   11397   11463       1
   11388   11346   11391   11457       1   11388   11346   11391   11460       1
   11385   11343   11382   11448       1   11385   11343   11382   11454       1
   11382   11448   11376   11451       1   11379   11340   11376   11448       1
   11379   11340   11376   11451       1   11376   11448   11382   11454       1
   11373   11334   11370   11439       1   11370   11334   11373   11445       1
   11367   11331   11364   11427       1   11364   11331   11367   11433       1
   11361   11325   11358   11415       1   11358   11325   11361   11421       1
   11355   11322   11352   11403       1   11352   11322   11355   11409       1
   11349   11319   11346   11388       1   11346   11319   11349   11394       1
   11343   11316   11340   11379       1   11340   11316   11343   11385       1
   11334   11370   11436   11496       1   11334   11373   11442   11499       1
   11331   11364   11424   11487       1   11331   11367   11430   11490       1
   11325   11358   11412   11478       1   11325   11361   11418   11481       1
   11322   11352   11400   11466       1   11322   11355   11406   11472       1
   11319   11346   11391   11460       1   11319   11349   11397   11463       1
   11316   11340   11376   11451       1   11316   11343   11382   11454       1
   11313   11280   11310   11337       1   11307   11277   11310   11337       1
   11307   11331   11364   11427       1   11307   11331   11367   11433       1
   11307   11334   11370   11439       1   11307   11334   11373   11445       1
   11304   11271   11301   11328       1   11298   11265   11301   11328       1
   11298   11322   11352   11403       1   11298   11322   11355   11409       1
   11298   11325   11358   11415       1   11298   11325   11361   11421       1
   11295   11316   11340   11379       1   11295   11316   11343   11385       1
   11295   11319   11346   11388       1   11295   11319   11349   11394       1
   11292   11253   11259   11295       1   11277   11310   11280   11313       1
   11274   11244   11277   11307       1   11274   11244   11277   11310       1
   11268   11238   11265   11298       1   11268   11238   11265   11301       1
   11265   11301   11271   11304       1   11262   11235   11259   11295       1
   11256   11232   11253   11259       1   11256   11232   11253   11292       1
   11253   11259   11235   11262       1   11247   11226   11244   11274       1
   11247   11241   11271   11304       1   11247   11280   11310   11337       1
   11244   11277   11310   11337       1   11241   11223   11238   11268       1
   11241   11247   11280   11313       1   11241   11271   11301   11328       1
   11238   11265   11301   11328       1   11235   11259   11253   11292       1
   11226   11247   11280   11313       1   11223   11241   11271   11304       1
   11220   11217   11232   11256       1   11217   11220   11235   11262       1
   11217   11232   11253   11292       1   11214   11193   11208   11229       1
   11211   11187   11208   11229       1   11208   11229   11250   11283       2
   11208   11229   11250   11286       2   11208   11229   11250   11289       2
   11205   11181   11199   11217       1   11202   11220   11235   11262       1
   11202   11223   11238   11268       1   11202   11226   11244   11274       1
   11199   11217   11232   11256       1   11196   11172   11193   11208       1
   11196   11172   11193   11214       1   11193   11208   11187   11211       1
   11190   11169   11187   11208       1   11190   11169   11187   11211       1
   11187   11208   11193   11214       1   11184   11166   11181   11199       1
   11184   11166   11181   11205       1   11178   11163   11175   11199       1
   11178   11163   11175   11202       1   11175   11199   11181   11205       1
   11172   11160   11169   11190       1   11169   11160   11172   11196       1
   11166   11157   11163   11178       1   11163   11157   11166   11184       1
   11160   11169   11187   11211       1   11160   11172   11193   11214       1
   11157   11166   11181   11205       1   11154   11157   11163   11178       1
   11154   11157   11166   11184       1   11154   11160   11169   11190       1
   11154   11160   11172   11196       1   11151   11139   11145   11154       1
   11148   11133   11145   11154       1   11142   11121   11139   11145       1
   11142   11121   11139   11151       1   11139   11145   11133   11148       1
   11136   11118   11133   11145       1   11136   11118   11133   11148       1
   11133   11145   11139   11151       1   11121   11112   11118   11136       1
   11118   11112   11121   11142       1   11112   11109   11115   11124       2
   11112   11109   11115   11127       2   11112   11109   11115   11130       2
   11112   11118   11133   11148       1   11112   11121   11139   11151       1
   11109   11112   11118   11136       1   11109   11112   11121   11142       1
   11982   11925   11976   12000       1   11979   11919   11976   12000       1
   11976   12000   12018   12066       2   11976   12000   12018   12069       2
   11976   12000   12018   12072       2   11973   11913   11967   11997       1
   11970   11907   11967   11997       1   11967   11997   12015   12057       2
   11967   11997   12015   12060       2   11967   11997   12015   12063       2
   11964   11901   11958   11994       1   11961   11895   11958   11994       1
   11958   11994   12012   12048       2   11958   11994   12012   12051       2
   11958   11994   12012   12054       2   11955   11889   11952   11991       1
   11952   11991   12009   12039       2   11952   11991   12009   12042       2
   11952   11991   12009   12045       2   11949   11883   11952   11991       1
   11946   11880   11940   11988       1   11943   11874   11940   11988       1
   11940   11988   12006   12030       2   11940   11988   12006   12033       2
   11940   11988   12006   12036       2   11937   11865   11931   11985       1
   11934   11859   11931   11985       1   11931   11985   12003   12021       2
   11931   11985   12003   12024       2   11931   11985   12003   12027       2
   11928   11856   11925   11976       1   11928   11856   11925   11982       1
   11925   11976   11919   11979       1   11922   11853   11919   11976       1
   11922   11853   11919   11979       1   11919   11976   11925   11982       1
   11916   11850   11913   11967       1   11916   11850   11913   11973       1
   11913   11967   11907   11970       1   11910   11847   11907   11967       1
   11910   11847   11907   11970       1   11907   11967   11913   11973       1
   11904   11844   11901   11958       1   11904   11844   11901   11964       1
   11901   11958   11895   11961       1   11898   11841   11895   11958       1
   11898   11841   11895   11961       1   11895   11958   11901   11964       1
   11892   11838   11889   11952       1   11892   11838   11889   11955       1
   11889   11952   11883   11949       1   11886   11835   11883   11949       1
   11886   11835   11883   11952       1   11883   11952   11889   11955       1
   11880   11940   11874   11943       1   11877   11832   11880   11940       1
   11877   11832   11880   11946       1   11874   11940   11880   11946       1
   11871   11829   11874   11940       1   11871   11829   11874   11943       1
   11868   11826   11865   11931       1   11868   11826   11865   11937       1
   11865   11931   11859   11934       1   11862   11823   11859   11931       1
   11862   11823   11859   11934       1   11859   11931   11865   11937       1
   11856   11817   11853   11922       1   11853   11817   11856   11928       1
   11850   11814   11847   11910       1   11847   11814   11850   11916       1
   11844   11808   11841   11898       1   11841   11808   11844   11904       1
   11838   11805   11835   11886       1   11835   11805   11838   11892       1
   11832   11802   11829   11871       1   11829   11802   11832   11877       1
   11826   11799   11823   11862       1   11823   11799   11826   11868       1
   11817   11853   11919   11979       1   11817   11856   11925   11982       1
   11814   11847   11907   11970       1   11814   11850   11913   11973       1
   11808   11841   11895   11961       1   11808   11844   11901   11964       1
   11805   11835   11883   11949       1   11805   11838   11889   11955       1
   11802   11829   11874   11943       1   11802   11832   11880   11946       1
   11799   11823   11859   11934       1   11799   11826   11865   11937       1
   11796   11763   11793   11820       1   11790   11760   11793   11820       1
   11790   11814   11847   11910       1   11790   11814   11850   11916       1
   11790   11817   11853   11922       1   11790   11817   11856   11928       1
   11787   11754   11784   11811       1   11781   11748   11784   11811       1
   11781   11805   11835   11886       1   11781   11805   11838   11892       1
   11781   11808   11841   11898       1   11781   11808   11844   11904       1
   11778   11799   11823   11862       1   11778   11799   11826   11868       1
   11778   11802   11829   11871       1   11778   11802   11832   11877       1
   11775   11736   11742   11778       1   11760   11793   11763   11796       1
   11757   11727   11760   11790       1   11757   11727   11760   11793       1
   11751   11721   11748   11781       1   11751   11721   11748   11784       1
   11748   11784   11754   11787       1   11745   11718   11742   11778       1
   11739   11715   11736   11742       1   11739   11715   11736   11775       1
   11736   11742   11718   11745       1   11730   11709   11727   11757       1
   11730   11724   11754   11787       1   11730   11763   11793   11820       1
   11727   11760   11793   11820       1   11724   11706   11721   11751       1
   11724   11730   11763   11796       1   11724   11754   11784   11811       1
   11721   11748   11784   11811       1   11718   11742   11736   11775       1
   11709   11730   11763   11796       1   11706   11724   11754   11787       1
   11703   11700   11715   11739       1   11700   11703   11718   11745       1
   11700   11715   11736   11775       1   11697   11676   11691   11712       1
   11694   11670   11691   11712       1   11691   11712   11733   11766       2
   11691   11712   11733   11769       2   11691   11712   11733   11772       2
   11688   11664   11682   11700       1   11685   11703   11718   11745       1
   11685   11706   11721   11751       1   11685   11709   11727   11757       1
   11682   11700   11715   11739       1   11679   11655   11676   11691       1
   11679   11655   11676   11697       1   11676   11691   11670   11694       1
   11673   11652   11670   11691       1   11673   11652   11670   11694       1
   11670   11691   11676   11697       1   11667   11649   11664   11682       1
   11667   11649   11664   11688       1   11661   11646   11658   11682       1
   11661   11646   11658   11685       1   11658   11682   11664   11688       1
   11655   11643   11652   11673       1   11652   11643   11655   11679       1
   11649   11640   11646   11661       1   11646   11640   11649   11667       1
   11643   11652   11670   11694       1   11643   11655   11676   11697       1
   11640   11649   11664   11688       1   11637   11640   11646   11661       1
   11637   11640   11649   11667       1   11637   11643   11652   11673       1
   11637   11643   11655   11679       1   11634   11622   11628   11637       1
   11631   11616   11628   11637       1   11625   11604   11622   11628       1
   11625   11604   11622   11634       1   11622   11628   11616   11631       1
   11619   11601   11616   11628       1   11619   11601   11616   11631       1
   11616   11628   11622   11634       1   11604   11595   11601   11619       1
   11601   11595   11604   11625       1   11595   11592   11598   11607       2
   11595   11592   11598   11610       2   11595   11592   11598   11613       2
   11595   11601   11616   11631       1   11595   11604   11622   11634       1
   11592   11595   11601   11619       1   11592   11595   11604   11625       1
   12465   12408   12459   12483       1   12462   12402   12459   12483       1
   12459   12483   12501   12549       2   12459   12483   12501   12552       2
   12459   12483   12501   12555       2   12456   12396   12450   12480       1
   12453   12390   12450   12480       1   12450   12480   12498   12540       2
   12450   12480   12498   12543       2   12450   12480   12498   12546       2
   12447   12384   12441   12477       1   12444   12378   12441   12477       1
   12441   12477   12495   12531       2   12441   12477   12495   12534       2
   12441   12477   12495   12537       2   12438   12372   12435   12474       1
   12435   12474   12492   12522       2   12435   12474   12492   12525       2
   12435   12474   12492   12528       2   12432   12366   12435   12474       1
   12429   12363   12423   12471       1   12426   12357   12423   12471       1
   12423   12471   12489   12513       2   12423   12471   12489   12516       2
   12423   12471   12489   12519       2   12420   12348   12414   12468       1
   12417   12342   12414   12468       1   12414   12468   12486   12504       2
   12414   12468   12486   12507       2   12414   12468   12486   12510       2
   12411   12339   12408   12459       1   12411   12339   12408   12465       1
   12408   12459   12402   12462       1   12405   12336   12402   12459       1
   12405   12336   12402   12462       1   12402   12459   12408   12465       1
   12399   12333   12396   12450       1   12399   12333   12396   12456       1
   12396   12450   12390   12453       1   12393   12330   12390   12450       1
   12393   12330   12390   12453       1   12390   12450   12396   12456       1
   12387   12327   12384   12441       1   12387   12327   12384   12447       1
   12384   12441   12378   12444       1   12381   12324   12378   12441       1
   12381   12324   12378   12444       1   12378   12441   12384   12447       1
   12375   12321   12372   12435       1   12375   12321   12372   12438       1
   12372   12435   12366   12432       1   12369   12318   12366   12432       1
   12369   12318   12366   12435       1   12366   12435   12372   12438       1
   12363   12423   12357   12426       1   12360   12315   12363   12423       1
   12360   12315   12363   12429       1   12357   12423   12363   12429       1
   12354   12312   12357   12423       1   12354   12312   12357   12426       1
   12351   12309   12348   12414       1   12351   12309   12348   12420       1
   12348   12414   12342   12417       1   12345   12306   12342   12414       1
   12345   12306   12342   12417       1   12342   12414   12348   12420       1
   12339   12300   12336   12405       1   12336   12300   12339   12411       1
   12333   12297   12330   12393       1   12330   12297   12333   12399       1
   12327   12291   12324   12381       1   12324   12291   12327   12387       1
   12321   12288   12318   12369       1   12318   12288   12321   12375       1
   12315   12285   12312   12354       1   12312   12285   12315   12360       1
   12309   12282   12306   12345       1   12306   12282   12309   12351       1
   12300   12336   12402   12462       1   12300   12339   12408   12465       1
   12297   12330   12390   12453       1   12297   12333   12396   12456       1
   12291   12324   12378   12444       1   12291   12327   12384   12447       1
   12288   12318   12366   12432       1   12288   12321   12372   12438       1
   12285   12312   12357   12426       1   12285   12315   12363   12429       1
   12282   12306   12342   12417       1   12282   12309   12348   12420       1
   12279   12246   12276   12303       1   12273   12243   12276   12303       1
   12273   12297   12330   12393       1   12273   12297   12333   12399       1
   12273   12300   12336   12405       1   12273   12300   12339   12411       1
   12270   12237   12267   12294       1   12264   12231   12267   12294       1
   12264   12288   12318   12369       1   12264   12288   12321   12375       1
   12264   12291   12324   12381       1   12264   12291   12327   12387       1
   12261   12282   12306   12345       1   12261   12282   12309   12351       1
   12261   12285   12312   12354       1   12261   12285   12315   12360       1
   12258   12219   12225   12261       1   12243   12276   12246   12279       1
   12240   12210   12243   12273       1   12240   12210   12243   12276       1
   12234   12204   12231   12264       1   12234   12204   12231   12267       1
   12231   12267   12237   12270       1   12228   12201   12225   12261       1
   12222   12198   12219   12225       1   12222   12198   12219   12258       1
   12219   12225   12201   12228       1   12213   12192   12210   12240       1
   12213   12207   12237   12270       1   12213   12246   12276   12303       1
   12210   12243   12276   12303       1   12207   12189   12204   12234       1
   12207   12213   12246   12279       1   12207   12237   12267   12294       1
   12204   12231   12267   12294       1   12201   12225   12219   12258       1
   12192   12213   12246   12279       1   12189   12207   12237   12270       1
   12186   12183   12198   12222       1   12183   12186   12201   12228       1
   12183   12198   12219   12258       1   12180   12159   12174   12195       1
   12177   12153   12174   12195       1   12174   12195   12216   12249       2
   12174   12195   12216   12252       2   12174   12195   12216   12255       2
   12171   12147   12165   12183       1   12168   12186   12201   12228       1
   12168   12189   12204   12234       1   12168   12192   12210   12240       1
   12165   12183   12198   12222       1   12162   12138   12159   12174       1
   12162   12138   12159   12180       1   12159   12174   12153   12177       1
   12156   12135   12153   12174       1   12156   12135   12153   12177       1
   12153   12174   12159   12180       1   12150   12132   12147   12165       1
   12150   12132   12147   12171       1   12144   12129   12141   12165       1
   12144   12129   12141   12168       1   12141   12165   12147   12171       1
   12138   12126   12135   12156       1   12135   12126   12138   12162       1
   12132   12123   12129   12144       1   12129   12123   12132   12150       1
   12126   12135   12153   12177       1   12126   12138   12159   12180       1
   12123   12132   12147   12171       1   12120   12123   12129   12144       1
   12120   12123   12132   12150       1   12120   12126   12135   12156       1
   12120   12126   12138   12162       1   12117   12105   12111   12120       1
   12114   12099   12111   12120       1   12108   12087   12105   12111       1
   12108   12087   12105   12117       1   12105   12111   12099   12114       1
   12102   12084   12099   12111       1   12102   12084   12099   12114       1
   12099   12111   12105   12117       1   12087   12078   12084   12102       1
   12084   12078   12087   12108       1   12078   12075   12081   12090       2
   12078   12075   12081   12093       2   12078   12075   12081   12096       2
   12078   12084   12099   12114       1   12078   12087   12105   12117       1
   12075   12078   12084   12102       1   12075   12078   12087   12108       1
   12948   12891   12942   12966       1   12945   12885   12942   12966       1
   12942   12966   12984   13032       2   12942   12966   12984   13035       2
   12942   12966   12984   13038       2   12939   12879   12933   12963       1
   12936   12873   12933   12963       1   12933   12963   12981   13023       2
   12933   12963   12981   13026       2   12933   12963   12981   13029       2
   12930   12867   12924   12960       1   12927   12861   12924   12960       1
   12924   12960   12978   13014       2   12924   12960   12978   13017       2
   12924   12960   12978   13020       2   12921   12855   12918   12957       1
   12918   12957   12975   13005       2   12918   12957   12975   13008       2
   12918   12957   12975   13011       2   12915   12849   12918   12957       1
   12912   12846   12906   12954       1   12909   12840   12906   12954       1
   12906   12954   12972   12996       2   12906   12954   12972   12999       2
   12906   12954   12972   13002       2   12903   12831   12897   12951       1
   12900   12825   12897   12951       1   12897   12951   12969   12987       2
   12897   12951   12969   12990       2   12897   12951   12969   12993       2
   12894   12822   12891   12942       1   12894   12822   12891   12948       1
   12891   12942   12885   12945       1   12888   12819   12885   12942       1
   12888   12819   12885   12945       1   12885   12942   12891   12948       1
   12882   12816   12879   12933       1   12882   12816   12879   12939       1
   12879   12933   12873   12936       1   12876   12813   12873   12933       1
   12876   12813   12873   12936       1   12873   12933   12879   12939       1
   12870   12810   12867   12924       1   12870   12810   12867   12930       1
   12867   12924   12861   12927       1   12864   12807   12861   12924       1
   12864   12807   12861   12927       1   12861   12924   12867   12930       1
   12858   12804   12855   12918       1   12858   12804   12855   12921       1
   12855   12918   12849   12915       1   12852   12801   12849   12915       1
   12852   12801   12849   12918       1   12849   12918   12855   12921       1
   12846   12906   12840   12909       1   12843   12798   12846   12906       1
   12843   12798   12846   12912       1   12840   12906   12846   12912       1
   12837   12795   12840   12906       1   12837   12795   12840   12909       1
   12834   12792   12831   12897       1   12834   12792   12831   12903       1
   12831   12897   12825   12900       1   12828   12789   12825   12897       1
   12828   12789   12825   12900       1   12825   12897   12831   12903       1
   12822   12783   12819   12888       1   12819   12783   12822   12894       1
   12816   12780   12813   12876       1   12813   12780   12816   12882       1
   12810   12774   12807   12864       1   12807   12774   12810   12870       1
   12804   12771   12801   12852       1   12801   12771   12804   12858       1
   12798   12768   12795   12837       1   12795   12768   12798   12843       1
   12792   12765   12789   12828       1   12789   12765   12792   12834       1
   12783   12819   12885   12945       1   12783   12822   12891   12948       1
   12780   12813   12873   12936       1   12780   12816   12879   12939       1
   12774   12807   12861   12927       1   12774   12810   12867   12930       1
   12771   12801   12849   12915       1   12771   12804   12855   12921       1
   12768   12795   12840   12909       1   12768   12798   12846   12912       1
   12765   12789   12825   12900       1   12765   12792   12831   12903       1
   12762   12729   12759   12786       1   12756   12726   12759   12786       1
   12756   12780   12813   12876       1   12756   12780   12816   12882       1
   12756   12783   12819   12888       1   12756   12783   12822   12894       1
   12753   12720   12750   12777       1   12747   12714   12750   12777       1
   12747   12771   12801   12852       1   12747   12771   12804   12858       1
   12747   12774   12807   12864       1   12747   12774   12810   12870       1
   12744   12765   12789   12828       1   12744   12765   12792   12834       1
   12744   12768   12795   12837       1   12744   12768   12798   12843       1
   12741   12702   12708   12744       1   12726   12759   12729   12762       1
   12723   12693   12726   12756       1   12723   12693   12726   12759       1
   12717   12687   12714   12747       1   12717   12687   12714   12750       1
   12714   12750   12720   12753       1   12711   12684   12708   12744       1
   12705   12681   12702   12708       1   12705   12681   12702   12741       1
   12702   12708   12684   12711       1   12696   12675   12693   12723       1
   12696   12690   12720   12753       1   12696   12729   12759   12786       1
   12693   12726   12759   12786       1   12690   12672   12687   12717       1
   12690   12696   12729   12762       1   12690   12720   12750   12777       1
   12687   12714   12750   12777       1   12684   12708   12702   12741       1
   12675   12696   12729   12762       1   12672   12690   12720   12753       1
   12669   12666   12681   12705       1   12666   12669   12684   12711       1
   12666   12681   12702   12741       1   12663   12642   12657   12678       1
   12660   12636   12657   12678       1   12657   12678   12699   12732       2
   12657   12678   12699   12735       2   12657   12678   12699   12738       2
   12654   12630   12648   12666       1   12651   12669   12684   12711       1
   12651   12672   12687   12717       1   12651   12675   12693   12723       1
   12648   12666   12681   12705       1   12645   12621   12642   12657       1
   12645   12621   12642   12663       1   12642   12657   12636   12660       1
   12639   12618   12636   12657       1   12639   12618   12636   12660       1
   12636   12657   12642   12663       1   12633   12615   12630   12648       1
   12633   12615   12630   12654       1   12627   12612   12624   12648       1
   12627   12612   12624   12651       1   12624   12648   12630   12654       1
   12621   12609   12618   12639       1   12618   12609   12621   12645       1
   12615   12606   12612   12627       1   12612   12606   12615   12633       1
   12609   12618   12636   12660       1   12609   12621   12642   12663       1
   12606   12615   12630   12654       1   12603   12606   12612   12627       1
   12603   12606   12615   12633       1   12603   12609   12618   12639       1
   12603   12609   12621   12645       1   12600   12588   12594   12603       1
   12597   12582   12594   12603       1   12591   12570   12588   12594       1
   12591   12570   12588   12600       1   12588   12594   12582   12597       1
   12585   12567   12582   12594       1   12585   12567   12582   12597       1
   12582   12594   12588   12600       1   12570   12561   12567   12585       1
   12567   12561   12570   12591       1   12561   12558   12564   12573       2
   12561   12558   12564   12576       2   12561   12558   12564   12579       2
   12561   12567   12582   12597       1   12561   12570   12588   12600       1
   12558   12561   12567   12585       1   12558   12561   12570   12591       1
   13431   13374   13425   13449       1   13428   13368   13425   13449       1
   13425   13449   13467   13515       2   13425   13449   13467   13518       2
   13425   13449   13467   13521       2   13422   13362   13416   13446       1
   13419   13356   13416   13446       1   13416   13446   13464   13506       2
   13416   13446   13464   13509       2   13416   13446   13464   13512       2
   13413   13350   13407   13443       1   13410   13344   13407   13443       1
   13407   13443   13461   13497       2   13407   13443   13461   13500       2
   13407   13443   13461   13503       2   13404   13338   13401   13440       1
   13401   13440   13458   13488       2   13401   13440   13458   13491       2
   13401   13440   13458   13494       2   13398   13332   13401   13440       1
   13395   13329   13389   13437       1   13392   13323   13389   13437       1
   13389   13437   13455   13479       2   13389   13437   13455   13482       2
   13389   13437   13455   13485       2   13386   13314   13380   13434       1
   13383   13308   13380   13434       1   13380   13434   13452   13470       2
   13380   13434   13452   13473       2   13380   13434   13452   13476       2
   13377   13305   13374   13425       1   13377   13305   13374   13431       1
   13374   13425   13368   13428       1   13371   13302   13368   13425       1
   13371   13302   13368   13428       1   13368   13425   13374   13431       1
   13365   13299   13362   13416       1   13365   13299   13362   13422       1
   13362   13416   13356   13419       1   13359   13296   13356   13416       1
   13359   13296   13356   13419       1   13356   13416   13362   13422       1
   13353   13293   13350   13407       1   13353   13293   13350   13413       1
   13350   13407   13344   13410       1   13347   13290   13344   13407       1
   13347   13290   13344   13410       1   13344   13407   13350   13413       1
   13341   13287   13338   13401       1   13341   13287   13338   13404       1
   13338   13401   13332   13398       1   13335   13284   13332   13398       1
   13335   13284   13332   13401       1   13332   13401   13338   13404       1
   13329   13389   13323   13392       1   13326   13281   13329   13389       1
   13326   13281   13329   13395       1   13323   13389   13329   13395       1
   13320   13278   13323   13389       1   13320   13278   13323   13392       1
   13317   13275   13314   13380       1   13317   13275   13314   13386       1
   13314   13380   13308   13383       1   13311   13272   13308   13380       1
   13311   13272   13308   13383       1   13308   13380   13314   13386       1
   13305   13266   13302   13371       1   13302   13266   13305   13377       1
   13299   13263   13296   13359       1   13296   13263   13299   13365       1
   13293   13257   13290   13347       1   13290   13257   13293   13353       1
   13287   13254   13284   13335       1   13284   13254   13287   13341       1
   13281   13251   13278   13320       1   13278   13251   13281   13326       1
   13275   13248   13272   13311       1   13272   13248   13275   13317       1
   13266   13302   13368   13428       1   13266   13305   13374   13431       1
   13263   13296   13356   13419       1   13263   13299   13362   13422       1
   13257   13290   13344   13410       1   13257   13293   13350   13413       1
   13254   13284   13332   13398       1   13254   13287   13338   13404       1
   13251   13278   13323   13392       1   13251   13281   13329   13395       1
   13248   13272   13308   13383       1   13248   13275   13314   13386       1
   13245   13212   13242   13269       1   13239   13209   13242   13269       1
   13239   13263   13296   13359       1   13239   13263   13299   13365       1
   13239   13266   13302   13371       1   13239   13266   13305   13377       1
   13236   13203   13233   13260       1   13230   13197   13233   13260       1
   13230   13254   13284   13335       1   13230   13254   13287   13341       1
   13230   13257   13290   13347       1   13230   13257   13293   13353       1
   13227   13248   13272   13311       1   13227   13248   13275   13317       1
   13227   13251   13278   13320       1   13227   13251   13281   13326       1
   13224   13185   13191   13227       1   13209   13242   13212   13245       1
   13206   13176   13209   13239       1   13206   13176   13209   13242       1
   13200   13170   13197   13230       1   13200   13170   13197   13233       1
   13197   13233   13203   13236       1   13194   13167   13191   13227       1
   13188   13164   13185   13191       1   13188   13164   13185   13224       1
   13185   13191   13167   13194       1   13179   13158   13176   13206       1
   13179   13173   13203   13236       1   13179   13212   13242   13269       1
   13176   13209   13242   13269       1   13173   13155   13170   13200       1
   13173   13179   13212   13245       1   13173   13203   13233   13260       1
   13170   13197   13233   13260       1   13167   13191   13185   13224       1
   13158   13179   13212   13245       1   13155   13173   13203   13236       1
   13152   13149   13164   13188       1   13149   13152   13167   13194       1
   13149   13164   13185   13224       1   13146   13125   13140   13161       1
   13143   13119   13140   13161       1   13140   13161   13182   13215       2
   13140   13161   13182   13218       2   13140   13161   13182   13221       2
   13137   13113   13131   13149       1   13134   13152   13167   13194       1
   13134   13155   13170   13200       1   13134   13158   13176   13206       1
   13131   13149   13164   13188       1   13128   13104   13125   13140       1
   13128   13104   13125   13146       1   13125   13140   13119   13143       1
   13122   13101   13119   13140       1   13122   13101   13119   13143       1
   13119   13140   13125   13146       1   13116   13098   13113   13131       1
   13116   13098   13113   13137       1   13110   13095   13107   13131       1
   13110   13095   13107   13134       1   13107   13131   13113   13137       1
   13104   13092   13101   13122       1   13101   13092   13104   13128       1
   13098   13089   13095   13110       1   13095   13089   13098   13116       1
   13092   13101   13119   13143       1   13092   13104   13125   13146       1
   13089   13098   13113   13137       1   13086   13089   13095   13110       1
   13086   13089   13098   13116       1   13086   13092   13101   13122       1
   13086   13092   13104   13128       1   13083   13071   13077   13086       1
   13080   13065   13077   13086       1   13074   13053   13071   13077       1
   13074   13053   13071   13083       1   13071   13077   13065   13080       1
   13068   13050   13065   13077       1   13068   13050   13065   13080       1
   13065   13077   13071   13083       1   13053   13044   13050   13068       1
   13050   13044   13053   13074       1   13044   13041   13047   13056       2
   13044   13041   13047   13059       2   13044   13041   13047   13062       2
   13044   13050   13065   13080       1   13044   13053   13071   13083       1
   13041   13044   13050   13068       1   13041   13044   13053   13074       1
   13914   13857   13908   13932       1   13911   13851   13908   13932       1
   13908   13932   13950   13998       2   13908   13932   13950   14001       2
   13908   13932   13950   14004       2   13905   13845   13899   13929       1
   13902   13839   13899   13929       1   13899   13929   13947   13989       2
   13899   13929   13947   13992       2   13899   13929   13947   13995       2
   13896   13833   13890   13926       1   13893   13827   13890   13926       1
   13890   13926   13944   13980       2   13890   13926   13944   13983       2
   13890   13926   13944   13986       2   13887   13821   13884   13923       1
   13884   13923   13941   13971       2   13884   13923   13941   13974       2
   13884   13923   13941   13977       2   13881   13815   13884   13923       1
   13878   13812   13872   13920       1   13875   13806   13872   13920       1
   13872   13920   13938   13962       2   13872   13920   13938   13965       2
   13872   13920   13938   13968       2   13869   13797   13863   13917       1
   13866   13791   13863   13917       1   13863   13917   13935   13953       2
   13863   13917   13935   13956       2   13863   13917   13935   13959       2
   13860   13788   13857   13908       1   13860   13788   13857   13914       1
   13857   13908   13851   13911       1   13854   13785   13851   13908       1
   13854   13785   13851   13911       1   13851   13908   13857   13914       1
   13848   13782   13845   13899       1   13848   13782   13845   13905       1
   13845   13899   13839   13902       1   13842   13779   13839   13899       1
   13842   13779   13839   13902       1   13839   13899   13845   13905       1
   13836   13776   13833   13890       1   13836   13776   13833   13896       1
   13833   13890   13827   13893       1   13830   13773   13827   13890       1
   13830   13773   13827   13893       1   13827   13890   13833   13896       1
   13824   13770   13821   13884       1   13824   13770   13821   13887       1
   13821   13884   13815   13881       1   13818   13767   13815   13881       1
   13818   13767   13815   13884       1   13815   13884   13821   13887       1
   13812   13872   13806   13875       1   13809   13764   13812   13872       1
   13809   13764   13812   13878       1   13806   13872   13812   13878       1
   13803   13761   13806   13872       1   13803   13761   13806   13875       1
   13800   13758   13797   13863       1   13800   13758   13797   13869       1
   13797   13863   13791   13866       1   13794   13755   13791   13863       1
   13794   13755   13791   13866       1   13791   13863   13797   13869       1
   13788   13749   13785   13854       1   13785   13749   13788   13860       1
   13782   13746   13779   13842       1   13779   13746   13782   13848       1
   13776   13740   13773   13830       1   13773   13740   13776   13836       1
   13770   13737   13767   13818       1   13767   13737   13770   13824       1
   13764   13734   13761   13803       1   13761   13734   13764   13809       1
   13758   13731   13755   13794       1   13755   13731   13758   13800       1
   13749   13785   13851   13911       1   13749   13788   13857   13914       1
   13746   13779   13839   13902       1   13746   13782   13845   13905       1
   13740   13773   13827   13893       1   13740   13776   13833   13896       1
   13737   13767   13815   13881       1   13737   13770   13821   13887       1
   13734   13761   13806   13875       1   13734   13764   13812   13878       1
   13731   13755   13791   13866       1   13731   13758   13797   13869       1
   13728   13695   13725   13752       1   13722   13692   13725   13752       1
   13722   13746   13779   13842       1   13722   13746   13782   13848       1
   13722   13749   13785   13854       1   13722   13749   13788   13860       1
   13719   13686   13716   13743       1   13713   13680   13716   13743       1
   13713   13737   13767   13818       1   13713   13737   13770   13824       1
   13713   13740   13773   13830       1   13713   13740   13776   13836       1
   13710   13731   13755   13794       1   13710   13731   13758   13800       1
   13710   13734   13761   13803       1   13710   13734   13764   13809       1
   13707   13668   13674   13710       1   13692   13725   13695   13728       1
   13689   13659   13692   13722       1   13689   13659   13692   13725       1
   13683   13653   13680   13713       1   13683   13653   13680   13716       1
   13680   13716   13686   13719       1   13677   13650   13674   13710       1
   13671   13647   13668   13674       1   13671   13647   13668   13707       1
   13668   13674   13650   13677       1   13662   13641   13659   13689       1
   13662   13656   13686   13719       1   13662   13695   13725   13752       1
   13659   13692   13725   13752       1   13656   13638   13653   13683       1
   13656   13662   13695   13728       1   13656   13686   13716   13743       1
   13653   13680   13716   13743       1   13650   13674   13668   13707       1
   13641   13662   13695   13728       1   13638   13656   13686   13719       1
   13635   13632   13647   13671       1   13632   13635   13650   13677       1
   13632   13647   13668   13707       1   13629   13608   13623   13644       1
   13626   13602   13623   13644       1   13623   13644   13665   13698       2
   13623   13644   13665   13701       2   13623   13644   13665   13704       2
   13620   13596   13614   13632       1   13617   13635   13650   13677       1
   13617   13638   13653   13683       1   13617   13641   13659   13689       1
   13614   13632   13647   13671       1   13611   13587   13608   13623       1
   13611   13587   13608   13629       1   13608   13623   13602   13626       1
   13605   13584   13602   13623       1   13605   13584   13602   13626       1
   13602   13623   13608   13629       1   13599   13581   13596   13614       1
   13599   13581   13596   13620       1   13593   13578   13590   13614       1
   13593   13578   13590   13617       1   13590   13614   13596   13620       1
   13587   13575   13584   13605       1   13584   13575   13587   13611       1
   13581   13572   13578   13593       1   13578   13572   13581   13599       1
   13575   13584   13602   13626       1   13575   13587   13608   13629       1
   13572   13581   13596   13620       1   13569   13572   13578   13593       1
   13569   13572   13581   13599       1   13569   13575   13584   13605       1
   13569   13575   13587   13611       1   13566   13554   13560   13569       1
   13563   13548   13560   13569       1   13557   13536   13554   13560       1
   13557   13536   13554   13566       1   13554   13560   13548   13563       1
   13551   13533   13548   13560       1   13551   13533   13548   13563       1
   13548   13560   13554   13566       1   13536   13527   13533   13551       1
   13533   13527   13536   13557       1   13527   13524   13530   13539       2
   13527   13524   13530   13542       2   13527   13524   13530   13545       2
   13527   13533   13548   13563       1   13527   13536   13554   13566       1
   13524   13527   13533   13551       1   13524   13527   13536   13557       1
   14397   14340   14391   14415       1   14394   14334   14391   14415       1
   14391   14415   14433   14481       2   14391   14415   14433   14484       2
   14391   14415   14433   14487       2   14388   14328   14382   14412       1
   14385   14322   14382   14412       1   14382   14412   14430   14472       2
   14382   14412   14430   14475       2   14382   14412   14430   14478       2
   14379   14316   14373   14409       1   14376   14310   14373   14409       1
   14373   14409   14427   14463       2   14373   14409   14427   14466       2
   14373   14409   14427   14469       2   14370   14304   14367   14406       1
   14367   14406   14424   14454       2   14367   14406   14424   14457       2
   14367   14406   14424   14460       2   14364   14298   14367   14406       1
   14361   14295   14355   14403       1   14358   14289   14355   14403       1
   14355   14403   14421   14445       2   14355   14403   14421   14448       2
   14355   14403   14421   14451       2   14352   14280   14346   14400       1
   14349   14274   14346   14400       1   14346   14400   14418   14436       2
   14346   14400   14418   14439       2   14346   14400   14418   14442       2
   14343   14271   14340   14391       1   14343   14271   14340   14397       1
   14340   14391   14334   14394       1   14337   14268   14334   14391       1
   14337   14268   14334   14394       1   14334   14391   14340   14397       1
   14331   14265   14328   14382       1   14331   14265   14328   14388       1
   14328   14382   14322   14385       1   14325   14262   14322   14382       1
   14325   14262   14322   14385       1   14322   14382   14328   14388       1
   14319   14259   14316   14373       1   14319   14259   14316   14379       1
   14316   14373   14310   14376       1   14313   14256   14310   14373       1
   14313   14256   14310   14376       1   14310   14373   14316   14379       1
   14307   14253   14304   14367       1   14307   14253   14304   14370       1
   14304   14367   14298   14364       1   14301   14250   14298   14364       1
   14301   14250   14298   14367       1   14298   14367   14304   14370       1
   14295   14355   14289   14358       1   14292   14247   14295   14355       1
   14292   14247   14295   14361       1   14289   14355   14295   14361       1
   14286   14244   14289   14355       1   14286   14244   14289   14358       1
   14283   14241   14280   14346       1   14283   14241   14280   14352       1
   14280   14346   14274   14349       1   14277   14238   14274   14346       1
   14277   14238   14274   14349       1   14274   14346   14280   14352       1
   14271   14232   14268   14337       1   14268   14232   14271   14343       1
   14265   14229   14262   14325       1   14262   14229   14265   14331       1
   14259   14223   14256   14313       1   14256   14223   14259   14319       1
   14253   14220   14250   14301       1   14250   14220   14253   14307       1
   14247   14217   14244   14286       1   14244   14217   14247   14292       1
   14241   14214   14238   14277       1   14238   14214   14241   14283       1
   14232   14268   14334   14394       1   14232   14271   14340   14397       1
   14229   14262   14322   14385       1   14229   14265   14328   14388       1
   14223   14256   14310   14376       1   14223   14259   14316   14379       1
   14220   14250   14298   14364       1   14220   14253   14304   14370       1
   14217   14244   14289   14358       1   14217   14247   14295   14361       1
   14214   14238   14274   14349       1   14214   14241   14280   14352       1
   14211   14178   14208   14235       1   14205   14175   14208   14235       1
   14205   14229   14262   14325       1   14205   14229   14265   14331       1
   14205   14232   14268   14337       1   14205   14232   14271   14343       1
   14202   14169   14199   14226       1   14196   14163   14199   14226       1
   14196   14220   14250   14301       1   14196   14220   14253   14307       1
   14196   14223   14256   14313       1   14196   14223   14259   14319       1
   14193   14214   14238   14277       1   14193   14214   14241   14283       1
   14193   14217   14244   14286       1   14193   14217   14247   14292       1
   14190   14151   14157   14193       1   14175   14208   14178   14211       1
   14172   14142   14175   14205       1   14172   14142   14175   14208       1
   14166   14136   14163   14196       1   14166   14136   14163   14199       1
   14163   14199   14169   14202       1   14160   14133   14157   14193       1
   14154   14130   14151   14157       1   14154   14130   14151   14190       1
   14151   14157   14133   14160       1   14145   14124   14142   14172       1
   14145   14139   14169   14202       1   14145   14178   14208   14235       1
   14142   14175   14208   14235       1   14139   14121   14136   14166       1
   14139   14145   14178   14211       1   14139   14169   14199   14226       1
   14136   14163   14199   14226       1   14133   14157   14151   14190       1
   14124   14145   14178   14211       1   14121   14139   14169   14202       1
   14118   14115   14130   14154       1   14115   14118   14133   14160       1
   14115   14130   14151   14190       1   14112   14091   14106   14127       1
   14109   14085   14106   14127       1   14106   14127   14148   14181       2
   14106   14127   14148   14184       2   14106   14127   14148   14187       2
   14103   14079   14097   14115       1   14100   14118   14133   14160       1
   14100   14121   14136   14166       1   14100   14124   14142   14172       1
   14097   14115   14130   14154       1   14094   14070   14091   14106       1
   14094   14070   14091   14112       1   14091   14106   14085   14109       1
   14088   14067   14085   14106       1   14088   14067   14085   14109       1
   14085   14106   14091   14112       1   14082   14064   14079   14097       1
   14082   14064   14079   14103       1   14076   14061   14073   14097       1
   14076   14061   14073   14100       1   14073   14097   14079   14103       1
   14070   14058   14067   14088       1   14067   14058   14070   14094       1
   14064   14055   14061   14076       1   14061   14055   14064   14082       1
   14058   14067   14085   14109       1   14058   14070   14091   14112       1
   14055   14064   14079   14103       1   14052   14055   14061   14076       1
   14052   14055   14064   14082       1   14052   14058   14067   14088       1
   14052   14058   14070   14094       1   14049   14037   14043   14052       1
   14046   14031   14043   14052       1   14040   14019   14037   14043       1
   14040   14019   14037   14049       1   14037   14043   14031   14046       1
   14034   14016   14031   14043       1   14034   14016   14031   14046       1
   14031   14043   14037   14049       1   14019   14010   14016   14034       1
   14016   14010   14019   14040       1   14010   14007   14013   14022       2
   14010   14007   14013   14025       2   14010   14007   14013   14028       2
   14010   14016   14031   14046       1   14010   14019   14037   14049       1
   14007   14010   14016   14034       1   14007   14010   14019   14040       1
   14880   14823   14874   14898       1   14877   14817   14874   14898       1
   14874   14898   14916   14964       2   14874   14898   14916   14967       2
   14874   14898   14916   14970       2   14871   14811   14865   14895       1
   14868   14805   14865   14895       1   14865   14895   14913   14955       2
   14865   14895   14913   14958       2   14865   14895   14913   14961       2
   14862   14799   14856   14892       1   14859   14793   14856   14892       1
   14856   14892   14910   14946       2   14856   14892   14910   14949       2
   14856   14892   14910   14952       2   14853   14787   14850   14889       1
   14850   14889   14907   14937       2   14850   14889   14907   14940       2
   14850   14889   14907   14943       2   14847   14781   14850   14889       1
   14844   14778   14838   14886       1   14841   14772   14838   14886       1
   14838   14886   14904   14928       2   14838   14886   14904   14931       2
   14838   14886   14904   14934       2   14835   14763   14829   14883       1
   14832   14757   14829   14883       1   14829   14883   14901   14919       2
   14829   14883   14901   14922       2   14829   14883   14901   14925       2
   14826   14754   14823   14874       1   14826   14754   14823   14880       1
   14823   14874   14817   14877       1   14820   14751   14817   14874       1
   14820   14751   14817   14877       1   14817   14874   14823   14880       1
   14814   14748   14811   14865       1   14814   14748   14811   14871       1
   14811   14865   14805   14868       1   14808   14745   14805   14865       1
   14808   14745   14805   14868       1   14805   14865   14811   14871       1
   14802   14742   14799   14856       1   14802   14742   14799   14862       1
   14799   14856   14793   14859       1   14796   14739   14793   14856       1
   14796   14739   14793   14859       1   14793   14856   14799   14862       1
   14790   14736   14787   14850       1   14790   14736   14787   14853       1
   14787   14850   14781   14847       1   14784   14733   14781   14847       1
   14784   14733   14781   14850       1   14781   14850   14787   14853       1
   14778   14838   14772   14841       1   14775   14730   14778   14838       1
   14775   14730   14778   14844       1   14772   14838   14778   14844       1
   14769   14727   14772   14838       1   14769   14727   14772   14841       1
   14766   14724   14763   14829       1   14766   14724   14763   14835       1
   14763   14829   14757   14832       1   14760   14721   14757   14829       1
   14760   14721   14757   14832       1   14757   14829   14763   14835       1
   14754   14715   14751   14820       1   14751   14715   14754   14826       1
   14748   14712   14745   14808       1   14745   14712   14748   14814       1
   14742   14706   14739   14796       1   14739   14706   14742   14802       1
   14736   14703   14733   14784       1   14733   14703   14736   14790       1
   14730   14700   14727   14769       1   14727   14700   14730   14775       1
   14724   14697   14721   14760       1   14721   14697   14724   14766       1
   14715   14751   14817   14877       1   14715   14754   14823   14880       1
   14712   14745   14805   14868       1   14712   14748   14811   14871       1
   14706   14739   14793   14859       1   14706   14742   14799   14862       1
   14703   14733   14781   14847       1   14703   14736   14787   14853       1
   14700   14727   14772   14841       1   14700   14730   14778   14844       1
   14697   14721   14757   14832       1   14697   14724   14763   14835       1
   14694   14661   14691   14718       1   14688   14658   14691   14718       1
   14688   14712   14745   14808       1   14688   14712   14748   14814       1
   14688   14715   14751   14820       1   14688   14715   14754   14826       1
   14685   14652   14682   14709       1   14679   14646   14682   14709       1
   14679   14703   14733   14784       1   14679   14703   14736   14790       1
   14679   14706   14739   14796       1   14679   14706   14742   14802       1
   14676   14697   14721   14760       1   14676   14697   14724   14766       1
   14676   14700   14727   14769       1   14676   14700   14730   14775       1
   14673   14634   14640   14676       1   14658   14691   14661   14694       1
   14655   14625   14658   14688       1   14655   14625   14658   14691       1
   14649   14619   14646   14679       1   14649   14619   14646   14682       1
   14646   14682   14652   14685       1   14643   14616   14640   14676       1
   14637   14613   14634   14640       1   14637   14613   14634   14673       1
   14634   14640   14616   14643       1   14628   14607   14625   14655       1
   14628   14622   14652   14685       1   14628   14661   14691   14718       1
   14625   14658   14691   14718       1   14622   14604   14619   14649       1
   14622   14628   14661   14694       1   14622   14652   14682   14709       1
   14619   14646   14682   14709       1   14616   14640   14634   14673       1
   14607   14628   14661   14694       1   14604   14622   14652   14685       1
   14601   14598   14613   14637       1   14598   14601   14616   14643       1
   14598   14613   14634   14673       1   14595   14574   14589   14610       1
   14592   14568   14589   14610       1   14589   14610   14631   14664       2
   14589   14610   14631   14667       2   14589   14610   14631   14670       2
   14586   14562   14580   14598       1   14583   14601   14616   14643       1
   14583   14604   14619   14649       1   14583   14607   14625   14655       1
   14580   14598   14613   14637       1   14577   14553   14574   14589       1
   14577   14553   14574   14595       1   14574   14589   14568   14592       1
   14571   14550   14568   14589       1   14571   14550   14568   14592       1
   14568   14589   14574   14595       1   14565   14547   14562   14580       1
   14565   14547   14562   14586       1   14559   14544   14556   14580       1
   14559   14544   14556   14583       1   14556   14580   14562   14586       1
   14553   14541   14550   14571       1   14550   14541   14553   14577       1
   14547   14538   14544   14559       1   14544   14538   14547   14565       1
   14541   14550   14568   14592       1   14541   14553   14574   14595       1
   14538   14547   14562   14586       1   14535   14538   14544   14559       1
   14535   14538   14547   14565       1   14535   14541   14550   14571       1
   14535   14541   14553   14577       1   14532   14520   14526   14535       1
   14529   14514   14526   14535       1   14523   14502   14520   14526       1
   14523   14502   14520   14532       1   14520   14526   14514   14529       1
   14517   14499   14514   14526       1   14517   14499   14514   14529       1
   14514   14526   14520   14532       1   14502   14493   14499   14517       1
   14499   14493   14502   14523       1   14493   14490   14496   14505       2
   14493   14490   14496   14508       2   14493   14490   14496   14511       2
   14493   14499   14514   14529       1   14493   14502   14520   14532       1
   14490   14493   14499   14517       1   14490   14493   14502   14523       1
   15363   15306   15357   15381       1   15360   15300   15357   15381       1
   15357   15381   15399   15447       2   15357   15381   15399   15450       2
   15357   15381   15399   15453       2   15354   15294   15348   15378       1
   15351   15288   15348   15378       1   15348   15378   15396   15438       2
   15348   15378   15396   15441       2   15348   15378   15396   15444       2
   15345   15282   15339   15375       1   15342   15276   15339   15375       1
   15339   15375   15393   15429       2   15339   15375   15393   15432       2
   15339   15375   15393   15435       2   15336   15270   15333   15372       1
   15333   15372   15390   15420       2   15333   15372   15390   15423       2
   15333   15372   15390   15426       2   15330   15264   15333   15372       1
   15327   15261   15321   15369       1   15324   15255   15321   15369       1
   15321   15369   15387   15411       2   15321   15369   15387   15414       2
   15321   15369   15387   15417       2   15318   15246   15312   15366       1
   15315   15240   15312   15366       1   15312   15366   15384   15402       2
   15312   15366   15384   15405       2   15312   15366   15384   15408       2
   15309   15237   15306   15357       1   15309   15237   15306   15363       1
   15306   15357   15300   15360       1   15303   15234   15300   15357       1
   15303   15234   15300   15360       1   15300   15357   15306   15363       1
   15297   15231   15294   15348       1   15297   15231   15294   15354       1
   15294   15348   15288   15351       1   15291   15228   15288   15348       1
   15291   15228   15288   15351       1   15288   15348   15294   15354       1
   15285   15225   15282   15339       1   15285   15225   15282   15345       1
   15282   15339   15276   15342       1   15279   15222   15276   15339       1
   15279   15222   15276   15342       1   15276   15339   15282   15345       1
   15273   15219   15270   15333       1   15273   15219   15270   15336       1
   15270   15333   15264   15330       1   15267   15216   15264   15330       1
   15267   15216   15264   15333       1   15264   15333   15270   15336       1
   15261   15321   15255   15324       1   15258   15213   15261   15321       1
   15258   15213   15261   15327       1   15255   15321   15261   15327       1
   15252   15210   15255   15321       1   15252   15210   15255   15324       1
   15249   15207   15246   15312       1   15249   15207   15246   15318       1
   15246   15312   15240   15315       1   15243   15204   15240   15312       1
   15243   15204   15240   15315       1   15240   15312   15246   15318       1
   15237   15198   15234   15303       1   15234   15198   15237   15309       1
   15231   15195   15228   15291       1   15228   15195   15231   15297       1
   15225   15189   15222   15279       1   15222   15189   15225   15285       1
   15219   15186   15216   15267       1   15216   15186   15219   15273       1
   15213   15183   15210   15252       1   15210   15183   15213   15258       1
   15207   15180   15204   15243       1   15204   15180   15207   15249       1
   15198   15234   15300   15360       1   15198   15237   15306   15363       1
   15195   15228   15288   15351       1   15195   15231   15294   15354       1
   15189   15222   15276   15342       1   15189   15225   15282   15345       1
   15186   15216   15264   15330       1   15186   15219   15270   15336       1
   15183   15210   15255   15324       1   15183   15213   15261   15327       1
   15180   15204   15240   15315       1   15180   15207   15246   15318       1
   15177   15144   15174   15201       1   15171   15141   15174   15201       1
   15171   15195   15228   15291       1   15171   15195   15231   15297       1
   15171   15198   15234   15303       1   15171   15198   15237   15309       1
   15168   15135   15165   15192       1   15162   15129   15165   15192       1
   15162   15186   15216   15267       1   15162   15186   15219   15273       1
   15162   15189   15222   15279       1   15162   15189   15225   15285       1
   15159   15180   15204   15243       1   15159   15180   15207   15249       1
   15159   15183   15210   15252       1   15159   15183   15213   15258       1
   15156   15117   15123   15159       1   15141   15174   15144   15177       1
   15138   15108   15141   15171       1   15138   15108   15141   15174       1
   15132   15102   15129   15162       1   15132   15102   15129   15165       1
   15129   15165   15135   15168       1   15126   15099   15123   15159       1
   15120   15096   15117   15123       1   15120   15096   15117   15156       1
   15117   15123   15099   15126       1   15111   15090   15108   15138       1
   15111   15105   15135   15168       1   15111   15144   15174   15201       1
   15108   15141   15174   15201       1   15105   15087   15102   15132       1
   15105   15111   15144   15177       1   15105   15135   15165   15192       1
   15102   15129   15165   15192       1   15099   15123   15117   15156       1
   15090   15111   15144   15177       1   15087   15105   15135   15168       1
   15084   15081   15096   15120       1   15081   15084   15099   15126       1
   15081   15096   15117   15156       1   15078   15057   15072   15093       1
   15075   15051   15072   15093       1   15072   15093   15114   15147       2
   15072   15093   15114   15150       2   15072   15093   15114   15153       2
   15069   15045   15063   15081       1   15066   15084   15099   15126       1
   15066   15087   15102   15132       1   15066   15090   15108   15138       1
   15063   15081   15096   15120       1   15060   15036   15057   15072       1
   15060   15036   15057   15078       1   15057   15072   15051   15075       1
   15054   15033   15051   15072       1   15054   15033   15051   15075       1
   15051   15072   15057   15078       1   15048   15030   15045   15063       1
   15048   15030   15045   15069       1   15042   15027   15039   15063       1
   15042   15027   15039   15066       1   15039   15063   15045   15069       1
   15036   15024   15033   15054       1   15033   15024   15036   15060       1
   15030   15021   15027   15042       1   15027   15021   15030   15048       1
   15024   15033   15051   15075       1   15024   15036   15057   15078       1
   15021   15030   15045   15069       1   15018   15021   15027   15042       1
   15018   15021   15030   15048       1   15018   15024   15033   15054       1
   15018   15024   15036   15060       1   15015   15003   15009   15018       1
   15012   14997   15009   15018       1   15006   14985   15003   15009       1
   15006   14985   15003   15015       1   15003   15009   14997   15012       1
   15000   14982   14997   15009       1   15000   14982   14997   15012       1
   14997   15009   15003   15015       1   14985   14976   14982   15000       1
   14982   14976   14985   15006       1   14976   14973   14979   14988       2
   14976   14973   14979   14991       2   14976   14973   14979   14994       2
   14976   14982   14997   15012       1   14976   14985   15003   15015       1
   14973   14976   14982   15000       1   14973   14976   14985   15006       1
   15846   15789   15840   15864       1   15843   15783   15840   15864       1
   15840   15864   15882   15930       2   15840   15864   15882   15933       2
   15840   15864   15882   15936       2   15837   15777   15831   15861       1
   15834   15771   15831   15861       1   15831   15861   15879   15921       2
   15831   15861   15879   15924       2   15831   15861   15879   15927       2
   15828   15765   15822   15858       1   15825   15759   15822   15858       1
   15822   15858   15876   15912       2   15822   15858   15876   15915       2
   15822   15858   15876   15918       2   15819   15753   15816   15855       1
   15816   15855   15873   15903       2   15816   15855   15873   15906       2
   15816   15855   15873   15909       2   15813   15747   15816   15855       1
   15810   15744   15804   15852       1   15807   15738   15804   15852       1
   15804   15852   15870   15894       2   15804   15852   15870   15897       2
   15804   15852   15870   15900       2   15801   15729   15795   15849       1
   15798   15723   15795   15849       1   15795   15849   15867   15885       2
   15795   15849   15867   15888       2   15795   15849   15867   15891       2
   15792   15720   15789   15840       1   15792   15720   15789   15846       1
   15789   15840   15783   15843       1   15786   15717   15783   15840       1
   15786   15717   15783   15843       1   15783   15840   15789   15846       1
   15780   15714   15777   15831       1   15780   15714   15777   15837       1
   15777   15831   15771   15834       1   15774   15711   15771   15831       1
   15774   15711   15771   15834       1   15771   15831   15777   15837       1
   15768   15708   15765   15822       1   15768   15708   15765   15828       1
   15765   15822   15759   15825       1   15762   15705   15759   15822       1
   15762   15705   15759   15825       1   15759   15822   15765   15828       1
   15756   15702   15753   15816       1   15756   15702   15753   15819       1
   15753   15816   15747   15813       1   15750   15699   15747   15813       1
   15750   15699   15747   15816       1   15747   15816   15753   15819       1
   15744   15804   15738   15807       1   15741   15696   15744   15804       1
   15741   15696   15744   15810       1   15738   15804   15744   15810       1
   15735   15693   15738   15804       1   15735   15693   15738   15807       1
   15732   15690   15729   15795       1   15732   15690   15729   15801       1
   15729   15795   15723   15798       1   15726   15687   15723   15795       1
   15726   15687   15723   15798       1   15723   15795   15729   15801       1
   15720   15681   15717   15786       1   15717   15681   15720   15792       1
   15714   15678   15711   15774       1   15711   15678   15714   15780       1
   15708   15672   15705   15762       1   15705   15672   15708   15768       1
   15702   15669   15699   15750       1   15699   15669   15702   15756       1
   15696   15666   15693   15735       1   15693   15666   15696   15741       1
   15690   15663   15687   15726       1   15687   15663   15690   15732       1
   15681   15717   15783   15843       1   15681   15720   15789   15846       1
   15678   15711   15771   15834       1   15678   15714   15777   15837       1
   15672   15705   15759   15825       1   15672   15708   15765   15828       1
   15669   15699   15747   15813       1   15669   15702   15753   15819       1
   15666   15693   15738   15807       1   15666   15696   15744   15810       1
   15663   15687   15723   15798       1   15663   15690   15729   15801       1
   15660   15627   15657   15684       1   15654   15624   15657   15684       1
   15654   15678   15711   15774       1   15654   15678   15714   15780       1
   15654   15681   15717   15786       1   15654   15681   15720   15792       1
   15651   15618   15648   15675       1   15645   15612   15648   15675       1
   15645   15669   15699   15750       1   15645   15669   15702   15756       1
   15645   15672   15705   15762       1   15645   15672   15708   15768       1
   15642   15663   15687   15726       1   15642   15663   15690   15732       1
   15642   15666   15693   15735       1   15642   15666   15696   15741       1
   15639   15600   15606   15642       1   15624   15657   15627   15660       1
   15621   15591   15624   15654       1   15621   15591   15624   15657       1
   15615   15585   15612   15645       1   15615   15585   15612   15648       1
   15612   15648   15618   15651       1   15609   15582   15606   15642       1
   15603   15579   15600   15606       1   15603   15579   15600   15639       1
   15600   15606   15582   15609       1   15594   15573   15591   15621       1
   15594   15588   15618   15651       1   15594   15627   15657   15684       1
   15591   15624   15657   15684       1   15588   15570   15585   15615       1
   15588   15594   15627   15660       1   15588   15618   15648   15675       1
   15585   15612   15648   15675       1   15582   15606   15600   15639       1
   15573   15594   15627   15660       1   15570   15588   15618   15651       1
   15567   15564   15579   15603       1   15564   15567   15582   15609       1
   15564   15579   15600   15639       1   15561   15540   15555   15576       1
   15558   15534   15555   15576       1   15555   15576   15597   15630       2
   15555   15576   15597   15633       2   15555   15576   15597   15636       2
   15552   15528   15546   15564       1   15549   15567   15582   15609       1
   15549   15570   15585   15615       1   15549   15573   15591   15621       1
   15546   15564   15579   15603       1   15543   15519   15540   15555       1
   15543   15519   15540   15561       1   15540   15555   15534   15558       1
   15537   15516   15534   15555       1   15537   15516   15534   15558       1
   15534   15555   15540   15561       1   15531   15513   15528   15546       1
   15531   15513   15528   15552       1   15525   15510   15522   15546       1
   15525   15510   15522   15549       1   15522   15546   15528   15552       1
   15519   15507   15516   15537       1   15516   15507   15519   15543       1
   15513   15504   15510   15525       1   15510   15504   15513   15531       1
   15507   15516   15534   15558       1   15507   15519   15540   15561       1
   15504   15513   15528   15552       1   15501   15504   15510   15525       1
   15501   15504   15513   15531       1   15501   15507   15516   15537       1
   15501   15507   15519   15543       1   15498   15486   15492   15501       1
   15495   15480   15492   15501       1   15489   15468   15486   15492       1
   15489   15468   15486   15498       1   15486   15492   15480   15495       1
   15483   15465   15480   15492       1   15483   15465   15480   15495       1
   15480   15492   15486   15498       1   15468   15459   15465   15483       1
   15465   15459   15468   15489       1   15459   15456   15462   15471       2
   15459   15456   15462   15474       2   15459   15456   15462   15477       2
   15459   15465   15480   15495       1   15459   15468   15486   15498       1
   15456   15459   15465   15483       1   15456   15459   15468   15489       1
   16329   16272   16323   16347       1   16326   16266   16323   16347       1
   16323   16347   16365   16413       2   16323   16347   16365   16416       2
   16323   16347   16365   16419       2   16320   16260   16314   16344       1
   16317   16254   16314   16344       1   16314   16344   16362   16404       2
   16314   16344   16362   16407       2   16314   16344   16362   16410       2
   16311   16248   16305   16341       1   16308   16242   16305   16341       1
   16305   16341   16359   16395       2   16305   16341   16359   16398       2
   16305   16341   16359   16401       2   16302   16236   16299   16338       1
   16299   16338   16356   16386       2   16299   16338   16356   16389       2
   16299   16338   16356   16392       2   16296   16230   16299   16338       1
   16293   16227   16287   16335       1   16290   16221   16287   16335       1
   16287   16335   16353   16377       2   16287   16335   16353   16380       2
   16287   16335   16353   16383       2   16284   16212   16278   16332       1
   16281   16206   16278   16332       1   16278   16332   16350   16368       2
   16278   16332   16350   16371       2   16278   16332   16350   16374       2
   16275   16203   16272   16323       1   16275   16203   16272   16329       1
   16272   16323   16266   16326       1   16269   16200   16266   16323       1
   16269   16200   16266   16326       1   16266   16323   16272   16329       1
   16263   16197   16260   16314       1   16263   16197   16260   16320       1
   16260   16314   16254   16317       1   16257   16194   16254   16314       1
   16257   16194   16254   16317       1   16254   16314   16260   16320       1
   16251   16191   16248   16305       1   16251   16191   16248   16311       1
   16248   16305   16242   16308       1   16245   16188   16242   16305       1
   16245   16188   16242   16308       1   16242   16305   16248   16311       1
   16239   16185   16236   16299       1   16239   16185   16236   16302       1
   16236   16299   16230   16296       1   16233   16182   16230   16296       1
   16233   16182   16230   16299       1   16230   16299   16236   16302       1
   16227   16287   16221   16290       1   16224   16179   16227   16287       1
   16224   16179   16227   16293       1   16221   16287   16227   16293       1
   16218   16176   16221   16287       1   16218   16176   16221   16290       1
   16215   16173   16212   16278       1   16215   16173   16212   16284       1
   16212   16278   16206   16281       1   16209   16170   16206   16278       1
   16209   16170   16206   16281       1   16206   16278   16212   16284       1
   16203   16164   16200   16269       1   16200   16164   16203   16275       1
   16197   16161   16194   16257       1   16194   16161   16197   16263       1
   16191   16155   16188   16245       1   16188   16155   16191   16251       1
   16185   16152   16182   16233       1   16182   16152   16185   16239       1
   16179   16149   16176   16218       1   16176   16149   16179   16224       1
   16173   16146   16170   16209       1   16170   16146   16173   16215       1
   16164   16200   16266   16326       1   16164   16203   16272   16329       1
   16161   16194   16254   16317       1   16161   16197   16260   16320       1
   16155   16188   16242   16308       1   16155   16191   16248   16311       1
   16152   16182   16230   16296       1   16152   16185   16236   16302       1
   16149   16176   16221   16290       1   16149   16179   16227   16293       1
   16146   16170   16206   16281       1   16146   16173   16212   16284       1
   16143   16110   16140   16167       1   16137   16107   16140   16167       1
   16137   16161   16194   16257       1   16137   16161   16197   16263       1
   16137   16164   16200   16269       1   16137   16164   16203   16275       1
   16134   16101   16131   16158       1   16128   16095   16131   16158       1
   16128   16152   16182   16233       1   16128   16152   16185   16239       1
   16128   16155   16188   16245       1   16128   16155   16191   16251       1
   16125   16146   16170   16209       1   16125   16146   16173   16215       1
   16125   16149   16176   16218       1   16125   16149   16179   16224       1
   16122   16083   16089   16125       1   16107   16140   16110   16143       1
   16104   16074   16107   16137       1   16104   16074   16107   16140       1
   16098   16068   16095   16128       1   16098   16068   16095   16131       1
   16095   16131   16101   16134       1   16092   16065   16089   16125       1
   16086   16062   16083   16089       1   16086   16062   16083   16122       1
   16083   16089   16065   16092       1   16077   16056   16074   16104       1
   16077   16071   16101   16134       1   16077   16110   16140   16167       1
   16074   16107   16140   16167       1   16071   16053   16068   16098       1
   16071   16077   16110   16143       1   16071   16101   16131   16158       1
   16068   16095   16131   16158       1   16065   16089   16083   16122       1
   16056   16077   16110   16143       1   16053   16071   16101   16134       1
   16050   16047   16062   16086       1   16047   16050   16065   16092       1
   16047   16062   16083   16122       1   16044   16023   16038   16059       1
   16041   16017   16038   16059       1   16038   16059   16080   16113       2
   16038   16059   16080   16116       2   16038   16059   16080   16119       2
   16035   16011   16029   16047       1   16032   16050   16065   16092       1
   16032   16053   16068   16098       1   16032   16056   16074   16104       1
   16029   16047   16062   16086       1   16026   16002   16023   16038       1
   16026   16002   16023   16044       1   16023   16038   16017   16041       1
   16020   15999   16017   16038       1   16020   15999   16017   16041       1
   16017   16038   16023   16044       1   16014   15996   16011   16029       1
   16014   15996   16011   16035       1   16008   15993   16005   16029       1
   16008   15993   16005   16032       1   16005   16029   16011   16035       1
   16002   15990   15999   16020       1   15999   15990   16002   16026       1
   15996   15987   15993   16008       1   15993   15987   15996   16014       1
   15990   15999   16017   16041       1   15990   16002   16023   16044       1
   15987   15996   16011   16035       1   15984   15987   15993   16008       1
   15984   15987   15996   16014       1   15984   15990   15999   16020       1
   15984   15990   16002   16026       1   15981   15969   15975   15984       1
   15978   15963   15975   15984       1   15972   15951   15969   15975       1
   15972   15951   15969   15981       1   15969   15975   15963   15978       1
   15966   15948   15963   15975       1   15966   15948   15963   15978       1
   15963   15975   15969   15981       1   15951   15942   15948   15966       1
   15948   15942   15951   15972       1   15942   15939   15945   15954       2
   15942   15939   15945   15957       2   15942   15939   15945   15960       2
   15942   15948   15963   15978       1   15942   15951   15969   15981       1
   15939   15942   15948   15966       1   15939   15942   15951   15972       1
   16812   16755   16806   16830       1   16809   16749   16806   16830       1
   16806   16830   16848   16896       2   16806   16830   16848   16899       2
   16806   16830   16848   16902       2   16803   16743   16797   16827       1
   16800   16737   16797   16827       1   16797   16827   16845   16887       2
   16797   16827   16845   16890       2   16797   16827   16845   16893       2
   16794   16731   16788   16824       1   16791   16725   16788   16824       1
   16788   16824   16842   16878       2   16788   16824   16842   16881       2
   16788   16824   16842   16884       2   16785   16719   16782   16821       1
   16782   16821   16839   16869       2   16782   16821   16839   16872       2
   16782   16821   16839   16875       2   16779   16713   16782   16821       1
   16776   16710   16770   16818       1   16773   16704   16770   16818       1
   16770   16818   16836   16860       2   16770   16818   16836   16863       2
   16770   16818   16836   16866       2   16767   16695   16761   16815       1
   16764   16689   16761   16815       1   16761   16815   16833   16851       2
   16761   16815   16833   16854       2   16761   16815   16833   16857       2
   16758   16686   16755   16806       1   16758   16686   16755   16812       1
   16755   16806   16749   16809       1   16752   16683   16749   16806       1
   16752   16683   16749   16809       1   16749   16806   16755   16812       1
   16746   16680   16743   16797       1   16746   16680   16743   16803       1
   16743   16797   16737   16800       1   16740   16677   16737   16797       1
   16740   16677   16737   16800       1   16737   16797   16743   16803       1
   16734   16674   16731   16788       1   16734   16674   16731   16794       1
   16731   16788   16725   16791       1   16728   16671   16725   16788       1
   16728   16671   16725   16791       1   16725   16788   16731   16794       1
   16722   16668   16719   16782       1   16722   16668   16719   16785       1
   16719   16782   16713   16779       1   16716   16665   16713   16779       1
   16716   16665   16713   16782       1   16713   16782   16719   16785       1
   16710   16770   16704   16773       1   16707   16662   16710   16770       1
   16707   16662   16710   16776       1   16704   16770   16710   16776       1
   16701   16659   16704   16770       1   16701   16659   16704   16773       1
   16698   16656   16695   16761       1   16698   16656   16695   16767       1
   16695   16761   16689   16764       1   16692   16653   16689   16761       1
   16692   16653   16689   16764       1   16689   16761   16695   16767       1
   16686   16647   16683   16752       1   16683   16647   16686   16758       1
   16680   16644   16677   16740       1   16677   16644   16680   16746       1
   16674   16638   16671   16728       1   16671   16638   16674   16734       1
   16668   16635   16665   16716       1   16665   16635   16668   16722       1
   16662   16632   16659   16701       1   16659   16632   16662   16707       1
   16656   16629   16653   16692       1   16653   16629   16656   16698       1
   16647   16683   16749   16809       1   16647   16686   16755   16812       1
   16644   16677   16737   16800       1   16644   16680   16743   16803       1
   16638   16671   16725   16791       1   16638   16674   16731   16794       1
   16635   16665   16713   16779       1   16635   16668   16719   16785       1
   16632   16659   16704   16773       1   16632   16662   16710   16776       1
   16629   16653   16689   16764       1   16629   16656   16695   16767       1
   16626   16593   16623   16650       1   16620   16590   16623   16650       1
   16620   16644   16677   16740       1   16620   16644   16680   16746       1
   16620   16647   16683   16752       1   16620   16647   16686   16758       1
   16617   16584   16614   16641       1   16611   16578   16614   16641       1
   16611   16635   16665   16716       1   16611   16635   16668   16722       1
   16611   16638   16671   16728       1   16611   16638   16674   16734       1
   16608   16629   16653   16692       1   16608   16629   16656   16698       1
   16608   16632   16659   16701       1   16608   16632   16662   16707       1
   16605   16566   16572   16608       1   16590   16623   16593   16626       1
   16587   16557   16590   16620       1   16587   16557   16590   16623       1
   16581   16551   16578   16611       1   16581   16551   16578   16614       1
   16578   16614   16584   16617       1   16575   16548   16572   16608       1
   16569   16545   16566   16572       1   16569   16545   16566   16605       1
   16566   16572   16548   16575       1   16560   16539   16557   16587       1
   16560   16554   16584   16617       1   16560   16593   16623   16650       1
   16557   16590   16623   16650       1   16554   16536   16551   16581       1
   16554   16560   16593   16626       1   16554   16584   16614   16641       1
   16551   16578   16614   16641       1   16548   16572   16566   16605       1
   16539   16560   16593   16626       1   16536   16554   16584   16617       1
   16533   16530   16545   16569       1   16530   16533   16548   16575       1
   16530   16545   16566   16605       1   16527   16506   16521   16542       1
   16524   16500   16521   16542       1   16521   16542   16563   16596       2
   16521   16542   16563   16599       2   16521   16542   16563   16602       2
   16518   16494   16512   16530       1   16515   16533   16548   16575       1
   16515   16536   16551   16581       1   16515   16539   16557   16587       1
   16512   16530   16545   16569       1   16509   16485   16506   16521       1
   16509   16485   16506   16527       1   16506   16521   16500   16524       1
   16503   16482   16500   16521       1   16503   16482   16500   16524       1
   16500   16521   16506   16527       1   16497   16479   16494   16512       1
   16497   16479   16494   16518       1   16491   16476   16488   16512       1
   16491   16476   16488   16515       1   16488   16512   16494   16518       1
   16485   16473   16482   16503       1   16482   16473   16485   16509       1
   16479   16470   16476   16491       1   16476   16470   16479   16497       1
   16473   16482   16500   16524       1   16473   16485   16506   16527       1
   16470   16479   16494   16518       1   16467   16470   16476   16491       1
   16467   16470   16479   16497       1   16467   16473   16482   16503       1
   16467   16473   16485   16509       1   16464   16452   16458   16467       1
   16461   16446   16458   16467       1   16455   16434   16452   16458       1
   16455   16434   16452   16464       1   16452   16458   16446   16461       1
   16449   16431   16446   16458       1   16449   16431   16446   16461       1
   16446   16458   16452   16464       1   16434   16425   16431   16449       1
   16431   16425   16434   16455       1   16425   16422   16428   16437       2
   16425   16422   16428   16440       2   16425   16422   16428   16443       2
   16425   16431   16446   16461       1   16425   16434   16452   16464       1
   16422   16425   16431   16449       1   16422   16425   16434   16455       1
   17295   17238   17289   17313       1   17292   17232   17289   17313       1
   17289   17313   17331   17379       2   17289   17313   17331   17382       2
   17289   17313   17331   17385       2   17286   17226   17280   17310       1
   17283   17220   17280   17310       1   17280   17310   17328   17370       2
   17280   17310   17328   17373       2   17280   17310   17328   17376       2
   17277   17214   17271   17307       1   17274   17208   17271   17307       1
   17271   17307   17325   17361       2   17271   17307   17325   17364       2
   17271   17307   17325   17367       2   17268   17202   17265   17304       1
   17265   17304   17322   17352       2   17265   17304   17322   17355       2
   17265   17304   17322   17358       2   17262   17196   17265   17304       1
   17259   17193   17253   17301       1   17256   17187   17253   17301       1
   17253   17301   17319   17343       2   17253   17301   17319   17346       2
   17253   17301   17319   17349       2   17250   17178   17244   17298       1
   17247   17172   17244   17298       1   17244   17298   17316   17334       2
   17244   17298   17316   17337       2   17244   17298   17316   17340       2
   17241   17169   17238   17289       1   17241   17169   17238   17295       1
   17238   17289   17232   17292       1   17235   17166   17232   17289       1
   17235   17166   17232   17292       1   17232   17289   17238   17295       1
   17229   17163   17226   17280       1   17229   17163   17226   17286       1
   17226   17280   17220   17283       1   17223   17160   17220   17280       1
   17223   17160   17220   17283       1   17220   17280   17226   17286       1
   17217   17157   17214   17271       1   17217   17157   17214   17277       1
   17214   17271   17208   17274       1   17211   17154   17208   17271       1
   17211   17154   17208   17274       1   17208   17271   17214   17277       1
   17205   17151   17202   17265       1   17205   17151   17202   17268       1
   17202   17265   17196   17262       1   17199   17148   17196   17262       1
   17199   17148   17196   17265       1   17196   17265   17202   17268       1
   17193   17253   17187   17256       1   17190   17145   17193   17253       1
   17190   17145   17193   17259       1   17187   17253   17193   17259       1
   17184   17142   17187   17253       1   17184   17142   17187   17256       1
   17181   17139   17178   17244       1   17181   17139   17178   17250       1
   17178   17244   17172   17247       1   17175   17136   17172   17244       1
   17175   17136   17172   17247       1   17172   17244   17178   17250       1
   17169   17130   17166   17235       1   17166   17130   17169   17241       1
   17163   17127   17160   17223       1   17160   17127   17163   17229       1
   17157   17121   17154   17211       1   17154   17121   17157   17217       1
   17151   17118   17148   17199       1   17148   17118   17151   17205       1
   17145   17115   17142   17184       1   17142   17115   17145   17190       1
   17139   17112   17136   17175       1   17136   17112   17139   17181       1
   17130   17166   17232   17292       1   17130   17169   17238   17295       1
   17127   17160   17220   17283       1   17127   17163   17226   17286       1
   17121   17154   17208   17274       1   17121   17157   17214   17277       1
   17118   17148   17196   17262       1   17118   17151   17202   17268       1
   17115   17142   17187   17256       1   17115   17145   17193   17259       1
   17112   17136   17172   17247       1   17112   17139   17178   17250       1
   17109   17076   17106   17133       1   17103   17073   17106   17133       1
   17103   17127   17160   17223       1   17103   17127   17163   17229       1
   17103   17130   17166   17235       1   17103   17130   17169   17241       1
   17100   17067   17097   17124       1   17094   17061   17097   17124       1
   17094   17118   17148   17199       1   17094   17118   17151   17205       1
   17094   17121   17154   17211       1   17094   17121   17157   17217       1
   17091   17112   17136   17175       1   17091   17112   17139   17181       1
   17091   17115   17142   17184       1   17091   17115   17145   17190       1
   17088   17049   17055   17091       1   17073   17106   17076   17109       1
   17070   17040   17073   17103       1   17070   17040   17073   17106       1
   17064   17034   17061   17094       1   17064   17034   17061   17097       1
   17061   17097   17067   17100       1   17058   17031   17055   17091       1
   17052   17028   17049   17055       1   17052   17028   17049   17088       1
   17049   17055   17031   17058       1   17043   17022   17040   17070       1
   17043   17037   17067   17100       1   17043   17076   17106   17133       1
   17040   17073   17106   17133       1   17037   17019   17034   17064       1
   17037   17043   17076   17109       1   17037   17067   17097   17124       1
   17034   17061   17097   17124       1   17031   17055   17049   17088       1
   17022   17043   17076   17109       1   17019   17037   17067   17100       1
   17016   17013   17028   17052       1   17013   17016   17031   17058       1
   17013   17028   17049   17088       1   17010   16989   17004   17025       1
   17007   16983   17004   17025       1   17004   17025   17046   17079       2
   17004   17025   17046   17082       2   17004   17025   17046   17085       2
   17001   16977   16995   17013       1   16998   17016   17031   17058       1
   16998   17019   17034   17064       1   16998   17022   17040   17070       1
   16995   17013   17028   17052       1   16992   16968   16989   17004       1
   16992   16968   16989   17010       1   16989   17004   16983   17007       1
   16986   16965   16983   17004       1   16986   16965   16983   17007       1
   16983   17004   16989   17010       1   16980   16962   16977   16995       1
   16980   16962   16977   17001       1   16974   16959   16971   16995       1
   16974   16959   16971   16998       1   16971   16995   16977   17001       1
   16968   16956   16965   16986       1   16965   16956   16968   16992       1
   16962   16953   16959   16974       1   16959   16953   16962   16980       1
   16956   16965   16983   17007       1   16956   16968   16989   17010       1
   16953   16962   16977   17001       1   16950   16953   16959   16974       1
   16950   16953   16962   16980       1   16950   16956   16965   16986       1
   16950   16956   16968   16992       1   16947   16935   16941   16950       1
   16944   16929   16941   16950       1   16938   16917   16935   16941       1
   16938   16917   16935   16947       1   16935   16941   16929   16944       1
   16932   16914   16929   16941       1   16932   16914   16929   16944       1
   16929   16941   16935   16947       1   16917   16908   16914   16932       1
   16914   16908   16917   16938       1   16908   16905   16911   16920       2
   16908   16905   16911   16923       2   16908   16905   16911   16926       2
   16908   16914   16929   16944       1   16908   16917   16935   16947       1
   16905   16908   16914   16932       1   16905   16908   16917   16938       1
   17778   17721   17772   17796       1   17775   17715   17772   17796       1
   17772   17796   17814   17862       2   17772   17796   17814   17865       2
   17772   17796   17814   17868       2   17769   17709   17763   17793       1
   17766   17703   17763   17793       1   17763   17793   17811   17853       2
   17763   17793   17811   17856       2   17763   17793   17811   17859       2
   17760   17697   17754   17790       1   17757   17691   17754   17790       1
   17754   17790   17808   17844       2   17754   17790   17808   17847       2
   17754   17790   17808   17850       2   17751   17685   17748   17787       1
   17748   17787   17805   17835       2   17748   17787   17805   17838       2
   17748   17787   17805   17841       2   17745   17679   17748   17787       1
   17742   17676   17736   17784       1   17739   17670   17736   17784       1
   17736   17784   17802   17826       2   17736   17784   17802   17829       2
   17736   17784   17802   17832       2   17733   17661   17727   17781       1
   17730   17655   17727   17781       1   17727   17781   17799   17817       2
   17727   17781   17799   17820       2   17727   17781   17799   17823       2
   17724   17652   17721   17772       1   17724   17652   17721   17778       1
   17721   17772   17715   17775       1   17718   17649   17715   17772       1
   17718   17649   17715   17775       1   17715   17772   17721   17778       1
   17712   17646   17709   17763       1   17712   17646   17709   17769       1
   17709   17763   17703   17766       1   17706   17643   17703   17763       1
   17706   17643   17703   17766       1   17703   17763   17709   17769       1
   17700   17640   17697   17754       1   17700   17640   17697   17760       1
   17697   17754   17691   17757       1   17694   17637   17691   17754       1
   17694   17637   17691   17757       1   17691   17754   17697   17760       1
   17688   17634   17685   17748       1   17688   17634   17685   17751       1
   17685   17748   17679   17745       1   17682   17631   17679   17745       1
   17682   17631   17679   17748       1   17679   17748   17685   17751       1
   17676   17736   17670   17739       1   17673   17628   17676   17736       1
   17673   17628   17676   17742       1   17670   17736   17676   17742       1
   17667   17625   17670   17736       1   17667   17625   17670   17739       1
   17664   17622   17661   17727       1   17664   17622   17661   17733       1
   17661   17727   17655   17730       1   17658   17619   17655   17727       1
   17658   17619   17655   17730       1   17655   17727   17661   17733       1
   17652   17613   17649   17718       1   17649   17613   17652   17724       1
   17646   17610   17643   17706       1   17643   17610   17646   17712       1
   17640   17604   17637   17694       1   17637   17604   17640   17700       1
   17634   17601   17631   17682       1   17631   17601   17634   17688       1
   17628   17598   17625   17667       1   17625   17598   17628   17673       1
   17622   17595   17619   17658       1   17619   17595   17622   17664       1
   17613   17649   17715   17775       1   17613   17652   17721   17778       1
   17610   17643   17703   17766       1   17610   17646   17709   17769       1
   17604   17637   17691   17757       1   17604   17640   17697   17760       1
   17601   17631   17679   17745       1   17601   17634   17685   17751       1
   17598   17625   17670   17739       1   17598   17628   17676   17742       1
   17595   17619   17655   17730       1   17595   17622   17661   17733       1
   17592   17559   17589   17616       1   17586   17556   17589   17616       1
   17586   17610   17643   17706       1   17586   17610   17646   17712       1
   17586   17613   17649   17718       1   17586   17613   17652   17724       1
   17583   17550   17580   17607       1   17577   17544   17580   17607       1
   17577   17601   17631   17682       1   17577   17601   17634   17688       1
   17577   17604   17637   17694       1   17577   17604   17640   17700       1
   17574   17595   17619   17658       1   17574   17595   17622   17664       1
   17574   17598   17625   17667       1   17574   17598   17628   17673       1
   17571   17532   17538   17574       1   17556   17589   17559   17592       1
   17553   17523   17556   17586       1   17553   17523   17556   17589       1
   17547   17517   17544   17577       1   17547   17517   17544   17580       1
   17544   17580   17550   17583       1   17541   17514   17538   17574       1
   17535   17511   17532   17538       1   17535   17511   17532   17571       1
   17532   17538   17514   17541       1   17526   17505   17523   17553       1
   17526   17520   17550   17583       1   17526   17559   17589   17616       1
   17523   17556   17589   17616       1   17520   17502   17517   17547       1
   17520   17526   17559   17592       1   17520   17550   17580   17607       1
   17517   17544   17580   17607       1   17514   17538   17532   17571       1
   17505   17526   17559   17592       1   17502   17520   17550   17583       1
   17499   17496   17511   17535       1   17496   17499   17514   17541       1
   17496   17511   17532   17571       1   17493   17472   17487   17508       1
   17490   17466   17487   17508       1   17487   17508   17529   17562       2
   17487   17508   17529   17565       2   17487   17508   17529   17568       2
   17484   17460   17478   17496       1   17481   17499   17514   17541       1
   17481   17502   17517   17547       1   17481   17505   17523   17553       1
   17478   17496   17511   17535       1   17475   17451   17472   17487       1
   17475   17451   17472   17493       1   17472   17487   17466   17490       1
   17469   17448   17466   17487       1   17469   17448   17466   17490       1
   17466   17487   17472   17493       1   17463   17445   17460   17478       1
   17463   17445   17460   17484       1   17457   17442   17454   17478       1
   17457   17442   17454   17481       1   17454   17478   17460   17484       1
   17451   17439   17448   17469       1   17448   17439   17451   17475       1
   17445   17436   17442   17457       1   17442   17436   17445   17463       1
   17439   17448   17466   17490       1   17439   17451   17472   17493       1
   17436   17445   17460   17484       1   17433   17436   17442   17457       1
   17433   17436   17445   17463       1   17433   17439   17448   17469       1
   17433   17439   17451   17475       1   17430   17418   17424   17433       1
   17427   17412   17424   17433       1   17421   17400   17418   17424       1
   17421   17400   17418   17430       1   17418   17424   17412   17427       1
   17415   17397   17412   17424       1   17415   17397   17412   17427       1
   17412   17424   17418   17430       1   17400   17391   17397   17415       1
   17397   17391   17400   17421       1   17391   17388   17394   17403       2
   17391   17388   17394   17406       2   17391   17388   17394   17409       2
   17391   17397   17412   17427       1   17391   17400   17418   17430       1
   17388   17391   17397   17415       1   17388   17391   17400   17421       1
   18261   18204   18255   18279       1   18258   18198   18255   18279       1
   18255   18279   18297   18345       2   18255   18279   18297   18348       2
   18255   18279   18297   18351       2   18252   18192   18246   18276       1
   18249   18186   18246   18276       1   18246   18276   18294   18336       2
   18246   18276   18294   18339       2   18246   18276   18294   18342       2
   18243   18180   18237   18273       1   18240   18174   18237   18273       1
   18237   18273   18291   18327       2   18237   18273   18291   18330       2
   18237   18273   18291   18333       2   18234   18168   18231   18270       1
   18231   18270   18288   18318       2   18231   18270   18288   18321       2
   18231   18270   18288   18324       2   18228   18162   18231   18270       1
   18225   18159   18219   18267       1   18222   18153   18219   18267       1
   18219   18267   18285   18309       2   18219   18267   18285   18312       2
   18219   18267   18285   18315       2   18216   18144   18210   18264       1
   18213   18138   18210   18264       1   18210   18264   18282   18300       2
   18210   18264   18282   18303       2   18210   18264   18282   18306       2
   18207   18135   18204   18255       1   18207   18135   18204   18261       1
   18204   18255   18198   18258       1   18201   18132   18198   18255       1
   18201   18132   18198   18258       1   18198   18255   18204   18261       1
   18195   18129   18192   18246       1   18195   18129   18192   18252       1
   18192   18246   18186   18249       1   18189   18126   18186   18246       1
   18189   18126   18186   18249       1   18186   18246   18192   18252       1
   18183   18123   18180   18237       1   18183   18123   18180   18243       1
   18180   18237   18174   18240       1   18177   18120   18174   18237       1
   18177   18120   18174   18240       1   18174   18237   18180   18243       1
   18171   18117   18168   18231       1   18171   18117   18168   18234       1
   18168   18231   18162   18228       1   18165   18114   18162   18228       1
   18165   18114   18162   18231       1   18162   18231   18168   18234       1
   18159   18219   18153   18222       1   18156   18111   18159   18219       1
   18156   18111   18159   18225       1   18153   18219   18159   18225       1
   18150   18108   18153   18219       1   18150   18108   18153   18222       1
   18147   18105   18144   18210       1   18147   18105   18144   18216       1
   18144   18210   18138   18213       1   18141   18102   18138   18210       1
   18141   18102   18138   18213       1   18138   18210   18144   18216       1
   18135   18096   18132   18201       1   18132   18096   18135   18207       1
   18129   18093   18126   18189       1   18126   18093   18129   18195       1
   18123   18087   18120   18177       1   18120   18087   18123   18183       1
   18117   18084   18114   18165       1   18114   18084   18117   18171       1
   18111   18081   18108   18150       1   18108   18081   18111   18156       1
   18105   18078   18102   18141       1   18102   18078   18105   18147       1
   18096   18132   18198   18258       1   18096   18135   18204   18261       1
   18093   18126   18186   18249       1   18093   18129   18192   18252       1
   18087   18120   18174   18240       1   18087   18123   18180   18243       1
   18084   18114   18162   18228       1   18084   18117   18168   18234       1
   18081   18108   18153   18222       1   18081   18111   18159   18225       1
   18078   18102   18138   18213       1   18078   18105   18144   18216       1
   18075   18042   18072   18099       1   18069   18039   18072   18099       1
   18069   18093   18126   18189       1   18069   18093   18129   18195       1
   18069   18096   18132   18201       1   18069   18096   18135   18207       1
   18066   18033   18063   18090       1   18060   18027   18063   18090       1
   18060   18084   18114   18165       1   18060   18084   18117   18171       1
   18060   18087   18120   18177       1   18060   18087   18123   18183       1
   18057   18078   18102   18141       1   18057   18078   18105   18147       1
   18057   18081   18108   18150       1   18057   18081   18111   18156       1
   18054   18015   18021   18057       1   18039   18072   18042   18075       1
   18036   18006   18039   18069       1   18036   18006   18039   18072       1
   18030   18000   18027   18060       1   18030   18000   18027   18063       1
   18027   18063   18033   18066       1   18024   17997   18021   18057       1
   18018   17994   18015   18021       1   18018   17994   18015   18054       1
   18015   18021   17997   18024       1   18009   17988   18006   18036       1
   18009   18003   18033   18066       1   18009   18042   18072   18099       1
   18006   18039   18072   18099       1   18003   17985   18000   18030       1
   18003   18009   18042   18075       1   18003   18033   18063   18090       1
   18000   18027   18063   18090       1   17997   18021   18015   18054       1
   17988   18009   18042   18075       1   17985   18003   18033   18066       1
   17982   17979   17994   18018       1   17979   17982   17997   18024       1
   17979   17994   18015   18054       1   17976   17955   17970   17991       1
   17973   17949   17970   17991       1   17970   17991   18012   18045       2
   17970   17991   18012   18048       2   17970   17991   18012   18051       2
   17967   17943   17961   17979       1   17964   17982   17997   18024       1
   17964   17985   18000   18030       1   17964   17988   18006   18036       1
   17961   17979   17994   18018       1   17958   17934   17955   17970       1
   17958   17934   17955   17976       1   17955   17970   17949   17973       1
   17952   17931   17949   17970       1   17952   17931   17949   17973       1
   17949   17970   17955   17976       1   17946   17928   17943   17961       1
   17946   17928   17943   17967       1   17940   17925   17937   17961       1
   17940   17925   17937   17964       1   17937   17961   17943   17967       1
   17934   17922   17931   17952       1   17931   17922   17934   17958       1
   17928   17919   17925   17940       1   17925   17919   17928   17946       1
   17922   17931   17949   17973       1   17922   17934   17955   17976       1
   17919   17928   17943   17967       1   17916   17919   17925   17940       1
   17916   17919   17928   17946       1   17916   17922   17931   17952       1
   17916   17922   17934   17958       1   17913   17901   17907   17916       1
   17910   17895   17907   17916       1   17904   17883   17901   17907       1
   17904   17883   17901   17913       1   17901   17907   17895   17910       1
   17898   17880   17895   17907       1   17898   17880   17895   17910       1
   17895   17907   17901   17913       1   17883   17874   17880   17898       1
   17880   17874   17883   17904       1   17874   17871   17877   17886       2
   17874   17871   17877   17889       2   17874   17871   17877   17892       2
   17874   17880   17895   17910       1   17874   17883   17901   17913       1
   17871   17874   17880   17898       1   17871   17874   17883   17904       1
   18744   18687   18738   18762       1   18741   18681   18738   18762       1
   18738   18762   18780   18828       2   18738   18762   18780   18831       2
   18738   18762   18780   18834       2   18735   18675   18729   18759       1
   18732   18669   18729   18759       1   18729   18759   18777   18819       2
   18729   18759   18777   18822       2   18729   18759   18777   18825       2
   18726   18663   18720   18756       1   18723   18657   18720   18756       1
   18720   18756   18774   18810       2   18720   18756   18774   18813       2
   18720   18756   18774   18816       2   18717   18651   18714   18753       1
   18714   18753   18771   18801       2   18714   18753   18771   18804       2
   18714   18753   18771   18807       2   18711   18645   18714   18753       1
   18708   18642   18702   18750       1   18705   18636   18702   18750       1
   18702   18750   18768   18792       2   18702   18750   18768   18795       2
   18702   18750   18768   18798       2   18699   18627   18693   18747       1
   18696   18621   18693   18747       1   18693   18747   18765   18783       2
   18693   18747   18765   18786       2   18693   18747   18765   18789       2
   18690   18618   18687   18738       1   18690   18618   18687   18744       1
   18687   18738   18681   18741       1   18684   18615   18681   18738       1
   18684   18615   18681   18741       1   18681   18738   18687   18744       1
   18678   18612   18675   18729       1   18678   18612   18675   18735       1
   18675   18729   18669   18732       1   18672   18609   18669   18729       1
   18672   18609   18669   18732       1   18669   18729   18675   18735       1
   18666   18606   18663   18720       1   18666   18606   18663   18726       1
   18663   18720   18657   18723       1   18660   18603   18657   18720       1
   18660   18603   18657   18723       1   18657   18720   18663   18726       1
   18654   18600   18651   18714       1   18654   18600   18651   18717       1
   18651   18714   18645   18711       1   18648   18597   18645   18711       1
   18648   18597   18645   18714       1   18645   18714   18651   18717       1
   18642   18702   18636   18705       1   18639   18594   18642   18702       1
   18639   18594   18642   18708       1   18636   18702   18642   18708       1
   18633   18591   18636   18702       1   18633   18591   18636   18705       1
   18630   18588   18627   18693       1   18630   18588   18627   18699       1
   18627   18693   18621   18696       1   18624   18585   18621   18693       1
   18624   18585   18621   18696       1   18621   18693   18627   18699       1
   18618   18579   18615   18684       1   18615   18579   18618   18690       1
   18612   18576   18609   18672       1   18609   18576   18612   18678       1
   18606   18570   18603   18660       1   18603   18570   18606   18666       1
   18600   18567   18597   18648       1   18597   18567   18600   18654       1
   18594   18564   18591   18633       1   18591   18564   18594   18639       1
   18588   18561   18585   18624       1   18585   18561   18588   18630       1
   18579   18615   18681   18741       1   18579   18618   18687   18744       1
   18576   18609   18669   18732       1   18576   18612   18675   18735       1
   18570   18603   18657   18723       1   18570   18606   18663   18726       1
   18567   18597   18645   18711       1   18567   18600   18651   18717       1
   18564   18591   18636   18705       1   18564   18594   18642   18708       1
   18561   18585   18621   18696       1   18561   18588   18627   18699       1
   18558   18525   18555   18582       1   18552   18522   18555   18582       1
   18552   18576   18609   18672       1   18552   18576   18612   18678       1
   18552   18579   18615   18684       1   18552   18579   18618   18690       1
   18549   18516   18546   18573       1   18543   18510   18546   18573       1
   18543   18567   18597   18648       1   18543   18567   18600   18654       1
   18543   18570   18603   18660       1   18543   18570   18606   18666       1
   18540   18561   18585   18624       1   18540   18561   18588   18630       1
   18540   18564   18591   18633       1   18540   18564   18594   18639       1
   18537   18498   18504   18540       1   18522   18555   18525   18558       1
   18519   18489   18522   18552       1   18519   18489   18522   18555       1
   18513   18483   18510   18543       1   18513   18483   18510   18546       1
   18510   18546   18516   18549       1   18507   18480   18504   18540       1
   18501   18477   18498   18504       1   18501   18477   18498   18537       1
   18498   18504   18480   18507       1   18492   18471   18489   18519       1
   18492   18486   18516   18549       1   18492   18525   18555   18582       1
   18489   18522   18555   18582       1   18486   18468   18483   18513       1
   18486   18492   18525   18558       1   18486   18516   18546   18573       1
   18483   18510   18546   18573       1   18480   18504   18498   18537       1
   18471   18492   18525   18558       1   18468   18486   18516   18549       1
   18465   18462   18477   18501       1   18462   18465   18480   18507       1
   18462   18477   18498   18537       1   18459   18438   18453   18474       1
   18456   18432   18453   18474       1   18453   18474   18495   18528       2
   18453   18474   18495   18531       2   18453   18474   18495   18534       2
   18450   18426   18444   18462       1   18447   18465   18480   18507       1
   18447   18468   18483   18513       1   18447   18471   18489   18519       1
   18444   18462   18477   18501       1   18441   18417   18438   18453       1
   18441   18417   18438   18459       1   18438   18453   18432   18456       1
   18435   18414   18432   18453       1   18435   18414   18432   18456       1
   18432   18453   18438   18459       1   18429   18411   18426   18444       1
   18429   18411   18426   18450       1   18423   18408   18420   18444       1
   18423   18408   18420   18447       1   18420   18444   18426   18450       1
   18417   18405   18414   18435       1   18414   18405   18417   18441       1
   18411   18402   18408   18423       1   18408   18402   18411   18429       1
   18405   18414   18432   18456       1   18405   18417   18438   18459       1
   18402   18411   18426   18450       1   18399   18402   18408   18423       1
   18399   18402   18411   18429       1   18399   18405   18414   18435       1
   18399   18405   18417   18441       1   18396   18384   18390   18399       1
   18393   18378   18390   18399       1   18387   18366   18384   18390       1
   18387   18366   18384   18396       1   18384   18390   18378   18393       1
   18381   18363   18378   18390       1   18381   18363   18378   18393       1
   18378   18390   18384   18396       1   18366   18357   18363   18381       1
   18363   18357   18366   18387       1   18357   18354   18360   18369       2
   18357   18354   18360   18372       2   18357   18354   18360   18375       2
   18357   18363   18378   18393       1   18357   18366   18384   18396       1
   18354   18357   18363   18381       1   18354   18357   18366   18387       1
   19227   19170   19221   19245       1   19224   19164   19221   19245       1
   19221   19245   19263   19311       2   19221   19245   19263   19314       2
   19221   19245   19263   19317       2   19218   19158   19212   19242       1
   19215   19152   19212   19242       1   19212   19242   19260   19302       2
   19212   19242   19260   19305       2   19212   19242   19260   19308       2
   19209   19146   19203   19239       1   19206   19140   19203   19239       1
   19203   19239   19257   19293       2   19203   19239   19257   19296       2
   19203   19239   19257   19299       2   19200   19134   19197   19236       1
   19197   19236   19254   19284       2   19197   19236   19254   19287       2
   19197   19236   19254   19290       2   19194   19128   19197   19236       1
   19191   19125   19185   19233       1   19188   19119   19185   19233       1
   19185   19233   19251   19275       2   19185   19233   19251   19278       2
   19185   19233   19251   19281       2   19182   19110   19176   19230       1
   19179   19104   19176   19230       1   19176   19230   19248   19266       2
   19176   19230   19248   19269       2   19176   19230   19248   19272       2
   19173   19101   19170   19221       1   19173   19101   19170   19227       1
   19170   19221   19164   19224       1   19167   19098   19164   19221       1
   19167   19098   19164   19224       1   19164   19221   19170   19227       1
   19161   19095   19158   19212       1   19161   19095   19158   19218       1
   19158   19212   19152   19215       1   19155   19092   19152   19212       1
   19155   19092   19152   19215       1   19152   19212   19158   19218       1
   19149   19089   19146   19203       1   19149   19089   19146   19209       1
   19146   19203   19140   19206       1   19143   19086   19140   19203       1
   19143   19086   19140   19206       1   19140   19203   19146   19209       1
   19137   19083   19134   19197       1   19137   19083   19134   19200       1
   19134   19197   19128   19194       1   19131   19080   19128   19194       1
   19131   19080   19128   19197       1   19128   19197   19134   19200       1
   19125   19185   19119   19188       1   19122   19077   19125   19185       1
   19122   19077   19125   19191       1   19119   19185   19125   19191       1
   19116   19074   19119   19185       1   19116   19074   19119   19188       1
   19113   19071   19110   19176       1   19113   19071   19110   19182       1
   19110   19176   19104   19179       1   19107   19068   19104   19176       1
   19107   19068   19104   19179       1   19104   19176   19110   19182       1
   19101   19062   19098   19167       1   19098   19062   19101   19173       1
   19095   19059   19092   19155       1   19092   19059   19095   19161       1
   19089   19053   19086   19143       1   19086   19053   19089   19149       1
   19083   19050   19080   19131       1   19080   19050   19083   19137       1
   19077   19047   19074   19116       1   19074   19047   19077   19122       1
   19071   19044   19068   19107       1   19068   19044   19071   19113       1
   19062   19098   19164   19224       1   19062   19101   19170   19227       1
   19059   19092   19152   19215       1   19059   19095   19158   19218       1
   19053   19086   19140   19206       1   19053   19089   19146   19209       1
   19050   19080   19128   19194       1   19050   19083   19134   19200       1
   19047   19074   19119   19188       1   19047   19077   19125   19191       1
   19044   19068   19104   19179       1   19044   19071   19110   19182       1
   19041   19008   19038   19065       1   19035   19005   19038   19065       1
   19035   19059   19092   19155       1   19035   19059   19095   19161       1
   19035   19062   19098   19167       1   19035   19062   19101   19173       1
   19032   18999   19029   19056       1   19026   18993   19029   19056       1
   19026   19050   19080   19131       1   19026   19050   19083   19137       1
   19026   19053   19086   19143       1   19026   19053   19089   19149       1
   19023   19044   19068   19107       1   19023   19044   19071   19113       1
   19023   19047   19074   19116       1   19023   19047   19077   19122       1
   19020   18981   18987   19023       1   19005   19038   19008   19041       1
   19002   18972   19005   19035       1   19002   18972   19005   19038       1
   18996   18966   18993   19026       1   18996   18966   18993   19029       1
   18993   19029   18999   19032       1   18990   18963   18987   19023       1
   18984   18960   18981   18987       1   18984   18960   18981   19020       1
   18981   18987   18963   18990       1   18975   18954   18972   19002       1
   18975   18969   18999   19032       1   18975   19008   19038   19065       1
   18972   19005   19038   19065       1   18969   18951   18966   18996       1
   18969   18975   19008   19041       1   18969   18999   19029   19056       1
   18966   18993   19029   19056       1   18963   18987   18981   19020       1
   18954   18975   19008   19041       1   18951   18969   18999   19032       1
   18948   18945   18960   18984       1   18945   18948   18963   18990       1
   18945   18960   18981   19020       1   18942   18921   18936   18957       1
   18939   18915   18936   18957       1   18936   18957   18978   19011       2
   18936   18957   18978   19014       2   18936   18957   18978   19017       2
   18933   18909   18927   18945       1   18930   18948   18963   18990       1
   18930   18951   18966   18996       1   18930   18954   18972   19002       1
   18927   18945   18960   18984       1   18924   18900   18921   18936       1
   18924   18900   18921   18942       1   18921   18936   18915   18939       1
   18918   18897   18915   18936       1   18918   18897   18915   18939       1
   18915   18936   18921   18942       1   18912   18894   18909   18927       1
   18912   18894   18909   18933       1   18906   18891   18903   18927       1
   18906   18891   18903   18930       1   18903   18927   18909   18933       1
   18900   18888   18897   18918       1   18897   18888   18900   18924       1
   18894   18885   18891   18906       1   18891   18885   18894   18912       1
   18888   18897   18915   18939       1   18888   18900   18921   18942       1
   18885   18894   18909   18933       1   18882   18885   18891   18906       1
   18882   18885   18894   18912       1   18882   18888   18897   18918       1
   18882   18888   18900   18924       1   18879   18867   18873   18882       1
   18876   18861   18873   18882       1   18870   18849   18867   18873       1
   18870   18849   18867   18879       1   18867   18873   18861   18876       1
   18864   18846   18861   18873       1   18864   18846   18861   18876       1
   18861   18873   18867   18879       1   18849   18840   18846   18864       1
   18846   18840   18849   18870       1   18840   18837   18843   18852       2
   18840   18837   18843   18855       2   18840   18837   18843   18858       2
   18840   18846   18861   18876       1   18840   18849   18867   18879       1
   18837   18840   18846   18864       1   18837   18840   18849   18870       1
   19710   19653   19704   19728       1   19707   19647   19704   19728       1
   19704   19728   19746   19794       2   19704   19728   19746   19797       2
   19704   19728   19746   19800       2   19701   19641   19695   19725       1
   19698   19635   19695   19725       1   19695   19725   19743   19785       2
   19695   19725   19743   19788       2   19695   19725   19743   19791       2
   19692   19629   19686   19722       1   19689   19623   19686   19722       1
   19686   19722   19740   19776       2   19686   19722   19740   19779       2
   19686   19722   19740   19782       2   19683   19617   19680   19719       1
   19680   19719   19737   19767       2   19680   19719   19737   19770       2
   19680   19719   19737   19773       2   19677   19611   19680   19719       1
   19674   19608   19668   19716       1   19671   19602   19668   19716       1
   19668   19716   19734   19758       2   19668   19716   19734   19761       2
   19668   19716   19734   19764       2   19665   19593   19659   19713       1
   19662   19587   19659   19713       1   19659   19713   19731   19749       2
   19659   19713   19731   19752       2   19659   19713   19731   19755       2
   19656   19584   19653   19704       1   19656   19584   19653   19710       1
   19653   19704   19647   19707       1   19650   19581   19647   19704       1
   19650   19581   19647   19707       1   19647   19704   19653   19710       1
   19644   19578   19641   19695       1   19644   19578   19641   19701       1
   19641   19695   19635   19698       1   19638   19575   19635   19695       1
   19638   19575   19635   19698       1   19635   19695   19641   19701       1
   19632   19572   19629   19686       1   19632   19572   19629   19692       1
   19629   19686   19623   19689       1   19626   19569   19623   19686       1
   19626   19569   19623   19689       1   19623   19686   19629   19692       1
   19620   19566   19617   19680       1   19620   19566   19617   19683       1
   19617   19680   19611   19677       1   19614   19563   19611   19677       1
   19614   19563   19611   19680       1   19611   19680   19617   19683       1
   19608   19668   19602   19671       1   19605   19560   19608   19668       1
   19605   19560   19608   19674       1   19602   19668   19608   19674       1
   19599   19557   19602   19668       1   19599   19557   19602   19671       1
   19596   19554   19593   19659       1   19596   19554   19593   19665       1
   19593   19659   19587   19662       1   19590   19551   19587   19659       1
   19590   19551   19587   19662       1   19587   19659   19593   19665       1
   19584   19545   19581   19650       1   19581   19545   19584   19656       1
   19578   19542   19575   19638       1   19575   19542   19578   19644       1
   19572   19536   19569   19626       1   19569   19536   19572   19632       1
   19566   19533   19563   19614       1   19563   19533   19566   19620       1
   19560   19530   19557   19599       1   19557   19530   19560   19605       1
   19554   19527   19551   19590       1   19551   19527   19554   19596       1
   19545   19581   19647   19707       1   19545   19584   19653   19710       1
   19542   19575   19635   19698       1   19542   19578   19641   19701       1
   19536   19569   19623   19689       1   19536   19572   19629   19692       1
   19533   19563   19611   19677       1   19533   19566   19617   19683       1
   19530   19557   19602   19671       1   19530   19560   19608   19674       1
   19527   19551   19587   19662       1   19527   19554   19593   19665       1
   19524   19491   19521   19548       1   19518   19488   19521   19548       1
   19518   19542   19575   19638       1   19518   19542   19578   19644       1
   19518   19545   19581   19650       1   19518   19545   19584   19656       1
   19515   19482   19512   19539       1   19509   19476   19512   19539       1
   19509   19533   19563   19614       1   19509   19533   19566   19620       1
   19509   19536   19569   19626       1   19509   19536   19572   19632       1
   19506   19527   19551   19590       1   19506   19527   19554   19596       1
   19506   19530   19557   19599       1   19506   19530   19560   19605       1
   19503   19464   19470   19506       1   19488   19521   19491   19524       1
   19485   19455   19488   19518       1   19485   19455   19488   19521       1
   19479   19449   19476   19509       1   19479   19449   19476   19512       1
   19476   19512   19482   19515       1   19473   19446   19470   19506       1
   19467   19443   19464   19470       1   19467   19443   19464   19503       1
   19464   19470   19446   19473       1   19458   19437   19455   19485       1
   19458   19452   19482   19515       1   19458   19491   19521   19548       1
   19455   19488   19521   19548       1   19452   19434   19449   19479       1
   19452   19458   19491   19524       1   19452   19482   19512   19539       1
   19449   19476   19512   19539       1   19446   19470   19464   19503       1
   19437   19458   19491   19524       1   19434   19452   19482   19515       1
   19431   19428   19443   19467       1   19428   19431   19446   19473       1
   19428   19443   19464   19503       1   19425   19404   19419   19440       1
   19422   19398   19419   19440       1   19419   19440   19461   19494       2
   19419   19440   19461   19497       2   19419   19440   19461   19500       2
   19416   19392   19410   19428       1   19413   19431   19446   19473       1
   19413   19434   19449   19479       1   19413   19437   19455   19485       1
   19410   19428   19443   19467       1   19407   19383   19404   19419       1
   19407   19383   19404   19425       1   19404   19419   19398   19422       1
   19401   19380   19398   19419       1   19401   19380   19398   19422       1
   19398   19419   19404   19425       1   19395   19377   19392   19410       1
   19395   19377   19392   19416       1   19389   19374   19386   19410       1
   19389   19374   19386   19413       1   19386   19410   19392   19416       1
   19383   19371   19380   19401       1   19380   19371   19383   19407       1
   19377   19368   19374   19389       1   19374   19368   19377   19395       1
   19371   19380   19398   19422       1   19371   19383   19404   19425       1
   19368   19377   19392   19416       1   19365   19368   19374   19389       1
   19365   19368   19377   19395       1   19365   19371   19380   19401       1
   19365   19371   19383   19407       1   19362   19350   19356   19365       1
   19359   19344   19356   19365       1   19353   19332   19350   19356       1
   19353   19332   19350   19362       1   19350   19356   19344   19359       1
   19347   19329   19344   19356       1   19347   19329   19344   19359       1
   19344   19356   19350   19362       1   19332   19323   19329   19347       1
   19329   19323   19332   19353       1   19323   19320   19326   19335       2
   19323   19320   19326   19338       2   19323   19320   19326   19341       2
   19323   19329   19344   19359       1   19323   19332   19350   19362       1
   19320   19323   19329   19347       1   19320   19323   19332   19353       1
   20193   20136   20187   20211       1   20190   20130   20187   20211       1
   20187   20211   20229   20277       2   20187   20211   20229   20280       2
   20187   20211   20229   20283       2   20184   20124   20178   20208       1
   20181   20118   20178   20208       1   20178   20208   20226   20268       2
   20178   20208   20226   20271       2   20178   20208   20226   20274       2
   20175   20112   20169   20205       1   20172   20106   20169   20205       1
   20169   20205   20223   20259       2   20169   20205   20223   20262       2
   20169   20205   20223   20265       2   20166   20100   20163   20202       1
   20163   20202   20220   20250       2   20163   20202   20220   20253       2
   20163   20202   20220   20256       2   20160   20094   20163   20202       1
   20157   20091   20151   20199       1   20154   20085   20151   20199       1
   20151   20199   20217   20241       2   20151   20199   20217   20244       2
   20151   20199   20217   20247       2   20148   20076   20142   20196       1
   20145   20070   20142   20196       1   20142   20196   20214   20232       2
   20142   20196   20214   20235       2   20142   20196   20214   20238       2
   20139   20067   20136   20187       1   20139   20067   20136   20193       1
   20136   20187   20130   20190       1   20133   20064   20130   20187       1
   20133   20064   20130   20190       1   20130   20187   20136   20193       1
   20127   20061   20124   20178       1   20127   20061   20124   20184       1
   20124   20178   20118   20181       1   20121   20058   20118   20178       1
   20121   20058   20118   20181       1   20118   20178   20124   20184       1
   20115   20055   20112   20169       1   20115   20055   20112   20175       1
   20112   20169   20106   20172       1   20109   20052   20106   20169       1
   20109   20052   20106   20172       1   20106   20169   20112   20175       1
   20103   20049   20100   20163       1   20103   20049   20100   20166       1
   20100   20163   20094   20160       1   20097   20046   20094   20160       1
   20097   20046   20094   20163       1   20094   20163   20100   20166       1
   20091   20151   20085   20154       1   20088   20043   20091   20151       1
   20088   20043   20091   20157       1   20085   20151   20091   20157       1
   20082   20040   20085   20151       1   20082   20040   20085   20154       1
   20079   20037   20076   20142       1   20079   20037   20076   20148       1
   20076   20142   20070   20145       1   20073   20034   20070   20142       1
   20073   20034   20070   20145       1   20070   20142   20076   20148       1
   20067   20028   20064   20133       1   20064   20028   20067   20139       1
   20061   20025   20058   20121       1   20058   20025   20061   20127       1
   20055   20019   20052   20109       1   20052   20019   20055   20115       1
   20049   20016   20046   20097       1   20046   20016   20049   20103       1
   20043   20013   20040   20082       1   20040   20013   20043   20088       1
   20037   20010   20034   20073       1   20034   20010   20037   20079       1
   20028   20064   20130   20190       1   20028   20067   20136   20193       1
   20025   20058   20118   20181       1   20025   20061   20124   20184       1
   20019   20052   20106   20172       1   20019   20055   20112   20175       1
   20016   20046   20094   20160       1   20016   20049   20100   20166       1
   20013   20040   20085   20154       1   20013   20043   20091   20157       1
   20010   20034   20070   20145       1   20010   20037   20076   20148       1
   20007   19974   20004   20031       1   20001   19971   20004   20031       1
   20001   20025   20058   20121       1   20001   20025   20061   20127       1
   20001   20028   20064   20133       1   20001   20028   20067   20139       1
   19998   19965   19995   20022       1   19992   19959   19995   20022       1
   19992   20016   20046   20097       1   19992   20016   20049   20103       1
   19992   20019   20052   20109       1   19992   20019   20055   20115       1
   19989   20010   20034   20073       1   19989   20010   20037   20079       1
   19989   20013   20040   20082       1   19989   20013   20043   20088       1
   19986   19947   19953   19989       1   19971   20004   19974   20007       1
   19968   19938   19971   20001       1   19968   19938   19971   20004       1
   19962   19932   19959   19992       1   19962   19932   19959   19995       1
   19959   19995   19965   19998       1   19956   19929   19953   19989       1
   19950   19926   19947   19953       1   19950   19926   19947   19986       1
   19947   19953   19929   19956       1   19941   19920   19938   19968       1
   19941   19935   19965   19998       1   19941   19974   20004   20031       1
   19938   19971   20004   20031       1   19935   19917   19932   19962       1
   19935   19941   19974   20007       1   19935   19965   19995   20022       1
   19932   19959   19995   20022       1   19929   19953   19947   19986       1
   19920   19941   19974   20007       1   19917   19935   19965   19998       1
   19914   19911   19926   19950       1   19911   19914   19929   19956       1
   19911   19926   19947   19986       1   19908   19887   19902   19923       1
   19905   19881   19902   19923       1   19902   19923   19944   19977       2
   19902   19923   19944   19980       2   19902   19923   19944   19983       2
   19899   19875   19893   19911       1   19896   19914   19929   19956       1
   19896   19917   19932   19962       1   19896   19920   19938   19968       1
   19893   19911   19926   19950       1   19890   19866   19887   19902       1
   19890   19866   19887   19908       1   19887   19902   19881   19905       1
   19884   19863   19881   19902       1   19884   19863   19881   19905       1
   19881   19902   19887   19908       1   19878   19860   19875   19893       1
   19878   19860   19875   19899       1   19872   19857   19869   19893       1
   19872   19857   19869   19896       1   19869   19893   19875   19899       1
   19866   19854   19863   19884       1   19863   19854   19866   19890       1
   19860   19851   19857   19872       1   19857   19851   19860   19878       1
   19854   19863   19881   19905       1   19854   19866   19887   19908       1
   19851   19860   19875   19899       1   19848   19851   19857   19872       1
   19848   19851   19860   19878       1   19848   19854   19863   19884       1
   19848   19854   19866   19890       1   19845   19833   19839   19848       1
   19842   19827   19839   19848       1   19836   19815   19833   19839       1
   19836   19815   19833   19845       1   19833   19839   19827   19842       1
   19830   19812   19827   19839       1   19830   19812   19827   19842       1
   19827   19839   19833   19845       1   19815   19806   19812   19830       1
   19812   19806   19815   19836       1   19806   19803   19809   19818       2
   19806   19803   19809   19821       2   19806   19803   19809   19824       2
   19806   19812   19827   19842       1   19806   19815   19833   19845       1
   19803   19806   19812   19830       1   19803   19806   19815   19836       1
   20676   20619   20670   20694       1   20673   20613   20670   20694       1
   20670   20694   20712   20760       2   20670   20694   20712   20763       2
   20670   20694   20712   20766       2   20667   20607   20661   20691       1
   20664   20601   20661   20691       1   20661   20691   20709   20751       2
   20661   20691   20709   20754       2   20661   20691   20709   20757       2
   20658   20595   20652   20688       1   20655   20589   20652   20688       1
   20652   20688   20706   20742       2   20652   20688   20706   20745       2
   20652   20688   20706   20748       2   20649   20583   20646   20685       1
   20646   20685   20703   20733       2   20646   20685   20703   20736       2
   20646   20685   20703   20739       2   20643   20577   20646   20685       1
   20640   20574   20634   20682       1   20637   20568   20634   20682       1
   20634   20682   20700   20724       2   20634   20682   20700   20727       2
   20634   20682   20700   20730       2   20631   20559   20625   20679       1
   20628   20553   20625   20679       1   20625   20679   20697   20715       2
   20625   20679   20697   20718       2   20625   20679   20697   20721       2
   20622   20550   20619   20670       1   20622   20550   20619   20676       1
   20619   20670   20613   20673       1   20616   20547   20613   20670       1
   20616   20547   20613   20673       1   20613   20670   20619   20676       1
   20610   20544   20607   20661       1   20610   20544   20607   20667       1
   20607   20661   20601   20664       1   20604   20541   20601   20661       1
   20604   20541   20601   20664       1   20601   20661   20607   20667       1
   20598   20538   20595   20652       1   20598   20538   20595   20658       1
   20595   20652   20589   20655       1   20592   20535   20589   20652       1
   20592   20535   20589   20655       1   20589   20652   20595   20658       1
   20586   20532   20583   20646       1   20586   20532   20583   20649       1
   20583   20646   20577   20643       1   20580   20529   20577   20643       1
   20580   20529   20577   20646       1   20577   20646   20583   20649       1
   20574   20634   20568   20637       1   20571   20526   20574   20634       1
   20571   20526   20574   20640       1   20568   20634   20574   20640       1
   20565   20523   20568   20634       1   20565   20523   20568   20637       1
   20562   20520   20559   20625       1   20562   20520   20559   20631       1
   20559   20625   20553   20628       1   20556   20517   20553   20625       1
   20556   20517   20553   20628       1   20553   20625   20559   20631       1
   20550   20511   20547   20616       1   20547   20511   20550   20622       1
   20544   20508   20541   20604       1   20541   20508   20544   20610       1
   20538   20502   20535   20592       1   20535   20502   20538   20598       1
   20532   20499   20529   20580       1   20529   20499   20532   20586       1
   20526   20496   20523   20565       1   20523   20496   20526   20571       1
   20520   20493   20517   20556       1   20517   20493   20520   20562       1
   20511   20547   20613   20673       1   20511   20550   20619   20676       1
   20508   20541   20601   20664       1   20508   20544   20607   20667       1
   20502   20535   20589   20655       1   20502   20538   20595   20658       1
   20499   20529   20577   20643       1   20499   20532   20583   20649       1
   20496   20523   20568   20637       1   20496   20526   20574   20640       1
   20493   20517   20553   20628       1   20493   20520   20559   20631       1
   20490   20457   20487   20514       1   20484   20454   20487   20514       1
   20484   20508   20541   20604       1   20484   20508   20544   20610       1
   20484   20511   20547   20616       1   20484   20511   20550   20622       1
   20481   20448   20478   20505       1   20475   20442   20478   20505       1
   20475   20499   20529   20580       1   20475   20499   20532   20586       1
   20475   20502   20535   20592       1   20475   20502   20538   20598       1
   20472   20493   20517   20556       1   20472   20493   20520   20562       1
   20472   20496   20523   20565       1   20472   20496   20526   20571       1
   20469   20430   20436   20472       1   20454   20487   20457   20490       1
   20451   20421   20454   20484       1   20451   20421   20454   20487       1
   20445   20415   20442   20475       1   20445   20415   20442   20478       1
   20442   20478   20448   20481       1   20439   20412   20436   20472       1
   20433   20409   20430   20436       1   20433   20409   20430   20469       1
   20430   20436   20412   20439       1   20424   20403   20421   20451       1
   20424   20418   20448   20481       1   20424   20457   20487   20514       1
   20421   20454   20487   20514       1   20418   20400   20415   20445       1
   20418   20424   20457   20490       1   20418   20448   20478   20505       1
   20415   20442   20478   20505       1   20412   20436   20430   20469       1
   20403   20424   20457   20490       1   20400   20418   20448   20481       1
   20397   20394   20409   20433       1   20394   20397   20412   20439       1
   20394   20409   20430   20469       1   20391   20370   20385   20406       1
   20388   20364   20385   20406       1   20385   20406   20427   20460       2
   20385   20406   20427   20463       2   20385   20406   20427   20466       2
   20382   20358   20376   20394       1   20379   20397   20412   20439       1
   20379   20400   20415   20445       1   20379   20403   20421   20451       1
   20376   20394   20409   20433       1   20373   20349   20370   20385       1
   20373   20349   20370   20391       1   20370   20385   20364   20388       1
   20367   20346   20364   20385       1   20367   20346   20364   20388       1
   20364   20385   20370   20391       1   20361   20343   20358   20376       1
   20361   20343   20358   20382       1   20355   20340   20352   20376       1
   20355   20340   20352   20379       1   20352   20376   20358   20382       1
   20349   20337   20346   20367       1   20346   20337   20349   20373       1
   20343   20334   20340   20355       1   20340   20334   20343   20361       1
   20337   20346   20364   20388       1   20337   20349   20370   20391       1
   20334   20343   20358   20382       1   20331   20334   20340   20355       1
   20331   20334   20343   20361       1   20331   20337   20346   20367       1
   20331   20337   20349   20373       1   20328   20316   20322   20331       1
   20325   20310   20322   20331       1   20319   20298   20316   20322       1
   20319   20298   20316   20328       1   20316   20322   20310   20325       1
   20313   20295   20310   20322       1   20313   20295   20310   20325       1
   20310   20322   20316   20328       1   20298   20289   20295   20313       1
   20295   20289   20298   20319       1   20289   20286   20292   20301       2
   20289   20286   20292   20304       2   20289   20286   20292   20307       2
   20289   20295   20310   20325       1   20289   20298   20316   20328       1
   20286   20289   20295   20313       1   20286   20289   20298   20319       1
   21159   21102   21153   21177       1   21156   21096   21153   21177       1
   21153   21177   21195   21243       2   21153   21177   21195   21246       2
   21153   21177   21195   21249       2   21150   21090   21144   21174       1
   21147   21084   21144   21174       1   21144   21174   21192   21234       2
   21144   21174   21192   21237       2   21144   21174   21192   21240       2
   21141   21078   21135   21171       1   21138   21072   21135   21171       1
   21135   21171   21189   21225       2   21135   21171   21189   21228       2
   21135   21171   21189   21231       2   21132   21066   21129   21168       1
   21129   21168   21186   21216       2   21129   21168   21186   21219       2
   21129   21168   21186   21222       2   21126   21060   21129   21168       1
   21123   21057   21117   21165       1   21120   21051   21117   21165       1
   21117   21165   21183   21207       2   21117   21165   21183   21210       2
   21117   21165   21183   21213       2   21114   21042   21108   21162       1
   21111   21036   21108   21162       1   21108   21162   21180   21198       2
   21108   21162   21180   21201       2   21108   21162   21180   21204       2
   21105   21033   21102   21153       1   21105   21033   21102   21159       1
   21102   21153   21096   21156       1   21099   21030   21096   21153       1
   21099   21030   21096   21156       1   21096   21153   21102   21159       1
   21093   21027   21090   21144       1   21093   21027   21090   21150       1
   21090   21144   21084   21147       1   21087   21024   21084   21144       1
   21087   21024   21084   21147       1   21084   21144   21090   21150       1
   21081   21021   21078   21135       1   21081   21021   21078   21141       1
   21078   21135   21072   21138       1   21075   21018   21072   21135       1
   21075   21018   21072   21138       1   21072   21135   21078   21141       1
   21069   21015   21066   21129       1   21069   21015   21066   21132       1
   21066   21129   21060   21126       1   21063   21012   21060   21126       1
   21063   21012   21060   21129       1   21060   21129   21066   21132       1
   21057   21117   21051   21120       1   21054   21009   21057   21117       1
   21054   21009   21057   21123       1   21051   21117   21057   21123       1
   21048   21006   21051   21117       1   21048   21006   21051   21120       1
   21045   21003   21042   21108       1   21045   21003   21042   21114       1
   21042   21108   21036   21111       1   21039   21000   21036   21108       1
   21039   21000   21036   21111       1   21036   21108   21042   21114       1
   21033   20994   21030   21099       1   21030   20994   21033   21105       1
   21027   20991   21024   21087       1   21024   20991   21027   21093       1
   21021   20985   21018   21075       1   21018   20985   21021   21081       1
   21015   20982   21012   21063       1   21012   20982   21015   21069       1
   21009   20979   21006   21048       1   21006   20979   21009   21054       1
   21003   20976   21000   21039       1   21000   20976   21003   21045       1
   20994   21030   21096   21156       1   20994   21033   21102   21159       1
   20991   21024   21084   21147       1   20991   21027   21090   21150       1
   20985   21018   21072   21138       1   20985   21021   21078   21141       1
   20982   21012   21060   21126       1   20982   21015   21066   21132       1
   20979   21006   21051   21120       1   20979   21009   21057   21123       1
   20976   21000   21036   21111       1   20976   21003   21042   21114       1
   20973   20940   20970   20997       1   20967   20937   20970   20997       1
   20967   20991   21024   21087       1   20967   20991   21027   21093       1
   20967   20994   21030   21099       1   20967   20994   21033   21105       1
   20964   20931   20961   20988       1   20958   20925   20961   20988       1
   20958   20982   21012   21063       1   20958   20982   21015   21069       1
   20958   20985   21018   21075       1   20958   20985   21021   21081       1
   20955   20976   21000   21039       1   20955   20976   21003   21045       1
   20955   20979   21006   21048       1   20955   20979   21009   21054       1
   20952   20913   20919   20955       1   20937   20970   20940   20973       1
   20934   20904   20937   20967       1   20934   20904   20937   20970       1
   20928   20898   20925   20958       1   20928   20898   20925   20961       1
   20925   20961   20931   20964       1   20922   20895   20919   20955       1
   20916   20892   20913   20919       1   20916   20892   20913   20952       1
   20913   20919   20895   20922       1   20907   20886   20904   20934       1
   20907   20901   20931   20964       1   20907   20940   20970   20997       1
   20904   20937   20970   20997       1   20901   20883   20898   20928       1
   20901   20907   20940   20973       1   20901   20931   20961   20988       1
   20898   20925   20961   20988       1   20895   20919   20913   20952       1
   20886   20907   20940   20973       1   20883   20901   20931   20964       1
   20880   20877   20892   20916       1   20877   20880   20895   20922       1
   20877   20892   20913   20952       1   20874   20853   20868   20889       1
   20871   20847   20868   20889       1   20868   20889   20910   20943       2
   20868   20889   20910   20946       2   20868   20889   20910   20949       2
   20865   20841   20859   20877       1   20862   20880   20895   20922       1
   20862   20883   20898   20928       1   20862   20886   20904   20934       1
   20859   20877   20892   20916       1   20856   20832   20853   20868       1
   20856   20832   20853   20874       1   20853   20868   20847   20871       1
   20850   20829   20847   20868       1   20850   20829   20847   20871       1
   20847   20868   20853   20874       1   20844   20826   20841   20859       1
   20844   20826   20841   20865       1   20838   20823   20835   20859       1
   20838   20823   20835   20862       1   20835   20859   20841   20865       1
   20832   20820   20829   20850       1   20829   20820   20832   20856       1
   20826   20817   20823   20838       1   20823   20817   20826   20844       1
   20820   20829   20847   20871       1   20820   20832   20853   20874       1
   20817   20826   20841   20865       1   20814   20817   20823   20838       1
   20814   20817   20826   20844       1   20814   20820   20829   20850       1
   20814   20820   20832   20856       1   20811   20799   20805   20814       1
   20808   20793   20805   20814       1   20802   20781   20799   20805       1
   20802   20781   20799   20811       1   20799   20805   20793   20808       1
   20796   20778   20793   20805       1   20796   20778   20793   20808       1
   20793   20805   20799   20811       1   20781   20772   20778   20796       1
   20778   20772   20781   20802       1   20772   20769   20775   20784       2
   20772   20769   20775   20787       2   20772   20769   20775   20790       2
   20772   20778   20793   20808       1   20772   20781   20799   20811       1
   20769   20772   20778   20796       1   20769   20772   20781   20802       1
   21642   21585   21636   21660       1   21639   21579   21636   21660       1
   21636   21660   21678   21726       2   21636   21660   21678   21729       2
   21636   21660   21678   21732       2   21633   21573   21627   21657       1
   21630   21567   21627   21657       1   21627   21657   21675   21717       2
   21627   21657   21675   21720       2   21627   21657   21675   21723       2
   21624   21561   21618   21654       1   21621   21555   21618   21654       1
   21618   21654   21672   21708       2   21618   21654   21672   21711       2
   21618   21654   21672   21714       2   21615   21549   21612   21651       1
   21612   21651   21669   21699       2   21612   21651   21669   21702       2
   21612   21651   21669   21705       2   21609   21543   21612   21651       1
   21606   21540   21600   21648       1   21603   21534   21600   21648       1
   21600   21648   21666   21690       2   21600   21648   21666   21693       2
   21600   21648   21666   21696       2   21597   21525   21591   21645       1
   21594   21519   21591   21645       1   21591   21645   21663   21681       2
   21591   21645   21663   21684       2   21591   21645   21663   21687       2
   21588   21516   21585   21636       1   21588   21516   21585   21642       1
   21585   21636   21579   21639       1   21582   21513   21579   21636       1
   21582   21513   21579   21639       1   21579   21636   21585   21642       1
   21576   21510   21573   21627       1   21576   21510   21573   21633       1
   21573   21627   21567   21630       1   21570   21507   21567   21627       1
   21570   21507   21567   21630       1   21567   21627   21573   21633       1
   21564   21504   21561   21618       1   21564   21504   21561   21624       1
   21561   21618   21555   21621       1   21558   21501   21555   21618       1
   21558   21501   21555   21621       1   21555   21618   21561   21624       1
   21552   21498   21549   21612       1   21552   21498   21549   21615       1
   21549   21612   21543   21609       1   21546   21495   21543   21609       1
   21546   21495   21543   21612       1   21543   21612   21549   21615       1
   21540   21600   21534   21603       1   21537   21492   21540   21600       1
   21537   21492   21540   21606       1   21534   21600   21540   21606       1
   21531   21489   21534   21600       1   21531   21489   21534   21603       1
   21528   21486   21525   21591       1   21528   21486   21525   21597       1
   21525   21591   21519   21594       1   21522   21483   21519   21591       1
   21522   21483   21519   21594       1   21519   21591   21525   21597       1
   21516   21477   21513   21582       1   21513   21477   21516   21588       1
   21510   21474   21507   21570       1   21507   21474   21510   21576       1
   21504   21468   21501   21558       1   21501   21468   21504   21564       1
   21498   21465   21495   21546       1   21495   21465   21498   21552       1
   21492   21462   21489   21531       1   21489   21462   21492   21537       1
   21486   21459   21483   21522       1   21483   21459   21486   21528       1
   21477   21513   21579   21639       1   21477   21516   21585   21642       1
   21474   21507   21567   21630       1   21474   21510   21573   21633       1
   21468   21501   21555   21621       1   21468   21504   21561   21624       1
   21465   21495   21543   21609       1   21465   21498   21549   21615       1
   21462   21489   21534   21603       1   21462   21492   21540   21606       1
   21459   21483   21519   21594       1   21459   21486   21525   21597       1
   21456   21423   21453   21480       1   21450   21420   21453   21480       1
   21450   21474   21507   21570       1   21450   21474   21510   21576       1
   21450   21477   21513   21582       1   21450   21477   21516   21588       1
   21447   21414   21444   21471       1   21441   21408   21444   21471       1
   21441   21465   21495   21546       1   21441   21465   21498   21552       1
   21441   21468   21501   21558       1   21441   21468   21504   21564       1
   21438   21459   21483   21522       1   21438   21459   21486   21528       1
   21438   21462   21489   21531       1   21438   21462   21492   21537       1
   21435   21396   21402   21438       1   21420   21453   21423   21456       1
   21417   21387   21420   21450       1   21417   21387   21420   21453       1
   21411   21381   21408   21441       1   21411   21381   21408   21444       1
   21408   21444   21414   21447       1   21405   21378   21402   21438       1
   21399   21375   21396   21402       1   21399   21375   21396   21435       1
   21396   21402   21378   21405       1   21390   21369   21387   21417       1
   21390   21384   21414   21447       1   21390   21423   21453   21480       1
   21387   21420   21453   21480       1   21384   21366   21381   21411       1
   21384   21390   21423   21456       1   21384   21414   21444   21471       1
   21381   21408   21444   21471       1   21378   21402   21396   21435       1
   21369   21390   21423   21456       1   21366   21384   21414   21447       1
   21363   21360   21375   21399       1   21360   21363   21378   21405       1
   21360   21375   21396   21435       1   21357   21336   21351   21372       1
   21354   21330   21351   21372       1   21351   21372   21393   21426       2
   21351   21372   21393   21429       2   21351   21372   21393   21432       2
   21348   21324   21342   21360       1   21345   21363   21378   21405       1
   21345   21366   21381   21411       1   21345   21369   21387   21417       1
   21342   21360   21375   21399       1   21339   21315   21336   21351       1
   21339   21315   21336   21357       1   21336   21351   21330   21354       1
   21333   21312   21330   21351       1   21333   21312   21330   21354       1
   21330   21351   21336   21357       1   21327   21309   21324   21342       1
   21327   21309   21324   21348       1   21321   21306   21318   21342       1
   21321   21306   21318   21345       1   21318   21342   21324   21348       1
   21315   21303   21312   21333       1   21312   21303   21315   21339       1
   21309   21300   21306   21321       1   21306   21300   21309   21327       1
   21303   21312   21330   21354       1   21303   21315   21336   21357       1
   21300   21309   21324   21348       1   21297   21300   21306   21321       1
   21297   21300   21309   21327       1   21297   21303   21312   21333       1
   21297   21303   21315   21339       1   21294   21282   21288   21297       1
   21291   21276   21288   21297       1   21285   21264   21282   21288       1
   21285   21264   21282   21294       1   21282   21288   21276   21291       1
   21279   21261   21276   21288       1   21279   21261   21276   21291       1
   21276   21288   21282   21294       1   21264   21255   21261   21279       1
   21261   21255   21264   21285       1   21255   21252   21258   21267       2
   21255   21252   21258   21270       2   21255   21252   21258   21273       2
   21255   21261   21276   21291       1   21255   21264   21282   21294       1
   21252   21255   21261   21279       1   21252   21255   21264   21285       1
   22125   22068   22119   22143       1   22122   22062   22119   22143       1
   22119   22143   22161   22209       2   22119   22143   22161   22212       2
   22119   22143   22161   22215       2   22116   22056   22110   22140       1
   22113   22050   22110   22140       1   22110   22140   22158   22200       2
   22110   22140   22158   22203       2   22110   22140   22158   22206       2
   22107   22044   22101   22137       1   22104   22038   22101   22137       1
   22101   22137   22155   22191       2   22101   22137   22155   22194       2
   22101   22137   22155   22197       2   22098   22032   22095   22134       1
   22095   22134   22152   22182       2   22095   22134   22152   22185       2
   22095   22134   22152   22188       2   22092   22026   22095   22134       1
   22089   22023   22083   22131       1   22086   22017   22083   22131       1
   22083   22131   22149   22173       2   22083   22131   22149   22176       2
   22083   22131   22149   22179       2   22080   22008   22074   22128       1
   22077   22002   22074   22128       1   22074   22128   22146   22164       2
   22074   22128   22146   22167       2   22074   22128   22146   22170       2
   22071   21999   22068   22119       1   22071   21999   22068   22125       1
   22068   22119   22062   22122       1   22065   21996   22062   22119       1
   22065   21996   22062   22122       1   22062   22119   22068   22125       1
   22059   21993   22056   22110       1   22059   21993   22056   22116       1
   22056   22110   22050   22113       1   22053   21990   22050   22110       1
   22053   21990   22050   22113       1   22050   22110   22056   22116       1
   22047   21987   22044   22101       1   22047   21987   22044   22107       1
   22044   22101   22038   22104       1   22041   21984   22038   22101       1
   22041   21984   22038   22104       1   22038   22101   22044   22107       1
   22035   21981   22032   22095       1   22035   21981   22032   22098       1
   22032   22095   22026   22092       1   22029   21978   22026   22092       1
   22029   21978   22026   22095       1   22026   22095   22032   22098       1
   22023   22083   22017   22086       1   22020   21975   22023   22083       1
   22020   21975   22023   22089       1   22017   22083   22023   22089       1
   22014   21972   22017   22083       1   22014   21972   22017   22086       1
   22011   21969   22008   22074       1   22011   21969   22008   22080       1
   22008   22074   22002   22077       1   22005   21966   22002   22074       1
   22005   21966   22002   22077       1   22002   22074   22008   22080       1
   21999   21960   21996   22065       1   21996   21960   21999   22071       1
   21993   21957   21990   22053       1   21990   21957   21993   22059       1
   21987   21951   21984   22041       1   21984   21951   21987   22047       1
   21981   21948   21978   22029       1   21978   21948   21981   22035       1
   21975   21945   21972   22014       1   21972   21945   21975   22020       1
   21969   21942   21966   22005       1   21966   21942   21969   22011       1
   21960   21996   22062   22122       1   21960   21999   22068   22125       1
   21957   21990   22050   22113       1   21957   21993   22056   22116       1
   21951   21984   22038   22104       1   21951   21987   22044   22107       1
   21948   21978   22026   22092       1   21948   21981   22032   22098       1
   21945   21972   22017   22086       1   21945   21975   22023   22089       1
   21942   21966   22002   22077       1   21942   21969   22008   22080       1
   21939   21906   21936   21963       1   21933   21903   21936   21963       1
   21933   21957   21990   22053       1   21933   21957   21993   22059       1
   21933   21960   21996   22065       1   21933   21960   21999   22071       1
   21930   21897   21927   21954       1   21924   21891   21927   21954       1
   21924   21948   21978   22029       1   21924   21948   21981   22035       1
   21924   21951   21984   22041       1   21924   21951   21987   22047       1
   21921   21942   21966   22005       1   21921   21942   21969   22011       1
   21921   21945   21972   22014       1   21921   21945   21975   22020       1
   21918   21879   21885   21921       1   21903   21936   21906   21939       1
   21900   21870   21903   21933       1   21900   21870   21903   21936       1
   21894   21864   21891   21924       1   21894   21864   21891   21927       1
   21891   21927   21897   21930       1   21888   21861   21885   21921       1
   21882   21858   21879   21885       1   21882   21858   21879   21918       1
   21879   21885   21861   21888       1   21873   21852   21870   21900       1
   21873   21867   21897   21930       1   21873   21906   21936   21963       1
   21870   21903   21936   21963       1   21867   21849   21864   21894       1
   21867   21873   21906   21939       1   21867   21897   21927   21954       1
   21864   21891   21927   21954       1   21861   21885   21879   21918       1
   21852   21873   21906   21939       1   21849   21867   21897   21930       1
   21846   21843   21858   21882       1   21843   21846   21861   21888       1
   21843   21858   21879   21918       1   21840   21819   21834   21855       1
   21837   21813   21834   21855       1   21834   21855   21876   21909       2
   21834   21855   21876   21912       2   21834   21855   21876   21915       2
   21831   21807   21825   21843       1   21828   21846   21861   21888       1
   21828   21849   21864   21894       1   21828   21852   21870   21900       1
   21825   21843   21858   21882       1   21822   21798   21819   21834       1
   21822   21798   21819   21840       1   21819   21834   21813   21837       1
   21816   21795   21813   21834       1   21816   21795   21813   21837       1
   21813   21834   21819   21840       1   21810   21792   21807   21825       1
   21810   21792   21807   21831       1   21804   21789   21801   21825       1
   21804   21789   21801   21828       1   21801   21825   21807   21831       1
   21798   21786   21795   21816       1   21795   21786   21798   21822       1
   21792   21783   21789   21804       1   21789   21783   21792   21810       1
   21786   21795   21813   21837       1   21786   21798   21819   21840       1
   21783   21792   21807   21831       1   21780   21783   21789   21804       1
   21780   21783   21792   21810       1   21780   21786   21795   21816       1
   21780   21786   21798   21822       1   21777   21765   21771   21780       1
   21774   21759   21771   21780       1   21768   21747   21765   21771       1
   21768   21747   21765   21777       1   21765   21771   21759   21774       1
   21762   21744   21759   21771       1   21762   21744   21759   21774       1
   21759   21771   21765   21777       1   21747   21738   21744   21762       1
   21744   21738   21747   21768       1   21738   21735   21741   21750       2
   21738   21735   21741   21753       2   21738   21735   21741   21756       2
   21738   21744   21759   21774       1   21738   21747   21765   21777       1
   21735   21738   21744   21762       1   21735   21738   21747   21768       1
   22608   22551   22602   22626       1   22605   22545   22602   22626       1
   22602   22626   22644   22692       2   22602   22626   22644   22695       2
   22602   22626   22644   22698       2   22599   22539   22593   22623       1
   22596   22533   22593   22623       1   22593   22623   22641   22683       2
   22593   22623   22641   22686       2   22593   22623   22641   22689       2
   22590   22527   22584   22620       1   22587   22521   22584   22620       1
   22584   22620   22638   22674       2   22584   22620   22638   22677       2
   22584   22620   22638   22680       2   22581   22515   22578   22617       1
   22578   22617   22635   22665       2   22578   22617   22635   22668       2
   22578   22617   22635   22671       2   22575   22509   22578   22617       1
   22572   22506   22566   22614       1   22569   22500   22566   22614       1
   22566   22614   22632   22656       2   22566   22614   22632   22659       2
   22566   22614   22632   22662       2   22563   22491   22557   22611       1
   22560   22485   22557   22611       1   22557   22611   22629   22647       2
   22557   22611   22629   22650       2   22557   22611   22629   22653       2
   22554   22482   22551   22602       1   22554   22482   22551   22608       1
   22551   22602   22545   22605       1   22548   22479   22545   22602       1
   22548   22479   22545   22605       1   22545   22602   22551   22608       1
   22542   22476   22539   22593       1   22542   22476   22539   22599       1
   22539   22593   22533   22596       1   22536   22473   22533   22593       1
   22536   22473   22533   22596       1   22533   22593   22539   22599       1
   22530   22470   22527   22584       1   22530   22470   22527   22590       1
   22527   22584   22521   22587       1   22524   22467   22521   22584       1
   22524   22467   22521   22587       1   22521   22584   22527   22590       1
   22518   22464   22515   22578       1   22518   22464   22515   22581       1
   22515   22578   22509   22575       1   22512   22461   22509   22575       1
   22512   22461   22509   22578       1   22509   22578   22515   22581       1
   22506   22566   22500   22569       1   22503   22458   22506   22566       1
   22503   22458   22506   22572       1   22500   22566   22506   22572       1
   22497   22455   22500   22566       1   22497   22455   22500   22569       1
   22494   22452   22491   22557       1   22494   22452   22491   22563       1
   22491   22557   22485   22560       1   22488   22449   22485   22557       1
   22488   22449   22485   22560       1   22485   22557   22491   22563       1
   22482   22443   22479   22548       1   22479   22443   22482   22554       1
   22476   22440   22473   22536       1   22473   22440   22476   22542       1
   22470   22434   22467   22524       1   22467   22434   22470   22530       1
   22464   22431   22461   22512       1   22461   22431   22464   22518       1
   22458   22428   22455   22497       1   22455   22428   22458   22503       1
   22452   22425   22449   22488       1   22449   22425   22452   22494       1
   22443   22479   22545   22605       1   22443   22482   22551   22608       1
   22440   22473   22533   22596       1   22440   22476   22539   22599       1
   22434   22467   22521   22587       1   22434   22470   22527   22590       1
   22431   22461   22509   22575       1   22431   22464   22515   22581       1
   22428   22455   22500   22569       1   22428   22458   22506   22572       1
   22425   22449   22485   22560       1   22425   22452   22491   22563       1
   22422   22389   22419   22446       1   22416   22386   22419   22446       1
   22416   22440   22473   22536       1   22416   22440   22476   22542       1
   22416   22443   22479   22548       1   22416   22443   22482   22554       1
   22413   22380   22410   22437       1   22407   22374   22410   22437       1
   22407   22431   22461   22512       1   22407   22431   22464   22518       1
   22407   22434   22467   22524       1   22407   22434   22470   22530       1
   22404   22425   22449   22488       1   22404   22425   22452   22494       1
   22404   22428   22455   22497       1   22404   22428   22458   22503       1
   22401   22362   22368   22404       1   22386   22419   22389   22422       1
   22383   22353   22386   22416       1   22383   22353   22386   22419       1
   22377   22347   22374   22407       1   22377   22347   22374   22410       1
   22374   22410   22380   22413       1   22371   22344   22368   22404       1
   22365   22341   22362   22368       1   22365   22341   22362   22401       1
   22362   22368   22344   22371       1   22356   22335   22353   22383       1
   22356   22350   22380   22413       1   22356   22389   22419   22446       1
   22353   22386   22419   22446       1   22350   22332   22347   22377       1
   22350   22356   22389   22422       1   22350   22380   22410   22437       1
   22347   22374   22410   22437       1   22344   22368   22362   22401       1
   22335   22356   22389   22422       1   22332   22350   22380   22413       1
   22329   22326   22341   22365       1   22326   22329   22344   22371       1
   22326   22341   22362   22401       1   22323   22302   22317   22338       1
   22320   22296   22317   22338       1   22317   22338   22359   22392       2
   22317   22338   22359   22395       2   22317   22338   22359   22398       2
   22314   22290   22308   22326       1   22311   22329   22344   22371       1
   22311   22332   22347   22377       1   22311   22335   22353   22383       1
   22308   22326   22341   22365       1   22305   22281   22302   22317       1
   22305   22281   22302   22323       1   22302   22317   22296   22320       1
   22299   22278   22296   22317       1   22299   22278   22296   22320       1
   22296   22317   22302   22323       1   22293   22275   22290   22308       1
   22293   22275   22290   22314       1   22287   22272   22284   22308       1
   22287   22272   22284   22311       1   22284   22308   22290   22314       1
   22281   22269   22278   22299       1   22278   22269   22281   22305       1
   22275   22266   22272   22287       1   22272   22266   22275   22293       1
   22269   22278   22296   22320       1   22269   22281   22302   22323       1
   22266   22275   22290   22314       1   22263   22266   22272   22287       1
   22263   22266   22275   22293       1   22263   22269   22278   22299       1
   22263   22269   22281   22305       1   22260   22248   22254   22263       1
   22257   22242   22254   22263       1   22251   22230   22248   22254       1
   22251   22230   22248   22260       1   22248   22254   22242   22257       1
   22245   22227   22242   22254       1   22245   22227   22242   22257       1
   22242   22254   22248   22260       1   22230   22221   22227   22245       1
   22227   22221   22230   22251       1   22221   22218   22224   22233       2
   22221   22218   22224   22236       2   22221   22218   22224   22239       2
   22221   22227   22242   22257       1   22221   22230   22248   22260       1
   22218   22221   22227   22245       1   22218   22221   22230   22251       1
   23091   23034   23085   23109       1   23088   23028   23085   23109       1
   23085   23109   23127   23175       2   23085   23109   23127   23178       2
   23085   23109   23127   23181       2   23082   23022   23076   23106       1
   23079   23016   23076   23106       1   23076   23106   23124   23166       2
   23076   23106   23124   23169       2   23076   23106   23124   23172       2
   23073   23010   23067   23103       1   23070   23004   23067   23103       1
   23067   23103   23121   23157       2   23067   23103   23121   23160       2
   23067   23103   23121   23163       2   23064   22998   23061   23100       1
   23061   23100   23118   23148       2   23061   23100   23118   23151       2
   23061   23100   23118   23154       2   23058   22992   23061   23100       1
   23055   22989   23049   23097       1   23052   22983   23049   23097       1
   23049   23097   23115   23139       2   23049   23097   23115   23142       2
   23049   23097   23115   23145       2   23046   22974   23040   23094       1
   23043   22968   23040   23094       1   23040   23094   23112   23130       2
   23040   23094   23112   23133       2   23040   23094   23112   23136       2
   23037   22965   23034   23085       1   23037   22965   23034   23091       1
   23034   23085   23028   23088       1   23031   22962   23028   23085       1
   23031   22962   23028   23088       1   23028   23085   23034   23091       1
   23025   22959   23022   23076       1   23025   22959   23022   23082       1
   23022   23076   23016   23079       1   23019   22956   23016   23076       1
   23019   22956   23016   23079       1   23016   23076   23022   23082       1
   23013   22953   23010   23067       1   23013   22953   23010   23073       1
   23010   23067   23004   23070       1   23007   22950   23004   23067       1
   23007   22950   23004   23070       1   23004   23067   23010   23073       1
   23001   22947   22998   23061       1   23001   22947   22998   23064       1
   22998   23061   22992   23058       1   22995   22944   22992   23058       1
   22995   22944   22992   23061       1   22992   23061   22998   23064       1
   22989   23049   22983   23052       1   22986   22941   22989   23049       1
   22986   22941   22989   23055       1   22983   23049   22989   23055       1
   22980   22938   22983   23049       1   22980   22938   22983   23052       1
   22977   22935   22974   23040       1   22977   22935   22974   23046       1
   22974   23040   22968   23043       1   22971   22932   22968   23040       1
   22971   22932   22968   23043       1   22968   23040   22974   23046       1
   22965   22926   22962   23031       1   22962   22926   22965   23037       1
   22959   22923   22956   23019       1   22956   22923   22959   23025       1
   22953   22917   22950   23007       1   22950   22917   22953   23013       1
   22947   22914   22944   22995       1   22944   22914   22947   23001       1
   22941   22911   22938   22980       1   22938   22911   22941   22986       1
   22935   22908   22932   22971       1   22932   22908   22935   22977       1
   22926   22962   23028   23088       1   22926   22965   23034   23091       1
   22923   22956   23016   23079       1   22923   22959   23022   23082       1
   22917   22950   23004   23070       1   22917   22953   23010   23073       1
   22914   22944   22992   23058       1   22914   22947   22998   23064       1
   22911   22938   22983   23052       1   22911   22941   22989   23055       1
   22908   22932   22968   23043       1   22908   22935   22974   23046       1
   22905   22872   22902   22929       1   22899   22869   22902   22929       1
   22899   22923   22956   23019       1   22899   22923   22959   23025       1
   22899   22926   22962   23031       1   22899   22926   22965   23037       1
   22896   22863   22893   22920       1   22890   22857   22893   22920       1
   22890   22914   22944   22995       1   22890   22914   22947   23001       1
   22890   22917   22950   23007       1   22890   22917   22953   23013       1
   22887   22908   22932   22971       1   22887   22908   22935   22977       1
   22887   22911   22938   22980       1   22887   22911   22941   22986       1
   22884   22845   22851   22887       1   22869   22902   22872   22905       1
   22866   22836   22869   22899       1   22866   22836   22869   22902       1
   22860   22830   22857   22890       1   22860   22830   22857   22893       1
   22857   22893   22863   22896       1   22854   22827   22851   22887       1
   22848   22824   22845   22851       1   22848   22824   22845   22884       1
   22845   22851   22827   22854       1   22839   22818   22836   22866       1
   22839   22833   22863   22896       1   22839   22872   22902   22929       1
   22836   22869   22902   22929       1   22833   22815   22830   22860       1
   22833   22839   22872   22905       1   22833   22863   22893   22920       1
   22830   22857   22893   22920       1   22827   22851   22845   22884       1
   22818   22839   22872   22905       1   22815   22833   22863   22896       1
   22812   22809   22824   22848       1   22809   22812   22827   22854       1
   22809   22824   22845   22884       1   22806   22785   22800   22821       1
   22803   22779   22800   22821       1   22800   22821   22842   22875       2
   22800   22821   22842   22878       2   22800   22821   22842   22881       2
   22797   22773   22791   22809       1   22794   22812   22827   22854       1
   22794   22815   22830   22860       1   22794   22818   22836   22866       1
   22791   22809   22824   22848       1   22788   22764   22785   22800       1
   22788   22764   22785   22806       1   22785   22800   22779   22803       1
   22782   22761   22779   22800       1   22782   22761   22779   22803       1
   22779   22800   22785   22806       1   22776   22758   22773   22791       1
   22776   22758   22773   22797       1   22770   22755   22767   22791       1
   22770   22755   22767   22794       1   22767   22791   22773   22797       1
   22764   22752   22761   22782       1   22761   22752   22764   22788       1
   22758   22749   22755   22770       1   22755   22749   22758   22776       1
   22752   22761   22779   22803       1   22752   22764   22785   22806       1
   22749   22758   22773   22797       1   22746   22749   22755   22770       1
   22746   22749   22758   22776       1   22746   22752   22761   22782       1
   22746   22752   22764   22788       1   22743   22731   22737   22746       1
   22740   22725   22737   22746       1   22734   22713   22731   22737       1
   22734   22713   22731   22743       1   22731   22737   22725   22740       1
   22728   22710   22725   22737       1   22728   22710   22725   22740       1
   22725   22737   22731   22743       1   22713   22704   22710   22728       1
   22710   22704   22713   22734       1   22704   22701   22707   22716       2
   22704   22701   22707   22719       2   22704   22701   22707   22722       2
   22704   22710   22725   22740       1   22704   22713   22731   22743       1
   22701   22704   22710   22728       1   22701   22704   22713   22734       1
   23574   23517   23568   23592       1   23571   23511   23568   23592       1
   23568   23592   23610   23658       2   23568   23592   23610   23661       2
   23568   23592   23610   23664       2   23565   23505   23559   23589       1
   23562   23499   23559   23589       1   23559   23589   23607   23649       2
   23559   23589   23607   23652       2   23559   23589   23607   23655       2
   23556   23493   23550   23586       1   23553   23487   23550   23586       1
   23550   23586   23604   23640       2   23550   23586   23604   23643       2
   23550   23586   23604   23646       2   23547   23481   23544   23583       1
   23544   23583   23601   23631       2   23544   23583   23601   23634       2
   23544   23583   23601   23637       2   23541   23475   23544   23583       1
   23538   23472   23532   23580       1   23535   23466   23532   23580       1
   23532   23580   23598   23622       2   23532   23580   23598   23625       2
   23532   23580   23598   23628       2   23529   23457   23523   23577       1
   23526   23451   23523   23577       1   23523   23577   23595   23613       2
   23523   23577   23595   23616       2   23523   23577   23595   23619       2
   23520   23448   23517   23568       1   23520   23448   23517   23574       1
   23517   23568   23511   23571       1   23514   23445   23511   23568       1
   23514   23445   23511   23571       1   23511   23568   23517   23574       1
   23508   23442   23505   23559       1   23508   23442   23505   23565       1
   23505   23559   23499   23562       1   23502   23439   23499   23559       1
   23502   23439   23499   23562       1   23499   23559   23505   23565       1
   23496   23436   23493   23550       1   23496   23436   23493   23556       1
   23493   23550   23487   23553       1   23490   23433   23487   23550       1
   23490   23433   23487   23553       1   23487   23550   23493   23556       1
   23484   23430   23481   23544       1   23484   23430   23481   23547       1
   23481   23544   23475   23541       1   23478   23427   23475   23541       1
   23478   23427   23475   23544       1   23475   23544   23481   23547       1
   23472   23532   23466   23535       1   23469   23424   23472   23532       1
   23469   23424   23472   23538       1   23466   23532   23472   23538       1
   23463   23421   23466   23532       1   23463   23421   23466   23535       1
   23460   23418   23457   23523       1   23460   23418   23457   23529       1
   23457   23523   23451   23526       1   23454   23415   23451   23523       1
   23454   23415   23451   23526       1   23451   23523   23457   23529       1
   23448   23409   23445   23514       1   23445   23409   23448   23520       1
   23442   23406   23439   23502       1   23439   23406   23442   23508       1
   23436   23400   23433   23490       1   23433   23400   23436   23496       1
   23430   23397   23427   23478       1   23427   23397   23430   23484       1
   23424   23394   23421   23463       1   23421   23394   23424   23469       1
   23418   23391   23415   23454       1   23415   23391   23418   23460       1
   23409   23445   23511   23571       1   23409   23448   23517   23574       1
   23406   23439   23499   23562       1   23406   23442   23505   23565       1
   23400   23433   23487   23553       1   23400   23436   23493   23556       1
   23397   23427   23475   23541       1   23397   23430   23481   23547       1
   23394   23421   23466   23535       1   23394   23424   23472   23538       1
   23391   23415   23451   23526       1   23391   23418   23457   23529       1
   23388   23355   23385   23412       1   23382   23352   23385   23412       1
   23382   23406   23439   23502       1   23382   23406   23442   23508       1
   23382   23409   23445   23514       1   23382   23409   23448   23520       1
   23379   23346   23376   23403       1   23373   23340   23376   23403       1
   23373   23397   23427   23478       1   23373   23397   23430   23484       1
   23373   23400   23433   23490       1   23373   23400   23436   23496       1
   23370   23391   23415   23454       1   23370   23391   23418   23460       1
   23370   23394   23421   23463       1   23370   23394   23424   23469       1
   23367   23328   23334   23370       1   23352   23385   23355   23388       1
   23349   23319   23352   23382       1   23349   23319   23352   23385       1
   23343   23313   23340   23373       1   23343   23313   23340   23376       1
   23340   23376   23346   23379       1   23337   23310   23334   23370       1
   23331   23307   23328   23334       1   23331   23307   23328   23367       1
   23328   23334   23310   23337       1   23322   23301   23319   23349       1
   23322   23316   23346   23379       1   23322   23355   23385   23412       1
   23319   23352   23385   23412       1   23316   23298   23313   23343       1
   23316   23322   23355   23388       1   23316   23346   23376   23403       1
   23313   23340   23376   23403       1   23310   23334   23328   23367       1
   23301   23322   23355   23388       1   23298   23316   23346   23379       1
   23295   23292   23307   23331       1   23292   23295   23310   23337       1
   23292   23307   23328   23367       1   23289   23268   23283   23304       1
   23286   23262   23283   23304       1   23283   23304   23325   23358       2
   23283   23304   23325   23361       2   23283   23304   23325   23364       2
   23280   23256   23274   23292       1   23277   23295   23310   23337       1
   23277   23298   23313   23343       1   23277   23301   23319   23349       1
   23274   23292   23307   23331       1   23271   23247   23268   23283       1
   23271   23247   23268   23289       1   23268   23283   23262   23286       1
   23265   23244   23262   23283       1   23265   23244   23262   23286       1
   23262   23283   23268   23289       1   23259   23241   23256   23274       1
   23259   23241   23256   23280       1   23253   23238   23250   23274       1
   23253   23238   23250   23277       1   23250   23274   23256   23280       1
   23247   23235   23244   23265       1   23244   23235   23247   23271       1
   23241   23232   23238   23253       1   23238   23232   23241   23259       1
   23235   23244   23262   23286       1   23235   23247   23268   23289       1
   23232   23241   23256   23280       1   23229   23232   23238   23253       1
   23229   23232   23241   23259       1   23229   23235   23244   23265       1
   23229   23235   23247   23271       1   23226   23214   23220   23229       1
   23223   23208   23220   23229       1   23217   23196   23214   23220       1
   23217   23196   23214   23226       1   23214   23220   23208   23223       1
   23211   23193   23208   23220       1   23211   23193   23208   23223       1
   23208   23220   23214   23226       1   23196   23187   23193   23211       1
   23193   23187   23196   23217       1   23187   23184   23190   23199       2
   23187   23184   23190   23202       2   23187   23184   23190   23205       2
   23187   23193   23208   23223       1   23187   23196   23214   23226       1
   23184   23187   23193   23211       1   23184   23187   23196   23217       1
   24057   24000   24051   24075       1   24054   23994   24051   24075       1
   24051   24075   24093   24141       2   24051   24075   24093   24144       2
   24051   24075   24093   24147       2   24048   23988   24042   24072       1
   24045   23982   24042   24072       1   24042   24072   24090   24132       2
   24042   24072   24090   24135       2   24042   24072   24090   24138       2
   24039   23976   24033   24069       1   24036   23970   24033   24069       1
   24033   24069   24087   24123       2   24033   24069   24087   24126       2
   24033   24069   24087   24129       2   24030   23964   24027   24066       1
   24027   24066   24084   24114       2   24027   24066   24084   24117       2
   24027   24066   24084   24120       2   24024   23958   24027   24066       1
   24021   23955   24015   24063       1   24018   23949   24015   24063       1
   24015   24063   24081   24105       2   24015   24063   24081   24108       2
   24015   24063   24081   24111       2   24012   23940   24006   24060       1
   24009   23934   24006   24060       1   24006   24060   24078   24096       2
   24006   24060   24078   24099       2   24006   24060   24078   24102       2
   24003   23931   24000   24051       1   24003   23931   24000   24057       1
   24000   24051   23994   24054       1   23997   23928   23994   24051       1
   23997   23928   23994   24054       1   23994   24051   24000   24057       1
   23991   23925   23988   24042       1   23991   23925   23988   24048       1
   23988   24042   23982   24045       1   23985   23922   23982   24042       1
   23985   23922   23982   24045       1   23982   24042   23988   24048       1
   23979   23919   23976   24033       1   23979   23919   23976   24039       1
   23976   24033   23970   24036       1   23973   23916   23970   24033       1
   23973   23916   23970   24036       1   23970   24033   23976   24039       1
   23967   23913   23964   24027       1   23967   23913   23964   24030       1
   23964   24027   23958   24024       1   23961   23910   23958   24024       1
   23961   23910   23958   24027       1   23958   24027   23964   24030       1
   23955   24015   23949   24018       1   23952   23907   23955   24015       1
   23952   23907   23955   24021       1   23949   24015   23955   24021       1
   23946   23904   23949   24015       1   23946   23904   23949   24018       1
   23943   23901   23940   24006       1   23943   23901   23940   24012       1
   23940   24006   23934   24009       1   23937   23898   23934   24006       1
   23937   23898   23934   24009       1   23934   24006   23940   24012       1
   23931   23892   23928   23997       1   23928   23892   23931   24003       1
   23925   23889   23922   23985       1   23922   23889   23925   23991       1
   23919   23883   23916   23973       1   23916   23883   23919   23979       1
   23913   23880   23910   23961       1   23910   23880   23913   23967       1
   23907   23877   23904   23946       1   23904   23877   23907   23952       1
   23901   23874   23898   23937       1   23898   23874   23901   23943       1
   23892   23928   23994   24054       1   23892   23931   24000   24057       1
   23889   23922   23982   24045       1   23889   23925   23988   24048       1
   23883   23916   23970   24036       1   23883   23919   23976   24039       1
   23880   23910   23958   24024       1   23880   23913   23964   24030       1
   23877   23904   23949   24018       1   23877   23907   23955   24021       1
   23874   23898   23934   24009       1   23874   23901   23940   24012       1
   23871   23838   23868   23895       1   23865   23835   23868   23895       1
   23865   23889   23922   23985       1   23865   23889   23925   23991       1
   23865   23892   23928   23997       1   23865   23892   23931   24003       1
   23862   23829   23859   23886       1   23856   23823   23859   23886       1
   23856   23880   23910   23961       1   23856   23880   23913   23967       1
   23856   23883   23916   23973       1   23856   23883   23919   23979       1
   23853   23874   23898   23937       1   23853   23874   23901   23943       1
   23853   23877   23904   23946       1   23853   23877   23907   23952       1
   23850   23811   23817   23853       1   23835   23868   23838   23871       1
   23832   23802   23835   23865       1   23832   23802   23835   23868       1
   23826   23796   23823   23856       1   23826   23796   23823   23859       1
   23823   23859   23829   23862       1   23820   23793   23817   23853       1
   23814   23790   23811   23817       1   23814   23790   23811   23850       1
   23811   23817   23793   23820       1   23805   23784   23802   23832       1
   23805   23799   23829   23862       1   23805   23838   23868   23895       1
   23802   23835   23868   23895       1   23799   23781   23796   23826       1
   23799   23805   23838   23871       1   23799   23829   23859   23886       1
   23796   23823   23859   23886       1   23793   23817   23811   23850       1
   23784   23805   23838   23871       1   23781   23799   23829   23862       1
   23778   23775   23790   23814       1   23775   23778   23793   23820       1
   23775   23790   23811   23850       1   23772   23751   23766   23787       1
   23769   23745   23766   23787       1   23766   23787   23808   23841       2
   23766   23787   23808   23844       2   23766   23787   23808   23847       2
   23763   23739   23757   23775       1   23760   23778   23793   23820       1
   23760   23781   23796   23826       1   23760   23784   23802   23832       1
   23757   23775   23790   23814       1   23754   23730   23751   23766       1
   23754   23730   23751   23772       1   23751   23766   23745   23769       1
   23748   23727   23745   23766       1   23748   23727   23745   23769       1
   23745   23766   23751   23772       1   23742   23724   23739   23757       1
   23742   23724   23739   23763       1   23736   23721   23733   23757       1
   23736   23721   23733   23760       1   23733   23757   23739   23763       1
   23730   23718   23727   23748       1   23727   23718   23730   23754       1
   23724   23715   23721   23736       1   23721   23715   23724   23742       1
   23718   23727   23745   23769       1   23718   23730   23751   23772       1
   23715   23724   23739   23763       1   23712   23715   23721   23736       1
   23712   23715   23724   23742       1   23712   23718   23727   23748       1
   23712   23718   23730   23754       1   23709   23697   23703   23712       1
   23706   23691   23703   23712       1   23700   23679   23697   23703       1
   23700   23679   23697   23709       1   23697   23703   23691   23706       1
   23694   23676   23691   23703       1   23694   23676   23691   23706       1
   23691   23703   23697   23709       1   23679   23670   23676   23694       1
   23676   23670   23679   23700       1   23670   23667   23673   23682       2
   23670   23667   23673   23685       2   23670   23667   23673   23688       2
   23670   23676   23691   23706       1   23670   23679   23697   23709       1
   23667   23670   23676   23694       1   23667   23670   23679   23700       1
   24540   24483   24534   24558       1   24537   24477   24534   24558       1
   24534   24558   24576   24624       2   24534   24558   24576   24627       2
   24534   24558   24576   24630       2   24531   24471   24525   24555       1
   24528   24465   24525   24555       1   24525   24555   24573   24615       2
   24525   24555   24573   24618       2   24525   24555   24573   24621       2
   24522   24459   24516   24552       1   24519   24453   24516   24552       1
   24516   24552   24570   24606       2   24516   24552   24570   24609       2
   24516   24552   24570   24612       2   24513   24447   24510   24549       1
   24510   24549   24567   24597       2   24510   24549   24567   24600       2
   24510   24549   24567   24603       2   24507   24441   24510   24549       1
   24504   24438   24498   24546       1   24501   24432   24498   24546       1
   24498   24546   24564   24588       2   24498   24546   24564   24591       2
   24498   24546   24564   24594       2   24495   24423   24489   24543       1
   24492   24417   24489   24543       1   24489   24543   24561   24579       2
   24489   24543   24561   24582       2   24489   24543   24561   24585       2
   24486   24414   24483   24534       1   24486   24414   24483   24540       1
   24483   24534   24477   24537       1   24480   24411   24477   24534       1
   24480   24411   24477   24537       1   24477   24534   24483   24540       1
   24474   24408   24471   24525       1   24474   24408   24471   24531       1
   24471   24525   24465   24528       1   24468   24405   24465   24525       1
   24468   24405   24465   24528       1   24465   24525   24471   24531       1
   24462   24402   24459   24516       1   24462   24402   24459   24522       1
   24459   24516   24453   24519       1   24456   24399   24453   24516       1
   24456   24399   24453   24519       1   24453   24516   24459   24522       1
   24450   24396   24447   24510       1   24450   24396   24447   24513       1
   24447   24510   24441   24507       1   24444   24393   24441   24507       1
   24444   24393   24441   24510       1   24441   24510   24447   24513       1
   24438   24498   24432   24501       1   24435   24390   24438   24498       1
   24435   24390   24438   24504       1   24432   24498   24438   24504       1
   24429   24387   24432   24498       1   24429   24387   24432   24501       1
   24426   24384   24423   24489       1   24426   24384   24423   24495       1
   24423   24489   24417   24492       1   24420   24381   24417   24489       1
   24420   24381   24417   24492       1   24417   24489   24423   24495       1
   24414   24375   24411   24480       1   24411   24375   24414   24486       1
   24408   24372   24405   24468       1   24405   24372   24408   24474       1
   24402   24366   24399   24456       1   24399   24366   24402   24462       1
   24396   24363   24393   24444       1   24393   24363   24396   24450       1
   24390   24360   24387   24429       1   24387   24360   24390   24435       1
   24384   24357   24381   24420       1   24381   24357   24384   24426       1
   24375   24411   24477   24537       1   24375   24414   24483   24540       1
   24372   24405   24465   24528       1   24372   24408   24471   24531       1
   24366   24399   24453   24519       1   24366   24402   24459   24522       1
   24363   24393   24441   24507       1   24363   24396   24447   24513       1
   24360   24387   24432   24501       1   24360   24390   24438   24504       1
   24357   24381   24417   24492       1   24357   24384   24423   24495       1
   24354   24321   24351   24378       1   24348   24318   24351   24378       1
   24348   24372   24405   24468       1   24348   24372   24408   24474       1
   24348   24375   24411   24480       1   24348   24375   24414   24486       1
   24345   24312   24342   24369       1   24339   24306   24342   24369       1
   24339   24363   24393   24444       1   24339   24363   24396   24450       1
   24339   24366   24399   24456       1   24339   24366   24402   24462       1
   24336   24357   24381   24420       1   24336   24357   24384   24426       1
   24336   24360   24387   24429       1   24336   24360   24390   24435       1
   24333   24294   24300   24336       1   24318   24351   24321   24354       1
   24315   24285   24318   24348       1   24315   24285   24318   24351       1
   24309   24279   24306   24339       1   24309   24279   24306   24342       1
   24306   24342   24312   24345       1   24303   24276   24300   24336       1
   24297   24273   24294   24300       1   24297   24273   24294   24333       1
   24294   24300   24276   24303       1   24288   24267   24285   24315       1
   24288   24282   24312   24345       1   24288   24321   24351   24378       1
   24285   24318   24351   24378       1   24282   24264   24279   24309       1
   24282   24288   24321   24354       1   24282   24312   24342   24369       1
   24279   24306   24342   24369       1   24276   24300   24294   24333       1
   24267   24288   24321   24354       1   24264   24282   24312   24345       1
   24261   24258   24273   24297       1   24258   24261   24276   24303       1
   24258   24273   24294   24333       1   24255   24234   24249   24270       1
   24252   24228   24249   24270       1   24249   24270   24291   24324       2
   24249   24270   24291   24327       2   24249   24270   24291   24330       2
   24246   24222   24240   24258       1   24243   24261   24276   24303       1
   24243   24264   24279   24309       1   24243   24267   24285   24315       1
   24240   24258   24273   24297       1   24237   24213   24234   24249       1
   24237   24213   24234   24255       1   24234   24249   24228   24252       1
   24231   24210   24228   24249       1   24231   24210   24228   24252       1
   24228   24249   24234   24255       1   24225   24207   24222   24240       1
   24225   24207   24222   24246       1   24219   24204   24216   24240       1
   24219   24204   24216   24243       1   24216   24240   24222   24246       1
   24213   24201   24210   24231       1   24210   24201   24213   24237       1
   24207   24198   24204   24219       1   24204   24198   24207   24225       1
   24201   24210   24228   24252       1   24201   24213   24234   24255       1
   24198   24207   24222   24246       1   24195   24198   24204   24219       1
   24195   24198   24207   24225       1   24195   24201   24210   24231       1
   24195   24201   24213   24237       1   24192   24180   24186   24195       1
   24189   24174   24186   24195       1   24183   24162   24180   24186       1
   24183   24162   24180   24192       1   24180   24186   24174   24189       1
   24177   24159   24174   24186       1   24177   24159   24174   24189       1
   24174   24186   24180   24192       1   24162   24153   24159   24177       1
   24159   24153   24162   24183       1   24153   24150   24156   24165       2
   24153   24150   24156   24168       2   24153   24150   24156   24171       2
   24153   24159   24174   24189       1   24153   24162   24180   24192       1
   24150   24153   24159   24177       1   24150   24153   24162   24183       1
   25023   24966   25017   25041       1   25020   24960   25017   25041       1
   25017   25041   25059   25107       2   25017   25041   25059   25110       2
   25017   25041   25059   25113       2   25014   24954   25008   25038       1
   25011   24948   25008   25038       1   25008   25038   25056   25098       2
   25008   25038   25056   25101       2   25008   25038   25056   25104       2
   25005   24942   24999   25035       1   25002   24936   24999   25035       1
   24999   25035   25053   25089       2   24999   25035   25053   25092       2
   24999   25035   25053   25095       2   24996   24930   24993   25032       1
   24993   25032   25050   25080       2   24993   25032   25050   25083       2
   24993   25032   25050   25086       2   24990   24924   24993   25032       1
   24987   24921   24981   25029       1   24984   24915   24981   25029       1
   24981   25029   25047   25071       2   24981   25029   25047   25074       2
   24981   25029   25047   25077       2   24978   24906   24972   25026       1
   24975   24900   24972   25026       1   24972   25026   25044   25062       2
   24972   25026   25044   25065       2   24972   25026   25044   25068       2
   24969   24897   24966   25017       1   24969   24897   24966   25023       1
   24966   25017   24960   25020       1   24963   24894   24960   25017       1
   24963   24894   24960   25020       1   24960   25017   24966   25023       1
   24957   24891   24954   25008       1   24957   24891   24954   25014       1
   24954   25008   24948   25011       1   24951   24888   24948   25008       1
   24951   24888   24948   25011       1   24948   25008   24954   25014       1
   24945   24885   24942   24999       1   24945   24885   24942   25005       1
   24942   24999   24936   25002       1   24939   24882   24936   24999       1
   24939   24882   24936   25002       1   24936   24999   24942   25005       1
   24933   24879   24930   24993       1   24933   24879   24930   24996       1
   24930   24993   24924   24990       1   24927   24876   24924   24990       1
   24927   24876   24924   24993       1   24924   24993   24930   24996       1
   24921   24981   24915   24984       1   24918   24873   24921   24981       1
   24918   24873   24921   24987       1   24915   24981   24921   24987       1
   24912   24870   24915   24981       1   24912   24870   24915   24984       1
   24909   24867   24906   24972       1   24909   24867   24906   24978       1
   24906   24972   24900   24975       1   24903   24864   24900   24972       1
   24903   24864   24900   24975       1   24900   24972   24906   24978       1
   24897   24858   24894   24963       1   24894   24858   24897   24969       1
   24891   24855   24888   24951       1   24888   24855   24891   24957       1
   24885   24849   24882   24939       1   24882   24849   24885   24945       1
   24879   24846   24876   24927       1   24876   24846   24879   24933       1
   24873   24843   24870   24912       1   24870   24843   24873   24918       1
   24867   24840   24864   24903       1   24864   24840   24867   24909       1
   24858   24894   24960   25020       1   24858   24897   24966   25023       1
   24855   24888   24948   25011       1   24855   24891   24954   25014       1
   24849   24882   24936   25002       1   24849   24885   24942   25005       1
   24846   24876   24924   24990       1   24846   24879   24930   24996       1
   24843   24870   24915   24984       1   24843   24873   24921   24987       1
   24840   24864   24900   24975       1   24840   24867   24906   24978       1
   24837   24804   24834   24861       1   24831   24801   24834   24861       1
   24831   24855   24888   24951       1   24831   24855   24891   24957       1
   24831   24858   24894   24963       1   24831   24858   24897   24969       1
   24828   24795   24825   24852       1   24822   24789   24825   24852       1
   24822   24846   24876   24927       1   24822   24846   24879   24933       1
   24822   24849   24882   24939       1   24822   24849   24885   24945       1
   24819   24840   24864   24903       1   24819   24840   24867   24909       1
   24819   24843   24870   24912       1   24819   24843   24873   24918       1
   24816   24777   24783   24819       1   24801   24834   24804   24837       1
   24798   24768   24801   24831       1   24798   24768   24801   24834       1
   24792   24762   24789   24822       1   24792   24762   24789   24825       1
   24789   24825   24795   24828       1   24786   24759   24783   24819       1
   24780   24756   24777   24783       1   24780   24756   24777   24816       1
   24777   24783   24759   24786       1   24771   24750   24768   24798       1
   24771   24765   24795   24828       1   24771   24804   24834   24861       1
   24768   24801   24834   24861       1   24765   24747   24762   24792       1
   24765   24771   24804   24837       1   24765   24795   24825   24852       1
   24762   24789   24825   24852       1   24759   24783   24777   24816       1
   24750   24771   24804   24837       1   24747   24765   24795   24828       1
   24744   24741   24756   24780       1   24741   24744   24759   24786       1
   24741   24756   24777   24816       1   24738   24717   24732   24753       1
   24735   24711   24732   24753       1   24732   24753   24774   24807       2
   24732   24753   24774   24810       2   24732   24753   24774   24813       2
   24729   24705   24723   24741       1   24726   24744   24759   24786       1
   24726   24747   24762   24792       1   24726   24750   24768   24798       1
   24723   24741   24756   24780       1   24720   24696   24717   24732       1
   24720   24696   24717   24738       1   24717   24732   24711   24735       1
   24714   24693   24711   24732       1   24714   24693   24711   24735       1
   24711   24732   24717   24738       1   24708   24690   24705   24723       1
   24708   24690   24705   24729       1   24702   24687   24699   24723       1
   24702   24687   24699   24726       1   24699   24723   24705   24729       1
   24696   24684   24693   24714       1   24693   24684   24696   24720       1
   24690   24681   24687   24702       1   24687   24681   24690   24708       1
   24684   24693   24711   24735       1   24684   24696   24717   24738       1
   24681   24690   24705   24729       1   24678   24681   24687   24702       1
   24678   24681   24690   24708       1   24678   24684   24693   24714       1
   24678   24684   24696   24720       1   24675   24663   24669   24678       1
   24672   24657   24669   24678       1   24666   24645   24663   24669       1
   24666   24645   24663   24675       1   24663   24669   24657   24672       1
   24660   24642   24657   24669       1   24660   24642   24657   24672       1
   24657   24669   24663   24675       1   24645   24636   24642   24660       1
   24642   24636   24645   24666       1   24636   24633   24639   24648       2
   24636   24633   24639   24651       2   24636   24633   24639   24654       2
   24636   24642   24657   24672       1   24636   24645   24663   24675       1
   24633   24636   24642   24660       1   24633   24636   24645   24666       1
   25506   25449   25500   25524       1   25503   25443   25500   25524       1
   25500   25524   25542   25590       2   25500   25524   25542   25593       2
   25500   25524   25542   25596       2   25497   25437   25491   25521       1
   25494   25431   25491   25521       1   25491   25521   25539   25581       2
   25491   25521   25539   25584       2   25491   25521   25539   25587       2
   25488   25425   25482   25518       1   25485   25419   25482   25518       1
   25482   25518   25536   25572       2   25482   25518   25536   25575       2
   25482   25518   25536   25578       2   25479   25413   25476   25515       1
   25476   25515   25533   25563       2   25476   25515   25533   25566       2
   25476   25515   25533   25569       2   25473   25407   25476   25515       1
   25470   25404   25464   25512       1   25467   25398   25464   25512       1
   25464   25512   25530   25554       2   25464   25512   25530   25557       2
   25464   25512   25530   25560       2   25461   25389   25455   25509       1
   25458   25383   25455   25509       1   25455   25509   25527   25545       2
   25455   25509   25527   25548       2   25455   25509   25527   25551       2
   25452   25380   25449   25500       1   25452   25380   25449   25506       1
   25449   25500   25443   25503       1   25446   25377   25443   25500       1
   25446   25377   25443   25503       1   25443   25500   25449   25506       1
   25440   25374   25437   25491       1   25440   25374   25437   25497       1
   25437   25491   25431   25494       1   25434   25371   25431   25491       1
   25434   25371   25431   25494       1   25431   25491   25437   25497       1
   25428   25368   25425   25482       1   25428   25368   25425   25488       1
   25425   25482   25419   25485       1   25422   25365   25419   25482       1
   25422   25365   25419   25485       1   25419   25482   25425   25488       1
   25416   25362   25413   25476       1   25416   25362   25413   25479       1
   25413   25476   25407   25473       1   25410   25359   25407   25473       1
   25410   25359   25407   25476       1   25407   25476   25413   25479       1
   25404   25464   25398   25467       1   25401   25356   25404   25464       1
   25401   25356   25404   25470       1   25398   25464   25404   25470       1
   25395   25353   25398   25464       1   25395   25353   25398   25467       1
   25392   25350   25389   25455       1   25392   25350   25389   25461       1
   25389   25455   25383   25458       1   25386   25347   25383   25455       1
   25386   25347   25383   25458       1   25383   25455   25389   25461       1
   25380   25341   25377   25446       1   25377   25341   25380   25452       1
   25374   25338   25371   25434       1   25371   25338   25374   25440       1
   25368   25332   25365   25422       1   25365   25332   25368   25428       1
   25362   25329   25359   25410       1   25359   25329   25362   25416       1
   25356   25326   25353   25395       1   25353   25326   25356   25401       1
   25350   25323   25347   25386       1   25347   25323   25350   25392       1
   25341   25377   25443   25503       1   25341   25380   25449   25506       1
   25338   25371   25431   25494       1   25338   25374   25437   25497       1
   25332   25365   25419   25485       1   25332   25368   25425   25488       1
   25329   25359   25407   25473       1   25329   25362   25413   25479       1
   25326   25353   25398   25467       1   25326   25356   25404   25470       1
   25323   25347   25383   25458       1   25323   25350   25389   25461       1
   25320   25287   25317   25344       1   25314   25284   25317   25344       1
   25314   25338   25371   25434       1   25314   25338   25374   25440       1
   25314   25341   25377   25446       1   25314   25341   25380   25452       1
   25311   25278   25308   25335       1   25305   25272   25308   25335       1
   25305   25329   25359   25410       1   25305   25329   25362   25416       1
   25305   25332   25365   25422       1   25305   25332   25368   25428       1
   25302   25323   25347   25386       1   25302   25323   25350   25392       1
   25302   25326   25353   25395       1   25302   25326   25356   25401       1
   25299   25260   25266   25302       1   25284   25317   25287   25320       1
   25281   25251   25284   25314       1   25281   25251   25284   25317       1
   25275   25245   25272   25305       1   25275   25245   25272   25308       1
   25272   25308   25278   25311       1   25269   25242   25266   25302       1
   25263   25239   25260   25266       1   25263   25239   25260   25299       1
   25260   25266   25242   25269       1   25254   25233   25251   25281       1
   25254   25248   25278   25311       1   25254   25287   25317   25344       1
   25251   25284   25317   25344       1   25248   25230   25245   25275       1
   25248   25254   25287   25320       1   25248   25278   25308   25335       1
   25245   25272   25308   25335       1   25242   25266   25260   25299       1
   25233   25254   25287   25320       1   25230   25248   25278   25311       1
   25227   25224   25239   25263       1   25224   25227   25242   25269       1
   25224   25239   25260   25299       1   25221   25200   25215   25236       1
   25218   25194   25215   25236       1   25215   25236   25257   25290       2
   25215   25236   25257   25293       2   25215   25236   25257   25296       2
   25212   25188   25206   25224       1   25209   25227   25242   25269       1
   25209   25230   25245   25275       1   25209   25233   25251   25281       1
   25206   25224   25239   25263       1   25203   25179   25200   25215       1
   25203   25179   25200   25221       1   25200   25215   25194   25218       1
   25197   25176   25194   25215       1   25197   25176   25194   25218       1
   25194   25215   25200   25221       1   25191   25173   25188   25206       1
   25191   25173   25188   25212       1   25185   25170   25182   25206       1
   25185   25170   25182   25209       1   25182   25206   25188   25212       1
   25179   25167   25176   25197       1   25176   25167   25179   25203       1
   25173   25164   25170   25185       1   25170   25164   25173   25191       1
   25167   25176   25194   25218       1   25167   25179   25200   25221       1
   25164   25173   25188   25212       1   25161   25164   25170   25185       1
   25161   25164   25173   25191       1   25161   25167   25176   25197       1
   25161   25167   25179   25203       1   25158   25146   25152   25161       1
   25155   25140   25152   25161       1   25149   25128   25146   25152       1
   25149   25128   25146   25158       1   25146   25152   25140   25155       1
   25143   25125   25140   25152       1   25143   25125   25140   25155       1
   25140   25152   25146   25158       1   25128   25119   25125   25143       1
   25125   25119   25128   25149       1   25119   25116   25122   25131       2
   25119   25116   25122   25134       2   25119   25116   25122   25137       2
   25119   25125   25140   25155       1   25119   25128   25146   25158       1
   25116   25119   25125   25143       1   25116   25119   25128   25149       1
   25989   25932   25983   26007       1   25986   25926   25983   26007       1
   25983   26007   26025   26073       2   25983   26007   26025   26076       2
   25983   26007   26025   26079       2   25980   25920   25974   26004       1
   25977   25914   25974   26004       1   25974   26004   26022   26064       2
   25974   26004   26022   26067       2   25974   26004   26022   26070       2
   25971   25908   25965   26001       1   25968   25902   25965   26001       1
   25965   26001   26019   26055       2   25965   26001   26019   26058       2
   25965   26001   26019   26061       2   25962   25896   25959   25998       1
   25959   25998   26016   26046       2   25959   25998   26016   26049       2
   25959   25998   26016   26052       2   25956   25890   25959   25998       1
   25953   25887   25947   25995       1   25950   25881   25947   25995       1
   25947   25995   26013   26037       2   25947   25995   26013   26040       2
   25947   25995   26013   26043       2   25944   25872   25938   25992       1
   25941   25866   25938   25992       1   25938   25992   26010   26028       2
   25938   25992   26010   26031       2   25938   25992   26010   26034       2
   25935   25863   25932   25983       1   25935   25863   25932   25989       1
   25932   25983   25926   25986       1   25929   25860   25926   25983       1
   25929   25860   25926   25986       1   25926   25983   25932   25989       1
   25923   25857   25920   25974       1   25923   25857   25920   25980       1
   25920   25974   25914   25977       1   25917   25854   25914   25974       1
   25917   25854   25914   25977       1   25914   25974   25920   25980       1
   25911   25851   25908   25965       1   25911   25851   25908   25971       1
   25908   25965   25902   25968       1   25905   25848   25902   25965       1
   25905   25848   25902   25968       1   25902   25965   25908   25971       1
   25899   25845   25896   25959       1   25899   25845   25896   25962       1
   25896   25959   25890   25956       1   25893   25842   25890   25956       1
   25893   25842   25890   25959       1   25890   25959   25896   25962       1
   25887   25947   25881   25950       1   25884   25839   25887   25947       1
   25884   25839   25887   25953       1   25881   25947   25887   25953       1
   25878   25836   25881   25947       1   25878   25836   25881   25950       1
   25875   25833   25872   25938       1   25875   25833   25872   25944       1
   25872   25938   25866   25941       1   25869   25830   25866   25938       1
   25869   25830   25866   25941       1   25866   25938   25872   25944       1
   25863   25824   25860   25929       1   25860   25824   25863   25935       1
   25857   25821   25854   25917       1   25854   25821   25857   25923       1
   25851   25815   25848   25905       1   25848   25815   25851   25911       1
   25845   25812   25842   25893       1   25842   25812   25845   25899       1
   25839   25809   25836   25878       1   25836   25809   25839   25884       1
   25833   25806   25830   25869       1   25830   25806   25833   25875       1
   25824   25860   25926   25986       1   25824   25863   25932   25989       1
   25821   25854   25914   25977       1   25821   25857   25920   25980       1
   25815   25848   25902   25968       1   25815   25851   25908   25971       1
   25812   25842   25890   25956       1   25812   25845   25896   25962       1
   25809   25836   25881   25950       1   25809   25839   25887   25953       1
   25806   25830   25866   25941       1   25806   25833   25872   25944       1
   25803   25770   25800   25827       1   25797   25767   25800   25827       1
   25797   25821   25854   25917       1   25797   25821   25857   25923       1
   25797   25824   25860   25929       1   25797   25824   25863   25935       1
   25794   25761   25791   25818       1   25788   25755   25791   25818       1
   25788   25812   25842   25893       1   25788   25812   25845   25899       1
   25788   25815   25848   25905       1   25788   25815   25851   25911       1
   25785   25806   25830   25869       1   25785   25806   25833   25875       1
   25785   25809   25836   25878       1   25785   25809   25839   25884       1
   25782   25743   25749   25785       1   25767   25800   25770   25803       1
   25764   25734   25767   25797       1   25764   25734   25767   25800       1
   25758   25728   25755   25788       1   25758   25728   25755   25791       1
   25755   25791   25761   25794       1   25752   25725   25749   25785       1
   25746   25722   25743   25749       1   25746   25722   25743   25782       1
   25743   25749   25725   25752       1   25737   25716   25734   25764       1
   25737   25731   25761   25794       1   25737   25770   25800   25827       1
   25734   25767   25800   25827       1   25731   25713   25728   25758       1
   25731   25737   25770   25803       1   25731   25761   25791   25818       1
   25728   25755   25791   25818       1   25725   25749   25743   25782       1
   25716   25737   25770   25803       1   25713   25731   25761   25794       1
   25710   25707   25722   25746       1   25707   25710   25725   25752       1
   25707   25722   25743   25782       1   25704   25683   25698   25719       1
   25701   25677   25698   25719       1   25698   25719   25740   25773       2
   25698   25719   25740   25776       2   25698   25719   25740   25779       2
   25695   25671   25689   25707       1   25692   25710   25725   25752       1
   25692   25713   25728   25758       1   25692   25716   25734   25764       1
   25689   25707   25722   25746       1   25686   25662   25683   25698       1
   25686   25662   25683   25704       1   25683   25698   25677   25701       1
   25680   25659   25677   25698       1   25680   25659   25677   25701       1
   25677   25698   25683   25704       1   25674   25656   25671   25689       1
   25674   25656   25671   25695       1   25668   25653   25665   25689       1
   25668   25653   25665   25692       1   25665   25689   25671   25695       1
   25662   25650   25659   25680       1   25659   25650   25662   25686       1
   25656   25647   25653   25668       1   25653   25647   25656   25674       1
   25650   25659   25677   25701       1   25650   25662   25683   25704       1
   25647   25656   25671   25695       1   25644   25647   25653   25668       1
   25644   25647   25656   25674       1   25644   25650   25659   25680       1
   25644   25650   25662   25686       1   25641   25629   25635   25644       1
   25638   25623   25635   25644       1   25632   25611   25629   25635       1
   25632   25611   25629   25641       1   25629   25635   25623   25638       1
   25626   25608   25623   25635       1   25626   25608   25623   25638       1
   25623   25635   25629   25641       1   25611   25602   25608   25626       1
   25608   25602   25611   25632       1   25602   25599   25605   25614       2
   25602   25599   25605   25617       2   25602   25599   25605   25620       2
   25602   25608   25623   25638       1   25602   25611   25629   25641       1
   25599   25602   25608   25626       1   25599   25602   25611   25632       1
   26472   26415   26466   26490       1   26469   26409   26466   26490       1
   26466   26490   26508   26556       2   26466   26490   26508   26559       2
   26466   26490   26508   26562       2   26463   26403   26457   26487       1
   26460   26397   26457   26487       1   26457   26487   26505   26547       2
   26457   26487   26505   26550       2   26457   26487   26505   26553       2
   26454   26391   26448   26484       1   26451   26385   26448   26484       1
   26448   26484   26502   26538       2   26448   26484   26502   26541       2
   26448   26484   26502   26544       2   26445   26379   26442   26481       1
   26442   26481   26499   26529       2   26442   26481   26499   26532       2
   26442   26481   26499   26535       2   26439   26373   26442   26481       1
   26436   26370   26430   26478       1   26433   26364   26430   26478       1
   26430   26478   26496   26520       2   26430   26478   26496   26523       2
   26430   26478   26496   26526       2   26427   26355   26421   26475       1
   26424   26349   26421   26475       1   26421   26475   26493   26511       2
   26421   26475   26493   26514       2   26421   26475   26493   26517       2
   26418   26346   26415   26466       1   26418   26346   26415   26472       1
   26415   26466   26409   26469       1   26412   26343   26409   26466       1
   26412   26343   26409   26469       1   26409   26466   26415   26472       1
   26406   26340   26403   26457       1   26406   26340   26403   26463       1
   26403   26457   26397   26460       1   26400   26337   26397   26457       1
   26400   26337   26397   26460       1   26397   26457   26403   26463       1
   26394   26334   26391   26448       1   26394   26334   26391   26454       1
   26391   26448   26385   26451       1   26388   26331   26385   26448       1
   26388   26331   26385   26451       1   26385   26448   26391   26454       1
   26382   26328   26379   26442       1   26382   26328   26379   26445       1
   26379   26442   26373   26439       1   26376   26325   26373   26439       1
   26376   26325   26373   26442       1   26373   26442   26379   26445       1
   26370   26430   26364   26433       1   26367   26322   26370   26430       1
   26367   26322   26370   26436       1   26364   26430   26370   26436       1
   26361   26319   26364   26430       1   26361   26319   26364   26433       1
   26358   26316   26355   26421       1   26358   26316   26355   26427       1
   26355   26421   26349   26424       1   26352   26313   26349   26421       1
   26352   26313   26349   26424       1   26349   26421   26355   26427       1
   26346   26307   26343   26412       1   26343   26307   26346   26418       1
   26340   26304   26337   26400       1   26337   26304   26340   26406       1
   26334   26298   26331   26388       1   26331   26298   26334   26394       1
   26328   26295   26325   26376       1   26325   26295   26328   26382       1
   26322   26292   26319   26361       1   26319   26292   26322   26367       1
   26316   26289   26313   26352       1   26313   26289   26316   26358       1
   26307   26343   26409   26469       1   26307   26346   26415   26472       1
   26304   26337   26397   26460       1   26304   26340   26403   26463       1
   26298   26331   26385   26451       1   26298   26334   26391   26454       1
   26295   26325   26373   26439       1   26295   26328   26379   26445       1
   26292   26319   26364   26433       1   26292   26322   26370   26436       1
   26289   26313   26349   26424       1   26289   26316   26355   26427       1
   26286   26253   26283   26310       1   26280   26250   26283   26310       1
   26280   26304   26337   26400       1   26280   26304   26340   26406       1
   26280   26307   26343   26412       1   26280   26307   26346   26418       1
   26277   26244   26274   26301       1   26271   26238   26274   26301       1
   26271   26295   26325   26376       1   26271   26295   26328   26382       1
   26271   26298   26331   26388       1   26271   26298   26334   26394       1
   26268   26289   26313   26352       1   26268   26289   26316   26358       1
   26268   26292   26319   26361       1   26268   26292   26322   26367       1
   26265   26226   26232   26268       1   26250   26283   26253   26286       1
   26247   26217   26250   26280       1   26247   26217   26250   26283       1
   26241   26211   26238   26271       1   26241   26211   26238   26274       1
   26238   26274   26244   26277       1   26235   26208   26232   26268       1
   26229   26205   26226   26232       1   26229   26205   26226   26265       1
   26226   26232   26208   26235       1   26220   26199   26217   26247       1
   26220   26214   26244   26277       1   26220   26253   26283   26310       1
   26217   26250   26283   26310       1   26214   26196   26211   26241       1
   26214   26220   26253   26286       1   26214   26244   26274   26301       1
   26211   26238   26274   26301       1   26208   26232   26226   26265       1
   26199   26220   26253   26286       1   26196   26214   26244   26277       1
   26193   26190   26205   26229       1   26190   26193   26208   26235       1
   26190   26205   26226   26265       1   26187   26166   26181   26202       1
   26184   26160   26181   26202       1   26181   26202   26223   26256       2
   26181   26202   26223   26259       2   26181   26202   26223   26262       2
   26178   26154   26172   26190       1   26175   26193   26208   26235       1
   26175   26196   26211   26241       1   26175   26199   26217   26247       1
   26172   26190   26205   26229       1   26169   26145   26166   26181       1
   26169   26145   26166   26187       1   26166   26181   26160   26184       1
   26163   26142   26160   26181       1   26163   26142   26160   26184       1
   26160   26181   26166   26187       1   26157   26139   26154   26172       1
   26157   26139   26154   26178       1   26151   26136   26148   26172       1
   26151   26136   26148   26175       1   26148   26172   26154   26178       1
   26145   26133   26142   26163       1   26142   26133   26145   26169       1
   26139   26130   26136   26151       1   26136   26130   26139   26157       1
   26133   26142   26160   26184       1   26133   26145   26166   26187       1
   26130   26139   26154   26178       1   26127   26130   26136   26151       1
   26127   26130   26139   26157       1   26127   26133   26142   26163       1
   26127   26133   26145   26169       1   26124   26112   26118   26127       1
   26121   26106   26118   26127       1   26115   26094   26112   26118       1
   26115   26094   26112   26124       1   26112   26118   26106   26121       1
   26109   26091   26106   26118       1   26109   26091   26106   26121       1
   26106   26118   26112   26124       1   26094   26085   26091   26109       1
   26091   26085   26094   26115       1   26085   26082   26088   26097       2
   26085   26082   26088   26100       2   26085   26082   26088   26103       2
   26085   26091   26106   26121       1   26085   26094   26112   26124       1
   26082   26085   26091   26109       1   26082   26085   26094   26115       1
   26955   26898   26949   26973       1   26952   26892   26949   26973       1
   26949   26973   26991   27039       2   26949   26973   26991   27042       2
   26949   26973   26991   27045       2   26946   26886   26940   26970       1
   26943   26880   26940   26970       1   26940   26970   26988   27030       2
   26940   26970   26988   27033       2   26940   26970   26988   27036       2
   26937   26874   26931   26967       1   26934   26868   26931   26967       1
   26931   26967   26985   27021       2   26931   26967   26985   27024       2
   26931   26967   26985   27027       2   26928   26862   26925   26964       1
   26925   26964   26982   27012       2   26925   26964   26982   27015       2
   26925   26964   26982   27018       2   26922   26856   26925   26964       1
   26919   26853   26913   26961       1   26916   26847   26913   26961       1
   26913   26961   26979   27003       2   26913   26961   26979   27006       2
   26913   26961   26979   27009       2   26910   26838   26904   26958       1
   26907   26832   26904   26958       1   26904   26958   26976   26994       2
   26904   26958   26976   26997       2   26904   26958   26976   27000       2
   26901   26829   26898   26949       1   26901   26829   26898   26955       1
   26898   26949   26892   26952       1   26895   26826   26892   26949       1
   26895   26826   26892   26952       1   26892   26949   26898   26955       1
   26889   26823   26886   26940       1   26889   26823   26886   26946       1
   26886   26940   26880   26943       1   26883   26820   26880   26940       1
   26883   26820   26880   26943       1   26880   26940   26886   26946       1
   26877   26817   26874   26931       1   26877   26817   26874   26937       1
   26874   26931   26868   26934       1   26871   26814   26868   26931       1
   26871   26814   26868   26934       1   26868   26931   26874   26937       1
   26865   26811   26862   26925       1   26865   26811   26862   26928       1
   26862   26925   26856   26922       1   26859   26808   26856   26922       1
   26859   26808   26856   26925       1   26856   26925   26862   26928       1
   26853   26913   26847   26916       1   26850   26805   26853   26913       1
   26850   26805   26853   26919       1   26847   26913   26853   26919       1
   26844   26802   26847   26913       1   26844   26802   26847   26916       1
   26841   26799   26838   26904       1   26841   26799   26838   26910       1
   26838   26904   26832   26907       1   26835   26796   26832   26904       1
   26835   26796   26832   26907       1   26832   26904   26838   26910       1
   26829   26790   26826   26895       1   26826   26790   26829   26901       1
   26823   26787   26820   26883       1   26820   26787   26823   26889       1
   26817   26781   26814   26871       1   26814   26781   26817   26877       1
   26811   26778   26808   26859       1   26808   26778   26811   26865       1
   26805   26775   26802   26844       1   26802   26775   26805   26850       1
   26799   26772   26796   26835       1   26796   26772   26799   26841       1
   26790   26826   26892   26952       1   26790   26829   26898   26955       1
   26787   26820   26880   26943       1   26787   26823   26886   26946       1
   26781   26814   26868   26934       1   26781   26817   26874   26937       1
   26778   26808   26856   26922       1   26778   26811   26862   26928       1
   26775   26802   26847   26916       1   26775   26805   26853   26919       1
   26772   26796   26832   26907       1   26772   26799   26838   26910       1
   26769   26736   26766   26793       1   26763   26733   26766   26793       1
   26763   26787   26820   26883       1   26763   26787   26823   26889       1
   26763   26790   26826   26895       1   26763   26790   26829   26901       1
   26760   26727   26757   26784       1   26754   26721   26757   26784       1
   26754   26778   26808   26859       1   26754   26778   26811   26865       1
   26754   26781   26814   26871       1   26754   26781   26817   26877       1
   26751   26772   26796   26835       1   26751   26772   26799   26841       1
   26751   26775   26802   26844       1   26751   26775   26805   26850       1
   26748   26709   26715   26751       1   26733   26766   26736   26769       1
   26730   26700   26733   26763       1   26730   26700   26733   26766       1
   26724   26694   26721   26754       1   26724   26694   26721   26757       1
   26721   26757   26727   26760       1   26718   26691   26715   26751       1
   26712   26688   26709   26715       1   26712   26688   26709   26748       1
   26709   26715   26691   26718       1   26703   26682   26700   26730       1
   26703   26697   26727   26760       1   26703   26736   26766   26793       1
   26700   26733   26766   26793       1   26697   26679   26694   26724       1
   26697   26703   26736   26769       1   26697   26727   26757   26784       1
   26694   26721   26757   26784       1   26691   26715   26709   26748       1
   26682   26703   26736   26769       1   26679   26697   26727   26760       1
   26676   26673   26688   26712       1   26673   26676   26691   26718       1
   26673   26688   26709   26748       1   26670   26649   26664   26685       1
   26667   26643   26664   26685       1   26664   26685   26706   26739       2
   26664   26685   26706   26742       2   26664   26685   26706   26745       2
   26661   26637   26655   26673       1   26658   26676   26691   26718       1
   26658   26679   26694   26724       1   26658   26682   26700   26730       1
   26655   26673   26688   26712       1   26652   26628   26649   26664       1
   26652   26628   26649   26670       1   26649   26664   26643   26667       1
   26646   26625   26643   26664       1   26646   26625   26643   26667       1
   26643   26664   26649   26670       1   26640   26622   26637   26655       1
   26640   26622   26637   26661       1   26634   26619   26631   26655       1
   26634   26619   26631   26658       1   26631   26655   26637   26661       1
   26628   26616   26625   26646       1   26625   26616   26628   26652       1
   26622   26613   26619   26634       1   26619   26613   26622   26640       1
   26616   26625   26643   26667       1   26616   26628   26649   26670       1
   26613   26622   26637   26661       1   26610   26613   26619   26634       1
   26610   26613   26622   26640       1   26610   26616   26625   26646       1
   26610   26616   26628   26652       1   26607   26595   26601   26610       1
   26604   26589   26601   26610       1   26598   26577   26595   26601       1
   26598   26577   26595   26607       1   26595   26601   26589   26604       1
   26592   26574   26589   26601       1   26592   26574   26589   26604       1
   26589   26601   26595   26607       1   26577   26568   26574   26592       1
   26574   26568   26577   26598       1   26568   26565   26571   26580       2
   26568   26565   26571   26583       2   26568   26565   26571   26586       2
   26568   26574   26589   26604       1   26568   26577   26595   26607       1
   26565   26568   26574   26592       1   26565   26568   26577   26598       1
   27438   27381   27432   27456       1   27435   27375   27432   27456       1
   27432   27456   27474   27522       2   27432   27456   27474   27525       2
   27432   27456   27474   27528       2   27429   27369   27423   27453       1
   27426   27363   27423   27453       1   27423   27453   27471   27513       2
   27423   27453   27471   27516       2   27423   27453   27471   27519       2
   27420   27357   27414   27450       1   27417   27351   27414   27450       1
   27414   27450   27468   27504       2   27414   27450   27468   27507       2
   27414   27450   27468   27510       2   27411   27345   27408   27447       1
   27408   27447   27465   27495       2   27408   27447   27465   27498       2
   27408   27447   27465   27501       2   27405   27339   27408   27447       1
   27402   27336   27396   27444       1   27399   27330   27396   27444       1
   27396   27444   27462   27486       2   27396   27444   27462   27489       2
   27396   27444   27462   27492       2   27393   27321   27387   27441       1
   27390   27315   27387   27441       1   27387   27441   27459   27477       2
   27387   27441   27459   27480       2   27387   27441   27459   27483       2
   27384   27312   27381   27432       1   27384   27312   27381   27438       1
   27381   27432   27375   27435       1   27378   27309   27375   27432       1
   27378   27309   27375   27435       1   27375   27432   27381   27438       1
   27372   27306   27369   27423       1   27372   27306   27369   27429       1
   27369   27423   27363   27426       1   27366   27303   27363   27423       1
   27366   27303   27363   27426       1   27363   27423   27369   27429       1
   27360   27300   27357   27414       1   27360   27300   27357   27420       1
   27357   27414   27351   27417       1   27354   27297   27351   27414       1
   27354   27297   27351   27417       1   27351   27414   27357   27420       1
   27348   27294   27345   27408       1   27348   27294   27345   27411       1
   27345   27408   27339   27405       1   27342   27291   27339   27405       1
   27342   27291   27339   27408       1   27339   27408   27345   27411       1
   27336   27396   27330   27399       1   27333   27288   27336   27396       1
   27333   27288   27336   27402       1   27330   27396   27336   27402       1
   27327   27285   27330   27396       1   27327   27285   27330   27399       1
   27324   27282   27321   27387       1   27324   27282   27321   27393       1
   27321   27387   27315   27390       1   27318   27279   27315   27387       1
   27318   27279   27315   27390       1   27315   27387   27321   27393       1
   27312   27273   27309   27378       1   27309   27273   27312   27384       1
   27306   27270   27303   27366       1   27303   27270   27306   27372       1
   27300   27264   27297   27354       1   27297   27264   27300   27360       1
   27294   27261   27291   27342       1   27291   27261   27294   27348       1
   27288   27258   27285   27327       1   27285   27258   27288   27333       1
   27282   27255   27279   27318       1   27279   27255   27282   27324       1
   27273   27309   27375   27435       1   27273   27312   27381   27438       1
   27270   27303   27363   27426       1   27270   27306   27369   27429       1
   27264   27297   27351   27417       1   27264   27300   27357   27420       1
   27261   27291   27339   27405       1   27261   27294   27345   27411       1
   27258   27285   27330   27399       1   27258   27288   27336   27402       1
   27255   27279   27315   27390       1   27255   27282   27321   27393       1
   27252   27219   27249   27276       1   27246   27216   27249   27276       1
   27246   27270   27303   27366       1   27246   27270   27306   27372       1
   27246   27273   27309   27378       1   27246   27273   27312   27384       1
   27243   27210   27240   27267       1   27237   27204   27240   27267       1
   27237   27261   27291   27342       1   27237   27261   27294   27348       1
   27237   27264   27297   27354       1   27237   27264   27300   27360       1
   27234   27255   27279   27318       1   27234   27255   27282   27324       1
   27234   27258   27285   27327       1   27234   27258   27288   27333       1
   27231   27192   27198   27234       1   27216   27249   27219   27252       1
   27213   27183   27216   27246       1   27213   27183   27216   27249       1
   27207   27177   27204   27237       1   27207   27177   27204   27240       1
   27204   27240   27210   27243       1   27201   27174   27198   27234       1
   27195   27171   27192   27198       1   27195   27171   27192   27231       1
   27192   27198   27174   27201       1   27186   27165   27183   27213       1
   27186   27180   27210   27243       1   27186   27219   27249   27276       1
   27183   27216   27249   27276       1   27180   27162   27177   27207       1
   27180   27186   27219   27252       1   27180   27210   27240   27267       1
   27177   27204   27240   27267       1   27174   27198   27192   27231       1
   27165   27186   27219   27252       1   27162   27180   27210   27243       1
   27159   27156   27171   27195       1   27156   27159   27174   27201       1
   27156   27171   27192   27231       1   27153   27132   27147   27168       1
   27150   27126   27147   27168       1   27147   27168   27189   27222       2
   27147   27168   27189   27225       2   27147   27168   27189   27228       2
   27144   27120   27138   27156       1   27141   27159   27174   27201       1
   27141   27162   27177   27207       1   27141   27165   27183   27213       1
   27138   27156   27171   27195       1   27135   27111   27132   27147       1
   27135   27111   27132   27153       1   27132   27147   27126   27150       1
   27129   27108   27126   27147       1   27129   27108   27126   27150       1
   27126   27147   27132   27153       1   27123   27105   27120   27138       1
   27123   27105   27120   27144       1   27117   27102   27114   27138       1
   27117   27102   27114   27141       1   27114   27138   27120   27144       1
   27111   27099   27108   27129       1   27108   27099   27111   27135       1
   27105   27096   27102   27117       1   27102   27096   27105   27123       1
   27099   27108   27126   27150       1   27099   27111   27132   27153       1
   27096   27105   27120   27144       1   27093   27096   27102   27117       1
   27093   27096   27105   27123       1   27093   27099   27108   27129       1
   27093   27099   27111   27135       1   27090   27078   27084   27093       1
   27087   27072   27084   27093       1   27081   27060   27078   27084       1
   27081   27060   27078   27090       1   27078   27084   27072   27087       1
   27075   27057   27072   27084       1   27075   27057   27072   27087       1
   27072   27084   27078   27090       1   27060   27051   27057   27075       1
   27057   27051   27060   27081       1   27051   27048   27054   27063       2
   27051   27048   27054   27066       2   27051   27048   27054   27069       2
   27051   27057   27072   27087       1   27051   27060   27078   27090       1
   27048   27051   27057   27075       1   27048   27051   27060   27081       1
   27921   27864   27915   27939       1   27918   27858   27915   27939       1
   27915   27939   27957   28005       2   27915   27939   27957   28008       2
   27915   27939   27957   28011       2   27912   27852   27906   27936       1
   27909   27846   27906   27936       1   27906   27936   27954   27996       2
   27906   27936   27954   27999       2   27906   27936   27954   28002       2
   27903   27840   27897   27933       1   27900   27834   27897   27933       1
   27897   27933   27951   27987       2   27897   27933   27951   27990       2
   27897   27933   27951   27993       2   27894   27828   27891   27930       1
   27891   27930   27948   27978       2   27891   27930   27948   27981       2
   27891   27930   27948   27984       2   27888   27822   27891   27930       1
   27885   27819   27879   27927       1   27882   27813   27879   27927       1
   27879   27927   27945   27969       2   27879   27927   27945   27972       2
   27879   27927   27945   27975       2   27876   27804   27870   27924       1
   27873   27798   27870   27924       1   27870   27924   27942   27960       2
   27870   27924   27942   27963       2   27870   27924   27942   27966       2
   27867   27795   27864   27915       1   27867   27795   27864   27921       1
   27864   27915   27858   27918       1   27861   27792   27858   27915       1
   27861   27792   27858   27918       1   27858   27915   27864   27921       1
   27855   27789   27852   27906       1   27855   27789   27852   27912       1
   27852   27906   27846   27909       1   27849   27786   27846   27906       1
   27849   27786   27846   27909       1   27846   27906   27852   27912       1
   27843   27783   27840   27897       1   27843   27783   27840   27903       1
   27840   27897   27834   27900       1   27837   27780   27834   27897       1
   27837   27780   27834   27900       1   27834   27897   27840   27903       1
   27831   27777   27828   27891       1   27831   27777   27828   27894       1
   27828   27891   27822   27888       1   27825   27774   27822   27888       1
   27825   27774   27822   27891       1   27822   27891   27828   27894       1
   27819   27879   27813   27882       1   27816   27771   27819   27879       1
   27816   27771   27819   27885       1   27813   27879   27819   27885       1
   27810   27768   27813   27879       1   27810   27768   27813   27882       1
   27807   27765   27804   27870       1   27807   27765   27804   27876       1
   27804   27870   27798   27873       1   27801   27762   27798   27870       1
   27801   27762   27798   27873       1   27798   27870   27804   27876       1
   27795   27756   27792   27861       1   27792   27756   27795   27867       1
   27789   27753   27786   27849       1   27786   27753   27789   27855       1
   27783   27747   27780   27837       1   27780   27747   27783   27843       1
   27777   27744   27774   27825       1   27774   27744   27777   27831       1
   27771   27741   27768   27810       1   27768   27741   27771   27816       1
   27765   27738   27762   27801       1   27762   27738   27765   27807       1
   27756   27792   27858   27918       1   27756   27795   27864   27921       1
   27753   27786   27846   27909       1   27753   27789   27852   27912       1
   27747   27780   27834   27900       1   27747   27783   27840   27903       1
   27744   27774   27822   27888       1   27744   27777   27828   27894       1
   27741   27768   27813   27882       1   27741   27771   27819   27885       1
   27738   27762   27798   27873       1   27738   27765   27804   27876       1
   27735   27702   27732   27759       1   27729   27699   27732   27759       1
   27729   27753   27786   27849       1   27729   27753   27789   27855       1
   27729   27756   27792   27861       1   27729   27756   27795   27867       1
   27726   27693   27723   27750       1   27720   27687   27723   27750       1
   27720   27744   27774   27825       1   27720   27744   27777   27831       1
   27720   27747   27780   27837       1   27720   27747   27783   27843       1
   27717   27738   27762   27801       1   27717   27738   27765   27807       1
   27717   27741   27768   27810       1   27717   27741   27771   27816       1
   27714   27675   27681   27717       1   27699   27732   27702   27735       1
   27696   27666   27699   27729       1   27696   27666   27699   27732       1
   27690   27660   27687   27720       1   27690   27660   27687   27723       1
   27687   27723   27693   27726       1   27684   27657   27681   27717       1
   27678   27654   27675   27681       1   27678   27654   27675   27714       1
   27675   27681   27657   27684       1   27669   27648   27666   27696       1
   27669   27663   27693   27726       1   27669   27702   27732   27759       1
   27666   27699   27732   27759       1   27663   27645   27660   27690       1
   27663   27669   27702   27735       1   27663   27693   27723   27750       1
   27660   27687   27723   27750       1   27657   27681   27675   27714       1
   27648   27669   27702   27735       1   27645   27663   27693   27726       1
   27642   27639   27654   27678       1   27639   27642   27657   27684       1
   27639   27654   27675   27714       1   27636   27615   27630   27651       1
   27633   27609   27630   27651       1   27630   27651   27672   27705       2
   27630   27651   27672   27708       2   27630   27651   27672   27711       2
   27627   27603   27621   27639       1   27624   27642   27657   27684       1
   27624   27645   27660   27690       1   27624   27648   27666   27696       1
   27621   27639   27654   27678       1   27618   27594   27615   27630       1
   27618   27594   27615   27636       1   27615   27630   27609   27633       1
   27612   27591   27609   27630       1   27612   27591   27609   27633       1
   27609   27630   27615   27636       1   27606   27588   27603   27621       1
   27606   27588   27603   27627       1   27600   27585   27597   27621       1
   27600   27585   27597   27624       1   27597   27621   27603   27627       1
   27594   27582   27591   27612       1   27591   27582   27594   27618       1
   27588   27579   27585   27600       1   27585   27579   27588   27606       1
   27582   27591   27609   27633       1   27582   27594   27615   27636       1
   27579   27588   27603   27627       1   27576   27579   27585   27600       1
   27576   27579   27588   27606       1   27576   27582   27591   27612       1
   27576   27582   27594   27618       1   27573   27561   27567   27576       1
   27570   27555   27567   27576       1   27564   27543   27561   27567       1
   27564   27543   27561   27573       1   27561   27567   27555   27570       1
   27558   27540   27555   27567       1   27558   27540   27555   27570       1
   27555   27567   27561   27573       1   27543   27534   27540   27558       1
   27540   27534   27543   27564       1   27534   27531   27537   27546       2
   27534   27531   27537   27549       2   27534   27531   27537   27552       2
   27534   27540   27555   27570       1   27534   27543   27561   27573       1
   27531   27534   27540   27558       1   27531   27534   27543   27564       1
   28404   28347   28398   28422       1   28401   28341   28398   28422       1
   28398   28422   28440   28488       2   28398   28422   28440   28491       2
   28398   28422   28440   28494       2   28395   28335   28389   28419       1
   28392   28329   28389   28419       1   28389   28419   28437   28479       2
   28389   28419   28437   28482       2   28389   28419   28437   28485       2
   28386   28323   28380   28416       1   28383   28317   28380   28416       1
   28380   28416   28434   28470       2   28380   28416   28434   28473       2
   28380   28416   28434   28476       2   28377   28311   28374   28413       1
   28374   28413   28431   28461       2   28374   28413   28431   28464       2
   28374   28413   28431   28467       2   28371   28305   28374   28413       1
   28368   28302   28362   28410       1   28365   28296   28362   28410       1
   28362   28410   28428   28452       2   28362   28410   28428   28455       2
   28362   28410   28428   28458       2   28359   28287   28353   28407       1
   28356   28281   28353   28407       1   28353   28407   28425   28443       2
   28353   28407   28425   28446       2   28353   28407   28425   28449       2
   28350   28278   28347   28398       1   28350   28278   28347   28404       1
   28347   28398   28341   28401       1   28344   28275   28341   28398       1
   28344   28275   28341   28401       1   28341   28398   28347   28404       1
   28338   28272   28335   28389       1   28338   28272   28335   28395       1
   28335   28389   28329   28392       1   28332   28269   28329   28389       1
   28332   28269   28329   28392       1   28329   28389   28335   28395       1
   28326   28266   28323   28380       1   28326   28266   28323   28386       1
   28323   28380   28317   28383       1   28320   28263   28317   28380       1
   28320   28263   28317   28383       1   28317   28380   28323   28386       1
   28314   28260   28311   28374       1   28314   28260   28311   28377       1
   28311   28374   28305   28371       1   28308   28257   28305   28371       1
   28308   28257   28305   28374       1   28305   28374   28311   28377       1
   28302   28362   28296   28365       1   28299   28254   28302   28362       1
   28299   28254   28302   28368       1   28296   28362   28302   28368       1
   28293   28251   28296   28362       1   28293   28251   28296   28365       1
   28290   28248   28287   28353       1   28290   28248   28287   28359       1
   28287   28353   28281   28356       1   28284   28245   28281   28353       1
   28284   28245   28281   28356       1   28281   28353   28287   28359       1
   28278   28239   28275   28344       1   28275   28239   28278   28350       1
   28272   28236   28269   28332       1   28269   28236   28272   28338       1
   28266   28230   28263   28320       1   28263   28230   28266   28326       1
   28260   28227   28257   28308       1   28257   28227   28260   28314       1
   28254   28224   28251   28293       1   28251   28224   28254   28299       1
   28248   28221   28245   28284       1   28245   28221   28248   28290       1
   28239   28275   28341   28401       1   28239   28278   28347   28404       1
   28236   28269   28329   28392       1   28236   28272   28335   28395       1
   28230   28263   28317   28383       1   28230   28266   28323   28386       1
   28227   28257   28305   28371       1   28227   28260   28311   28377       1
   28224   28251   28296   28365       1   28224   28254   28302   28368       1
   28221   28245   28281   28356       1   28221   28248   28287   28359       1
   28218   28185   28215   28242       1   28212   28182   28215   28242       1
   28212   28236   28269   28332       1   28212   28236   28272   28338       1
   28212   28239   28275   28344       1   28212   28239   28278   28350       1
   28209   28176   28206   28233       1   28203   28170   28206   28233       1
   28203   28227   28257   28308       1   28203   28227   28260   28314       1
   28203   28230   28263   28320       1   28203   28230   28266   28326       1
   28200   28221   28245   28284       1   28200   28221   28248   28290       1
   28200   28224   28251   28293       1   28200   28224   28254   28299       1
   28197   28158   28164   28200       1   28182   28215   28185   28218       1
   28179   28149   28182   28212       1   28179   28149   28182   28215       1
   28173   28143   28170   28203       1   28173   28143   28170   28206       1
   28170   28206   28176   28209       1   28167   28140   28164   28200       1
   28161   28137   28158   28164       1   28161   28137   28158   28197       1
   28158   28164   28140   28167       1   28152   28131   28149   28179       1
   28152   28146   28176   28209       1   28152   28185   28215   28242       1
   28149   28182   28215   28242       1   28146   28128   28143   28173       1
   28146   28152   28185   28218       1   28146   28176   28206   28233       1
   28143   28170   28206   28233       1   28140   28164   28158   28197       1
   28131   28152   28185   28218       1   28128   28146   28176   28209       1
   28125   28122   28137   28161       1   28122   28125   28140   28167       1
   28122   28137   28158   28197       1   28119   28098   28113   28134       1
   28116   28092   28113   28134       1   28113   28134   28155   28188       2
   28113   28134   28155   28191       2   28113   28134   28155   28194       2
   28110   28086   28104   28122       1   28107   28125   28140   28167       1
   28107   28128   28143   28173       1   28107   28131   28149   28179       1
   28104   28122   28137   28161       1   28101   28077   28098   28113       1
   28101   28077   28098   28119       1   28098   28113   28092   28116       1
   28095   28074   28092   28113       1   28095   28074   28092   28116       1
   28092   28113   28098   28119       1   28089   28071   28086   28104       1
   28089   28071   28086   28110       1   28083   28068   28080   28104       1
   28083   28068   28080   28107       1   28080   28104   28086   28110       1
   28077   28065   28074   28095       1   28074   28065   28077   28101       1
   28071   28062   28068   28083       1   28068   28062   28071   28089       1
   28065   28074   28092   28116       1   28065   28077   28098   28119       1
   28062   28071   28086   28110       1   28059   28062   28068   28083       1
   28059   28062   28071   28089       1   28059   28065   28074   28095       1
   28059   28065   28077   28101       1   28056   28044   28050   28059       1
   28053   28038   28050   28059       1   28047   28026   28044   28050       1
   28047   28026   28044   28056       1   28044   28050   28038   28053       1
   28041   28023   28038   28050       1   28041   28023   28038   28053       1
   28038   28050   28044   28056       1   28026   28017   28023   28041       1
   28023   28017   28026   28047       1   28017   28014   28020   28029       2
   28017   28014   28020   28032       2   28017   28014   28020   28035       2
   28017   28023   28038   28053       1   28017   28026   28044   28056       1
   28014   28017   28023   28041       1   28014   28017   28026   28047       1
   28887   28830   28881   28905       1   28884   28824   28881   28905       1
   28881   28905   28923   28971       2   28881   28905   28923   28974       2
   28881   28905   28923   28977       2   28878   28818   28872   28902       1
   28875   28812   28872   28902       1   28872   28902   28920   28962       2
   28872   28902   28920   28965       2   28872   28902   28920   28968       2
   28869   28806   28863   28899       1   28866   28800   28863   28899       1
   28863   28899   28917   28953       2   28863   28899   28917   28956       2
   28863   28899   28917   28959       2   28860   28794   28857   28896       1
   28857   28896   28914   28944       2   28857   28896   28914   28947       2
   28857   28896   28914   28950       2   28854   28788   28857   28896       1
   28851   28785   28845   28893       1   28848   28779   28845   28893       1
   28845   28893   28911   28935       2   28845   28893   28911   28938       2
   28845   28893   28911   28941       2   28842   28770   28836   28890       1
   28839   28764   28836   28890       1   28836   28890   28908   28926       2
   28836   28890   28908   28929       2   28836   28890   28908   28932       2
   28833   28761   28830   28881       1   28833   28761   28830   28887       1
   28830   28881   28824   28884       1   28827   28758   28824   28881       1
   28827   28758   28824   28884       1   28824   28881   28830   28887       1
   28821   28755   28818   28872       1   28821   28755   28818   28878       1
   28818   28872   28812   28875       1   28815   28752   28812   28872       1
   28815   28752   28812   28875       1   28812   28872   28818   28878       1
   28809   28749   28806   28863       1   28809   28749   28806   28869       1
   28806   28863   28800   28866       1   28803   28746   28800   28863       1
   28803   28746   28800   28866       1   28800   28863   28806   28869       1
   28797   28743   28794   28857       1   28797   28743   28794   28860       1
   28794   28857   28788   28854       1   28791   28740   28788   28854       1
   28791   28740   28788   28857       1   28788   28857   28794   28860       1
   28785   28845   28779   28848       1   28782   28737   28785   28845       1
   28782   28737   28785   28851       1   28779   28845   28785   28851       1
   28776   28734   28779   28845       1   28776   28734   28779   28848       1
   28773   28731   28770   28836       1   28773   28731   28770   28842       1
   28770   28836   28764   28839       1   28767   28728   28764   28836       1
   28767   28728   28764   28839       1   28764   28836   28770   28842       1
   28761   28722   28758   28827       1   28758   28722   28761   28833       1
   28755   28719   28752   28815       1   28752   28719   28755   28821       1
   28749   28713   28746   28803       1   28746   28713   28749   28809       1
   28743   28710   28740   28791       1   28740   28710   28743   28797       1
   28737   28707   28734   28776       1   28734   28707   28737   28782       1
   28731   28704   28728   28767       1   28728   28704   28731   28773       1
   28722   28758   28824   28884       1   28722   28761   28830   28887       1
   28719   28752   28812   28875       1   28719   28755   28818   28878       1
   28713   28746   28800   28866       1   28713   28749   28806   28869       1
   28710   28740   28788   28854       1   28710   28743   28794   28860       1
   28707   28734   28779   28848       1   28707   28737   28785   28851       1
   28704   28728   28764   28839       1   28704   28731   28770   28842       1
   28701   28668   28698   28725       1   28695   28665   28698   28725       1
   28695   28719   28752   28815       1   28695   28719   28755   28821       1
   28695   28722   28758   28827       1   28695   28722   28761   28833       1
   28692   28659   28689   28716       1   28686   28653   28689   28716       1
   28686   28710   28740   28791       1   28686   28710   28743   28797       1
   28686   28713   28746   28803       1   28686   28713   28749   28809       1
   28683   28704   28728   28767       1   28683   28704   28731   28773       1
   28683   28707   28734   28776       1   28683   28707   28737   28782       1
   28680   28641   28647   28683       1   28665   28698   28668   28701       1
   28662   28632   28665   28695       1   28662   28632   28665   28698       1
   28656   28626   28653   28686       1   28656   28626   28653   28689       1
   28653   28689   28659   28692       1   28650   28623   28647   28683       1
   28644   28620   28641   28647       1   28644   28620   28641   28680       1
   28641   28647   28623   28650       1   28635   28614   28632   28662       1
   28635   28629   28659   28692       1   28635   28668   28698   28725       1
   28632   28665   28698   28725       1   28629   28611   28626   28656       1
   28629   28635   28668   28701       1   28629   28659   28689   28716       1
   28626   28653   28689   28716       1   28623   28647   28641   28680       1
   28614   28635   28668   28701       1   28611   28629   28659   28692       1
   28608   28605   28620   28644       1   28605   28608   28623   28650       1
   28605   28620   28641   28680       1   28602   28581   28596   28617       1
   28599   28575   28596   28617       1   28596   28617   28638   28671       2
   28596   28617   28638   28674       2   28596   28617   28638   28677       2
   28593   28569   28587   28605       1   28590   28608   28623   28650       1
   28590   28611   28626   28656       1   28590   28614   28632   28662       1
   28587   28605   28620   28644       1   28584   28560   28581   28596       1
   28584   28560   28581   28602       1   28581   28596   28575   28599       1
   28578   28557   28575   28596       1   28578   28557   28575   28599       1
   28575   28596   28581   28602       1   28572   28554   28569   28587       1
   28572   28554   28569   28593       1   28566   28551   28563   28587       1
   28566   28551   28563   28590       1   28563   28587   28569   28593       1
   28560   28548   28557   28578       1   28557   28548   28560   28584       1
   28554   28545   28551   28566       1   28551   28545   28554   28572       1
   28548   28557   28575   28599       1   28548   28560   28581   28602       1
   28545   28554   28569   28593       1   28542   28545   28551   28566       1
   28542   28545   28554   28572       1   28542   28548   28557   28578       1
   28542   28548   28560   28584       1   28539   28527   28533   28542       1
   28536   28521   28533   28542       1   28530   28509   28527   28533       1
   28530   28509   28527   28539       1   28527   28533   28521   28536       1
   28524   28506   28521   28533       1   28524   28506   28521   28536       1
   28521   28533   28527   28539       1   28509   28500   28506   28524       1
   28506   28500   28509   28530       1   28500   28497   28503   28512       2
   28500   28497   28503   28515       2   28500   28497   28503   28518       2
   28500   28506   28521   28536       1   28500   28509   28527   28539       1
   28497   28500   28506   28524       1   28497   28500   28509   28530       1
   29370   29313   29364   29388       1   29367   29307   29364   29388       1
   29364   29388   29406   29454       2   29364   29388   29406   29457       2
   29364   29388   29406   29460       2   29361   29301   29355   29385       1
   29358   29295   29355   29385       1   29355   29385   29403   29445       2
   29355   29385   29403   29448       2   29355   29385   29403   29451       2
   29352   29289   29346   29382       1   29349   29283   29346   29382       1
   29346   29382   29400   29436       2   29346   29382   29400   29439       2
   29346   29382   29400   29442       2   29343   29277   29340   29379       1
   29340   29379   29397   29427       2   29340   29379   29397   29430       2
   29340   29379   29397   29433       2   29337   29271   29340   29379       1
   29334   29268   29328   29376       1   29331   29262   29328   29376       1
   29328   29376   29394   29418       2   29328   29376   29394   29421       2
   29328   29376   29394   29424       2   29325   29253   29319   29373       1
   29322   29247   29319   29373       1   29319   29373   29391   29409       2
   29319   29373   29391   29412       2   29319   29373   29391   29415       2
   29316   29244   29313   29364       1   29316   29244   29313   29370       1
   29313   29364   29307   29367       1   29310   29241   29307   29364       1
   29310   29241   29307   29367       1   29307   29364   29313   29370       1
   29304   29238   29301   29355       1   29304   29238   29301   29361       1
   29301   29355   29295   29358       1   29298   29235   29295   29355       1
   29298   29235   29295   29358       1   29295   29355   29301   29361       1
   29292   29232   29289   29346       1   29292   29232   29289   29352       1
   29289   29346   29283   29349       1   29286   29229   29283   29346       1
   29286   29229   29283   29349       1   29283   29346   29289   29352       1
   29280   29226   29277   29340       1   29280   29226   29277   29343       1
   29277   29340   29271   29337       1   29274   29223   29271   29337       1
   29274   29223   29271   29340       1   29271   29340   29277   29343       1
   29268   29328   29262   29331       1   29265   29220   29268   29328       1
   29265   29220   29268   29334       1   29262   29328   29268   29334       1
   29259   29217   29262   29328       1   29259   29217   29262   29331       1
   29256   29214   29253   29319       1   29256   29214   29253   29325       1
   29253   29319   29247   29322       1   29250   29211   29247   29319       1
   29250   29211   29247   29322       1   29247   29319   29253   29325       1
   29244   29205   29241   29310       1   29241   29205   29244   29316       1
   29238   29202   29235   29298       1   29235   29202   29238   29304       1
   29232   29196   29229   29286       1   29229   29196   29232   29292       1
   29226   29193   29223   29274       1   29223   29193   29226   29280       1
   29220   29190   29217   29259       1   29217   29190   29220   29265       1
   29214   29187   29211   29250       1   29211   29187   29214   29256       1
   29205   29241   29307   29367       1   29205   29244   29313   29370       1
   29202   29235   29295   29358       1   29202   29238   29301   29361       1
   29196   29229   29283   29349       1   29196   29232   29289   29352       1
   29193   29223   29271   29337       1   29193   29226   29277   29343       1
   29190   29217   29262   29331       1   29190   29220   29268   29334       1
   29187   29211   29247   29322       1   29187   29214   29253   29325       1
   29184   29151   29181   29208       1   29178   29148   29181   29208       1
   29178   29202   29235   29298       1   29178   29202   29238   29304       1
   29178   29205   29241   29310       1   29178   29205   29244   29316       1
   29175   29142   29172   29199       1   29169   29136   29172   29199       1
   29169   29193   29223   29274       1   29169   29193   29226   29280       1
   29169   29196   29229   29286       1   29169   29196   29232   29292       1
   29166   29187   29211   29250       1   29166   29187   29214   29256       1
   29166   29190   29217   29259       1   29166   29190   29220   29265       1
   29163   29124   29130   29166       1   29148   29181   29151   29184       1
   29145   29115   29148   29178       1   29145   29115   29148   29181       1
   29139   29109   29136   29169       1   29139   29109   29136   29172       1
   29136   29172   29142   29175       1   29133   29106   29130   29166       1
   29127   29103   29124   29130       1   29127   29103   29124   29163       1
   29124   29130   29106   29133       1   29118   29097   29115   29145       1
   29118   29112   29142   29175       1   29118   29151   29181   29208       1
   29115   29148   29181   29208       1   29112   29094   29109   29139       1
   29112   29118   29151   29184       1   29112   29142   29172   29199       1
   29109   29136   29172   29199       1   29106   29130   29124   29163       1
   29097   29118   29151   29184       1   29094   29112   29142   29175       1
   29091   29088   29103   29127       1   29088   29091   29106   29133       1
   29088   29103   29124   29163       1   29085   29064   29079   29100       1
   29082   29058   29079   29100       1   29079   29100   29121   29154       2
   29079   29100   29121   29157       2   29079   29100   29121   29160       2
   29076   29052   29070   29088       1   29073   29091   29106   29133       1
   29073   29094   29109   29139       1   29073   29097   29115   29145       1
   29070   29088   29103   29127       1   29067   29043   29064   29079       1
   29067   29043   29064   29085       1   29064   29079   29058   29082       1
   29061   29040   29058   29079       1   29061   29040   29058   29082       1
   29058   29079   29064   29085       1   29055   29037   29052   29070       1
   29055   29037   29052   29076       1   29049   29034   29046   29070       1
   29049   29034   29046   29073       1   29046   29070   29052   29076       1
   29043   29031   29040   29061       1   29040   29031   29043   29067       1
   29037   29028   29034   29049       1   29034   29028   29037   29055       1
   29031   29040   29058   29082       1   29031   29043   29064   29085       1
   29028   29037   29052   29076       1   29025   29028   29034   29049       1
   29025   29028   29037   29055       1   29025   29031   29040   29061       1
   29025   29031   29043   29067       1   29022   29010   29016   29025       1
   29019   29004   29016   29025       1   29013   28992   29010   29016       1
   29013   28992   29010   29022       1   29010   29016   29004   29019       1
   29007   28989   29004   29016       1   29007   28989   29004   29019       1
   29004   29016   29010   29022       1   28992   28983   28989   29007       1
   28989   28983   28992   29013       1   28983   28980   28986   28995       2
   28983   28980   28986   28998       2   28983   28980   28986   29001       2
   28983   28989   29004   29019       1   28983   28992   29010   29022       1
   28980   28983   28989   29007       1   28980   28983   28992   29013       1
   29853   29796   29847   29871       1   29850   29790   29847   29871       1
   29847   29871   29889   29937       2   29847   29871   29889   29940       2
   29847   29871   29889   29943       2   29844   29784   29838   29868       1
   29841   29778   29838   29868       1   29838   29868   29886   29928       2
   29838   29868   29886   29931       2   29838   29868   29886   29934       2
   29835   29772   29829   29865       1   29832   29766   29829   29865       1
   29829   29865   29883   29919       2   29829   29865   29883   29922       2
   29829   29865   29883   29925       2   29826   29760   29823   29862       1
   29823   29862   29880   29910       2   29823   29862   29880   29913       2
   29823   29862   29880   29916       2   29820   29754   29823   29862       1
   29817   29751   29811   29859       1   29814   29745   29811   29859       1
   29811   29859   29877   29901       2   29811   29859   29877   29904       2
   29811   29859   29877   29907       2   29808   29736   29802   29856       1
   29805   29730   29802   29856       1   29802   29856   29874   29892       2
   29802   29856   29874   29895       2   29802   29856   29874   29898       2
   29799   29727   29796   29847       1   29799   29727   29796   29853       1
   29796   29847   29790   29850       1   29793   29724   29790   29847       1
   29793   29724   29790   29850       1   29790   29847   29796   29853       1
   29787   29721   29784   29838       1   29787   29721   29784   29844       1
   29784   29838   29778   29841       1   29781   29718   29778   29838       1
   29781   29718   29778   29841       1   29778   29838   29784   29844       1
   29775   29715   29772   29829       1   29775   29715   29772   29835       1
   29772   29829   29766   29832       1   29769   29712   29766   29829       1
   29769   29712   29766   29832       1   29766   29829   29772   29835       1
   29763   29709   29760   29823       1   29763   29709   29760   29826       1
   29760   29823   29754   29820       1   29757   29706   29754   29820       1
   29757   29706   29754   29823       1   29754   29823   29760   29826       1
   29751   29811   29745   29814       1   29748   29703   29751   29811       1
   29748   29703   29751   29817       1   29745   29811   29751   29817       1
   29742   29700   29745   29811       1   29742   29700   29745   29814       1
   29739   29697   29736   29802       1   29739   29697   29736   29808       1
   29736   29802   29730   29805       1   29733   29694   29730   29802       1
   29733   29694   29730   29805       1   29730   29802   29736   29808       1
   29727   29688   29724   29793       1   29724   29688   29727   29799       1
   29721   29685   29718   29781       1   29718   29685   29721   29787       1
   29715   29679   29712   29769       1   29712   29679   29715   29775       1
   29709   29676   29706   29757       1   29706   29676   29709   29763       1
   29703   29673   29700   29742       1   29700   29673   29703   29748       1
   29697   29670   29694   29733       1   29694   29670   29697   29739       1
   29688   29724   29790   29850       1   29688   29727   29796   29853       1
   29685   29718   29778   29841       1   29685   29721   29784   29844       1
   29679   29712   29766   29832       1   29679   29715   29772   29835       1
   29676   29706   29754   29820       1   29676   29709   29760   29826       1
   29673   29700   29745   29814       1   29673   29703   29751   29817       1
   29670   29694   29730   29805       1   29670   29697   29736   29808       1
   29667   29634   29664   29691       1   29661   29631   29664   29691       1
   29661   29685   29718   29781       1   29661   29685   29721   29787       1
   29661   29688   29724   29793       1   29661   29688   29727   29799       1
   29658   29625   29655   29682       1   29652   29619   29655   29682       1
   29652   29676   29706   29757       1   29652   29676   29709   29763       1
   29652   29679   29712   29769       1   29652   29679   29715   29775       1
   29649   29670   29694   29733       1   29649   29670   29697   29739       1
   29649   29673   29700   29742       1   29649   29673   29703   29748       1
   29646   29607   29613   29649       1   29631   29664   29634   29667       1
   29628   29598   29631   29661       1   29628   29598   29631   29664       1
   29622   29592   29619   29652       1   29622   29592   29619   29655       1
   29619   29655   29625   29658       1   29616   29589   29613   29649       1
   29610   29586   29607   29613       1   29610   29586   29607   29646       1
   29607   29613   29589   29616       1   29601   29580   29598   29628       1
   29601   29595   29625   29658       1   29601   29634   29664   29691       1
   29598   29631   29664   29691       1   29595   29577   29592   29622       1
   29595   29601   29634   29667       1   29595   29625   29655   29682       1
   29592   29619   29655   29682       1   29589   29613   29607   29646       1
   29580   29601   29634   29667       1   29577   29595   29625   29658       1
   29574   29571   29586   29610       1   29571   29574   29589   29616       1
   29571   29586   29607   29646       1   29568   29547   29562   29583       1
   29565   29541   29562   29583       1   29562   29583   29604   29637       2
   29562   29583   29604   29640       2   29562   29583   29604   29643       2
   29559   29535   29553   29571       1   29556   29574   29589   29616       1
   29556   29577   29592   29622       1   29556   29580   29598   29628       1
   29553   29571   29586   29610       1   29550   29526   29547   29562       1
   29550   29526   29547   29568       1   29547   29562   29541   29565       1
   29544   29523   29541   29562       1   29544   29523   29541   29565       1
   29541   29562   29547   29568       1   29538   29520   29535   29553       1
   29538   29520   29535   29559       1   29532   29517   29529   29553       1
   29532   29517   29529   29556       1   29529   29553   29535   29559       1
   29526   29514   29523   29544       1   29523   29514   29526   29550       1
   29520   29511   29517   29532       1   29517   29511   29520   29538       1
   29514   29523   29541   29565       1   29514   29526   29547   29568       1
   29511   29520   29535   29559       1   29508   29511   29517   29532       1
   29508   29511   29520   29538       1   29508   29514   29523   29544       1
   29508   29514   29526   29550       1   29505   29493   29499   29508       1
   29502   29487   29499   29508       1   29496   29475   29493   29499       1
   29496   29475   29493   29505       1   29493   29499   29487   29502       1
   29490   29472   29487   29499       1   29490   29472   29487   29502       1
   29487   29499   29493   29505       1   29475   29466   29472   29490       1
   29472   29466   29475   29496       1   29466   29463   29469   29478       2
   29466   29463   29469   29481       2   29466   29463   29469   29484       2
   29466   29472   29487   29502       1   29466   29475   29493   29505       1
   29463   29466   29472   29490       1   29463   29466   29475   29496       1
   30336   30279   30330   30354       1   30333   30273   30330   30354       1
   30330   30354   30372   30420       2   30330   30354   30372   30423       2
   30330   30354   30372   30426       2   30327   30267   30321   30351       1
   30324   30261   30321   30351       1   30321   30351   30369   30411       2
   30321   30351   30369   30414       2   30321   30351   30369   30417       2
   30318   30255   30312   30348       1   30315   30249   30312   30348       1
   30312   30348   30366   30402       2   30312   30348   30366   30405       2
   30312   30348   30366   30408       2   30309   30243   30306   30345       1
   30306   30345   30363   30393       2   30306   30345   30363   30396       2
   30306   30345   30363   30399       2   30303   30237   30306   30345       1
   30300   30234   30294   30342       1   30297   30228   30294   30342       1
   30294   30342   30360   30384       2   30294   30342   30360   30387       2
   30294   30342   30360   30390       2   30291   30219   30285   30339       1
   30288   30213   30285   30339       1   30285   30339   30357   30375       2
   30285   30339   30357   30378       2   30285   30339   30357   30381       2
   30282   30210   30279   30330       1   30282   30210   30279   30336       1
   30279   30330   30273   30333       1   30276   30207   30273   30330       1
   30276   30207   30273   30333       1   30273   30330   30279   30336       1
   30270   30204   30267   30321       1   30270   30204   30267   30327       1
   30267   30321   30261   30324       1   30264   30201   30261   30321       1
   30264   30201   30261   30324       1   30261   30321   30267   30327       1
   30258   30198   30255   30312       1   30258   30198   30255   30318       1
   30255   30312   30249   30315       1   30252   30195   30249   30312       1
   30252   30195   30249   30315       1   30249   30312   30255   30318       1
   30246   30192   30243   30306       1   30246   30192   30243   30309       1
   30243   30306   30237   30303       1   30240   30189   30237   30303       1
   30240   30189   30237   30306       1   30237   30306   30243   30309       1
   30234   30294   30228   30297       1   30231   30186   30234   30294       1
   30231   30186   30234   30300       1   30228   30294   30234   30300       1
   30225   30183   30228   30294       1   30225   30183   30228   30297       1
   30222   30180   30219   30285       1   30222   30180   30219   30291       1
   30219   30285   30213   30288       1   30216   30177   30213   30285       1
   30216   30177   30213   30288       1   30213   30285   30219   30291       1
   30210   30171   30207   30276       1   30207   30171   30210   30282       1
   30204   30168   30201   30264       1   30201   30168   30204   30270       1
   30198   30162   30195   30252       1   30195   30162   30198   30258       1
   30192   30159   30189   30240       1   30189   30159   30192   30246       1
   30186   30156   30183   30225       1   30183   30156   30186   30231       1
   30180   30153   30177   30216       1   30177   30153   30180   30222       1
   30171   30207   30273   30333       1   30171   30210   30279   30336       1
   30168   30201   30261   30324       1   30168   30204   30267   30327       1
   30162   30195   30249   30315       1   30162   30198   30255   30318       1
   30159   30189   30237   30303       1   30159   30192   30243   30309       1
   30156   30183   30228   30297       1   30156   30186   30234   30300       1
   30153   30177   30213   30288       1   30153   30180   30219   30291       1
   30150   30117   30147   30174       1   30144   30114   30147   30174       1
   30144   30168   30201   30264       1   30144   30168   30204   30270       1
   30144   30171   30207   30276       1   30144   30171   30210   30282       1
   30141   30108   30138   30165       1   30135   30102   30138   30165       1
   30135   30159   30189   30240       1   30135   30159   30192   30246       1
   30135   30162   30195   30252       1   30135   30162   30198   30258       1
   30132   30153   30177   30216       1   30132   30153   30180   30222       1
   30132   30156   30183   30225       1   30132   30156   30186   30231       1
   30129   30090   30096   30132       1   30114   30147   30117   30150       1
   30111   30081   30114   30144       1   30111   30081   30114   30147       1
   30105   30075   30102   30135       1   30105   30075   30102   30138       1
   30102   30138   30108   30141       1   30099   30072   30096   30132       1
   30093   30069   30090   30096       1   30093   30069   30090   30129       1
   30090   30096   30072   30099       1   30084   30063   30081   30111       1
   30084   30078   30108   30141       1   30084   30117   30147   30174       1
   30081   30114   30147   30174       1   30078   30060   30075   30105       1
   30078   30084   30117   30150       1   30078   30108   30138   30165       1
   30075   30102   30138   30165       1   30072   30096   30090   30129       1
   30063   30084   30117   30150       1   30060   30078   30108   30141       1
   30057   30054   30069   30093       1   30054   30057   30072   30099       1
   30054   30069   30090   30129       1   30051   30030   30045   30066       1
   30048   30024   30045   30066       1   30045   30066   30087   30120       2
   30045   30066   30087   30123       2   30045   30066   30087   30126       2
   30042   30018   30036   30054       1   30039   30057   30072   30099       1
   30039   30060   30075   30105       1   30039   30063   30081   30111       1
   30036   30054   30069   30093       1   30033   30009   30030   30045       1
   30033   30009   30030   30051       1   30030   30045   30024   30048       1
   30027   30006   30024   30045       1   30027   30006   30024   30048       1
   30024   30045   30030   30051       1   30021   30003   30018   30036       1
   30021   30003   30018   30042       1   30015   30000   30012   30036       1
   30015   30000   30012   30039       1   30012   30036   30018   30042       1
   30009   29997   30006   30027       1   30006   29997   30009   30033       1
   30003   29994   30000   30015       1   30000   29994   30003   30021       1
   29997   30006   30024   30048       1   29997   30009   30030   30051       1
   29994   30003   30018   30042       1   29991   29994   30000   30015       1
   29991   29994   30003   30021       1   29991   29997   30006   30027       1
   29991   29997   30009   30033       1   29988   29976   29982   29991       1
   29985   29970   29982   29991       1   29979   29958   29976   29982       1
   29979   29958   29976   29988       1   29976   29982   29970   29985       1
   29973   29955   29970   29982       1   29973   29955   29970   29985       1
   29970   29982   29976   29988       1   29958   29949   29955   29973       1
   29955   29949   29958   29979       1   29949   29946   29952   29961       2
   29949   29946   29952   29964       2   29949   29946   29952   29967       2
   29949   29955   29970   29985       1   29949   29958   29976   29988       1
   29946   29949   29955   29973       1   29946   29949   29958   29979       1
   30819   30762   30813   30837       1   30816   30756   30813   30837       1
   30813   30837   30855   30903       2   30813   30837   30855   30906       2
   30813   30837   30855   30909       2   30810   30750   30804   30834       1
   30807   30744   30804   30834       1   30804   30834   30852   30894       2
   30804   30834   30852   30897       2   30804   30834   30852   30900       2
   30801   30738   30795   30831       1   30798   30732   30795   30831       1
   30795   30831   30849   30885       2   30795   30831   30849   30888       2
   30795   30831   30849   30891       2   30792   30726   30789   30828       1
   30789   30828   30846   30876       2   30789   30828   30846   30879       2
   30789   30828   30846   30882       2   30786   30720   30789   30828       1
   30783   30717   30777   30825       1   30780   30711   30777   30825       1
   30777   30825   30843   30867       2   30777   30825   30843   30870       2
   30777   30825   30843   30873       2   30774   30702   30768   30822       1
   30771   30696   30768   30822       1   30768   30822   30840   30858       2
   30768   30822   30840   30861       2   30768   30822   30840   30864       2
   30765   30693   30762   30813       1   30765   30693   30762   30819       1
   30762   30813   30756   30816       1   30759   30690   30756   30813       1
   30759   30690   30756   30816       1   30756   30813   30762   30819       1
   30753   30687   30750   30804       1   30753   30687   30750   30810       1
   30750   30804   30744   30807       1   30747   30684   30744   30804       1
   30747   30684   30744   30807       1   30744   30804   30750   30810       1
   30741   30681   30738   30795       1   30741   30681   30738   30801       1
   30738   30795   30732   30798       1   30735   30678   30732   30795       1
   30735   30678   30732   30798       1   30732   30795   30738   30801       1
   30729   30675   30726   30789       1   30729   30675   30726   30792       1
   30726   30789   30720   30786       1   30723   30672   30720   30786       1
   30723   30672   30720   30789       1   30720   30789   30726   30792       1
   30717   30777   30711   30780       1   30714   30669   30717   30777       1
   30714   30669   30717   30783       1   30711   30777   30717   30783       1
   30708   30666   30711   30777       1   30708   30666   30711   30780       1
   30705   30663   30702   30768       1   30705   30663   30702   30774       1
   30702   30768   30696   30771       1   30699   30660   30696   30768       1
   30699   30660   30696   30771       1   30696   30768   30702   30774       1
   30693   30654   30690   30759       1   30690   30654   30693   30765       1
   30687   30651   30684   30747       1   30684   30651   30687   30753       1
   30681   30645   30678   30735       1   30678   30645   30681   30741       1
   30675   30642   30672   30723       1   30672   30642   30675   30729       1
   30669   30639   30666   30708       1   30666   30639   30669   30714       1
   30663   30636   30660   30699       1   30660   30636   30663   30705       1
   30654   30690   30756   30816       1   30654   30693   30762   30819       1
   30651   30684   30744   30807       1   30651   30687   30750   30810       1
   30645   30678   30732   30798       1   30645   30681   30738   30801       1
   30642   30672   30720   30786       1   30642   30675   30726   30792       1
   30639   30666   30711   30780       1   30639   30669   30717   30783       1
   30636   30660   30696   30771       1   30636   30663   30702   30774       1
   30633   30600   30630   30657       1   30627   30597   30630   30657       1
   30627   30651   30684   30747       1   30627   30651   30687   30753       1
   30627   30654   30690   30759       1   30627   30654   30693   30765       1
   30624   30591   30621   30648       1   30618   30585   30621   30648       1
   30618   30642   30672   30723       1   30618   30642   30675   30729       1
   30618   30645   30678   30735       1   30618   30645   30681   30741       1
   30615   30636   30660   30699       1   30615   30636   30663   30705       1
   30615   30639   30666   30708       1   30615   30639   30669   30714       1
   30612   30573   30579   30615       1   30597   30630   30600   30633       1
   30594   30564   30597   30627       1   30594   30564   30597   30630       1
   30588   30558   30585   30618       1   30588   30558   30585   30621       1
   30585   30621   30591   30624       1   30582   30555   30579   30615       1
   30576   30552   30573   30579       1   30576   30552   30573   30612       1
   30573   30579   30555   30582       1   30567   30546   30564   30594       1
   30567   30561   30591   30624       1   30567   30600   30630   30657       1
   30564   30597   30630   30657       1   30561   30543   30558   30588       1
   30561   30567   30600   30633       1   30561   30591   30621   30648       1
   30558   30585   30621   30648       1   30555   30579   30573   30612       1
   30546   30567   30600   30633       1   30543   30561   30591   30624       1
   30540   30537   30552   30576       1   30537   30540   30555   30582       1
   30537   30552   30573   30612       1   30534   30513   30528   30549       1
   30531   30507   30528   30549       1   30528   30549   30570   30603       2
   30528   30549   30570   30606       2   30528   30549   30570   30609       2
   30525   30501   30519   30537       1   30522   30540   30555   30582       1
   30522   30543   30558   30588       1   30522   30546   30564   30594       1
   30519   30537   30552   30576       1   30516   30492   30513   30528       1
   30516   30492   30513   30534       1   30513   30528   30507   30531       1
   30510   30489   30507   30528       1   30510   30489   30507   30531       1
   30507   30528   30513   30534       1   30504   30486   30501   30519       1
   30504   30486   30501   30525       1   30498   30483   30495   30519       1
   30498   30483   30495   30522       1   30495   30519   30501   30525       1
   30492   30480   30489   30510       1   30489   30480   30492   30516       1
   30486   30477   30483   30498       1   30483   30477   30486   30504       1
   30480   30489   30507   30531       1   30480   30492   30513   30534       1
   30477   30486   30501   30525       1   30474   30477   30483   30498       1
   30474   30477   30486   30504       1   30474   30480   30489   30510       1
   30474   30480   30492   30516       1   30471   30459   30465   30474       1
   30468   30453   30465   30474       1   30462   30441   30459   30465       1
   30462   30441   30459   30471       1   30459   30465   30453   30468       1
   30456   30438   30453   30465       1   30456   30438   30453   30468       1
   30453   30465   30459   30471       1   30441   30432   30438   30456       1
   30438   30432   30441   30462       1   30432   30429   30435   30444       2
   30432   30429   30435   30447       2   30432   30429   30435   30450       2
   30432   30438   30453   30468       1   30432   30441   30459   30471       1
   30429   30432   30438   30456       1   30429   30432   30441   30462       1
   31302   31245   31296   31320       1   31299   31239   31296   31320       1
   31296   31320   31338   31386       2   31296   31320   31338   31389       2
   31296   31320   31338   31392       2   31293   31233   31287   31317       1
   31290   31227   31287   31317       1   31287   31317   31335   31377       2
   31287   31317   31335   31380       2   31287   31317   31335   31383       2
   31284   31221   31278   31314       1   31281   31215   31278   31314       1
   31278   31314   31332   31368       2   31278   31314   31332   31371       2
   31278   31314   31332   31374       2   31275   31209   31272   31311       1
   31272   31311   31329   31359       2   31272   31311   31329   31362       2
   31272   31311   31329   31365       2   31269   31203   31272   31311       1
   31266   31200   31260   31308       1   31263   31194   31260   31308       1
   31260   31308   31326   31350       2   31260   31308   31326   31353       2
   31260   31308   31326   31356       2   31257   31185   31251   31305       1
   31254   31179   31251   31305       1   31251   31305   31323   31341       2
   31251   31305   31323   31344       2   31251   31305   31323   31347       2
   31248   31176   31245   31296       1   31248   31176   31245   31302       1
   31245   31296   31239   31299       1   31242   31173   31239   31296       1
   31242   31173   31239   31299       1   31239   31296   31245   31302       1
   31236   31170   31233   31287       1   31236   31170   31233   31293       1
   31233   31287   31227   31290       1   31230   31167   31227   31287       1
   31230   31167   31227   31290       1   31227   31287   31233   31293       1
   31224   31164   31221   31278       1   31224   31164   31221   31284       1
   31221   31278   31215   31281       1   31218   31161   31215   31278       1
   31218   31161   31215   31281       1   31215   31278   31221   31284       1
   31212   31158   31209   31272       1   31212   31158   31209   31275       1
   31209   31272   31203   31269       1   31206   31155   31203   31269       1
   31206   31155   31203   31272       1   31203   31272   31209   31275       1
   31200   31260   31194   31263       1   31197   31152   31200   31260       1
   31197   31152   31200   31266       1   31194   31260   31200   31266       1
   31191   31149   31194   31260       1   31191   31149   31194   31263       1
   31188   31146   31185   31251       1   31188   31146   31185   31257       1
   31185   31251   31179   31254       1   31182   31143   31179   31251       1
   31182   31143   31179   31254       1   31179   31251   31185   31257       1
   31176   31137   31173   31242       1   31173   31137   31176   31248       1
   31170   31134   31167   31230       1   31167   31134   31170   31236       1
   31164   31128   31161   31218       1   31161   31128   31164   31224       1
   31158   31125   31155   31206       1   31155   31125   31158   31212       1
   31152   31122   31149   31191       1   31149   31122   31152   31197       1
   31146   31119   31143   31182       1   31143   31119   31146   31188       1
   31137   31173   31239   31299       1   31137   31176   31245   31302       1
   31134   31167   31227   31290       1   31134   31170   31233   31293       1
   31128   31161   31215   31281       1   31128   31164   31221   31284       1
   31125   31155   31203   31269       1   31125   31158   31209   31275       1
   31122   31149   31194   31263       1   31122   31152   31200   31266       1
   31119   31143   31179   31254       1   31119   31146   31185   31257       1
   31116   31083   31113   31140       1   31110   31080   31113   31140       1
   31110   31134   31167   31230       1   31110   31134   31170   31236       1
   31110   31137   31173   31242       1   31110   31137   31176   31248       1
   31107   31074   31104   31131       1   31101   31068   31104   31131       1
   31101   31125   31155   31206       1   31101   31125   31158   31212       1
   31101   31128   31161   31218       1   31101   31128   31164   31224       1
   31098   31119   31143   31182       1   31098   31119   31146   31188       1
   31098   31122   31149   31191       1   31098   31122   31152   31197       1
   31095   31056   31062   31098       1   31080   31113   31083   31116       1
   31077   31047   31080   31110       1   31077   31047   31080   31113       1
   31071   31041   31068   31101       1   31071   31041   31068   31104       1
   31068   31104   31074   31107       1   31065   31038   31062   31098       1
   31059   31035   31056   31062       1   31059   31035   31056   31095       1
   31056   31062   31038   31065       1   31050   31029   31047   31077       1
   31050   31044   31074   31107       1   31050   31083   31113   31140       1
   31047   31080   31113   31140       1   31044   31026   31041   31071       1
   31044   31050   31083   31116       1   31044   31074   31104   31131       1
   31041   31068   31104   31131       1   31038   31062   31056   31095       1
   31029   31050   31083   31116       1   31026   31044   31074   31107       1
   31023   31020   31035   31059       1   31020   31023   31038   31065       1
   31020   31035   31056   31095       1   31017   30996   31011   31032       1
   31014   30990   31011   31032       1   31011   31032   31053   31086       2
   31011   31032   31053   31089       2   31011   31032   31053   31092       2
   31008   30984   31002   31020       1   31005   31023   31038   31065       1
   31005   31026   31041   31071       1   31005   31029   31047   31077       1
   31002   31020   31035   31059       1   30999   30975   30996   31011       1
   30999   30975   30996   31017       1   30996   31011   30990   31014       1
   30993   30972   30990   31011       1   30993   30972   30990   31014       1
   30990   31011   30996   31017       1   30987   30969   30984   31002       1
   30987   30969   30984   31008       1   30981   30966   30978   31002       1
   30981   30966   30978   31005       1   30978   31002   30984   31008       1
   30975   30963   30972   30993       1   30972   30963   30975   30999       1
   30969   30960   30966   30981       1   30966   30960   30969   30987       1
   30963   30972   30990   31014       1   30963   30975   30996   31017       1
   30960   30969   30984   31008       1   30957   30960   30966   30981       1
   30957   30960   30969   30987       1   30957   30963   30972   30993       1
   30957   30963   30975   30999       1   30954   30942   30948   30957       1
   30951   30936   30948   30957       1   30945   30924   30942   30948       1
   30945   30924   30942   30954       1   30942   30948   30936   30951       1
   30939   30921   30936   30948       1   30939   30921   30936   30951       1
   30936   30948   30942   30954       1   30924   30915   30921   30939       1
   30921   30915   30924   30945       1   30915   30912   30918   30927       2
   30915   30912   30918   30930       2   30915   30912   30918   30933       2
   30915   30921   30936   30951       1   30915   30924   30942   30954       1
   30912   30915   30921   30939       1   30912   30915   30924   30945       1
   31785   31728   31779   31803       1   31782   31722   31779   31803       1
   31779   31803   31821   31869       2   31779   31803   31821   31872       2
   31779   31803   31821   31875       2   31776   31716   31770   31800       1
   31773   31710   31770   31800       1   31770   31800   31818   31860       2
   31770   31800   31818   31863       2   31770   31800   31818   31866       2
   31767   31704   31761   31797       1   31764   31698   31761   31797       1
   31761   31797   31815   31851       2   31761   31797   31815   31854       2
   31761   31797   31815   31857       2   31758   31692   31755   31794       1
   31755   31794   31812   31842       2   31755   31794   31812   31845       2
   31755   31794   31812   31848       2   31752   31686   31755   31794       1
   31749   31683   31743   31791       1   31746   31677   31743   31791       1
   31743   31791   31809   31833       2   31743   31791   31809   31836       2
   31743   31791   31809   31839       2   31740   31668   31734   31788       1
   31737   31662   31734   31788       1   31734   31788   31806   31824       2
   31734   31788   31806   31827       2   31734   31788   31806   31830       2
   31731   31659   31728   31779       1   31731   31659   31728   31785       1
   31728   31779   31722   31782       1   31725   31656   31722   31779       1
   31725   31656   31722   31782       1   31722   31779   31728   31785       1
   31719   31653   31716   31770       1   31719   31653   31716   31776       1
   31716   31770   31710   31773       1   31713   31650   31710   31770       1
   31713   31650   31710   31773       1   31710   31770   31716   31776       1
   31707   31647   31704   31761       1   31707   31647   31704   31767       1
   31704   31761   31698   31764       1   31701   31644   31698   31761       1
   31701   31644   31698   31764       1   31698   31761   31704   31767       1
   31695   31641   31692   31755       1   31695   31641   31692   31758       1
   31692   31755   31686   31752       1   31689   31638   31686   31752       1
   31689   31638   31686   31755       1   31686   31755   31692   31758       1
   31683   31743   31677   31746       1   31680   31635   31683   31743       1
   31680   31635   31683   31749       1   31677   31743   31683   31749       1
   31674   31632   31677   31743       1   31674   31632   31677   31746       1
   31671   31629   31668   31734       1   31671   31629   31668   31740       1
   31668   31734   31662   31737       1   31665   31626   31662   31734       1
   31665   31626   31662   31737       1   31662   31734   31668   31740       1
   31659   31620   31656   31725       1   31656   31620   31659   31731       1
   31653   31617   31650   31713       1   31650   31617   31653   31719       1
   31647   31611   31644   31701       1   31644   31611   31647   31707       1
   31641   31608   31638   31689       1   31638   31608   31641   31695       1
   31635   31605   31632   31674       1   31632   31605   31635   31680       1
   31629   31602   31626   31665       1   31626   31602   31629   31671       1
   31620   31656   31722   31782       1   31620   31659   31728   31785       1
   31617   31650   31710   31773       1   31617   31653   31716   31776       1
   31611   31644   31698   31764       1   31611   31647   31704   31767       1
   31608   31638   31686   31752       1   31608   31641   31692   31758       1
   31605   31632   31677   31746       1   31605   31635   31683   31749       1
   31602   31626   31662   31737       1   31602   31629   31668   31740       1
   31599   31566   31596   31623       1   31593   31563   31596   31623       1
   31593   31617   31650   31713       1   31593   31617   31653   31719       1
   31593   31620   31656   31725       1   31593   31620   31659   31731       1
   31590   31557   31587   31614       1   31584   31551   31587   31614       1
   31584   31608   31638   31689       1   31584   31608   31641   31695       1
   31584   31611   31644   31701       1   31584   31611   31647   31707       1
   31581   31602   31626   31665       1   31581   31602   31629   31671       1
   31581   31605   31632   31674       1   31581   31605   31635   31680       1
   31578   31539   31545   31581       1   31563   31596   31566   31599       1
   31560   31530   31563   31593       1   31560   31530   31563   31596       1
   31554   31524   31551   31584       1   31554   31524   31551   31587       1
   31551   31587   31557   31590       1   31548   31521   31545   31581       1
   31542   31518   31539   31545       1   31542   31518   31539   31578       1
   31539   31545   31521   31548       1   31533   31512   31530   31560       1
   31533   31527   31557   31590       1   31533   31566   31596   31623       1
   31530   31563   31596   31623       1   31527   31509   31524   31554       1
   31527   31533   31566   31599       1   31527   31557   31587   31614       1
   31524   31551   31587   31614       1   31521   31545   31539   31578       1
   31512   31533   31566   31599       1   31509   31527   31557   31590       1
   31506   31503   31518   31542       1   31503   31506   31521   31548       1
   31503   31518   31539   31578       1   31500   31479   31494   31515       1
   31497   31473   31494   31515       1   31494   31515   31536   31569       2
   31494   31515   31536   31572       2   31494   31515   31536   31575       2
   31491   31467   31485   31503       1   31488   31506   31521   31548       1
   31488   31509   31524   31554       1   31488   31512   31530   31560       1
   31485   31503   31518   31542       1   31482   31458   31479   31494       1
   31482   31458   31479   31500       1   31479   31494   31473   31497       1
   31476   31455   31473   31494       1   31476   31455   31473   31497       1
   31473   31494   31479   31500       1   31470   31452   31467   31485       1
   31470   31452   31467   31491       1   31464   31449   31461   31485       1
   31464   31449   31461   31488       1   31461   31485   31467   31491       1
   31458   31446   31455   31476       1   31455   31446   31458   31482       1
   31452   31443   31449   31464       1   31449   31443   31452   31470       1
   31446   31455   31473   31497       1   31446   31458   31479   31500       1
   31443   31452   31467   31491       1   31440   31443   31449   31464       1
   31440   31443   31452   31470       1   31440   31446   31455   31476       1
   31440   31446   31458   31482       1   31437   31425   31431   31440       1
   31434   31419   31431   31440       1   31428   31407   31425   31431       1
   31428   31407   31425   31437       1   31425   31431   31419   31434       1
   31422   31404   31419   31431       1   31422   31404   31419   31434       1
   31419   31431   31425   31437       1   31407   31398   31404   31422       1
   31404   31398   31407   31428       1   31398   31395   31401   31410       2
   31398   31395   31401   31413       2   31398   31395   31401   31416       2
   31398   31404   31419   31434       1   31398   31407   31425   31437       1
   31395   31398   31404   31422       1   31395   31398   31407   31428       1
   32268   32211   32262   32286       1   32265   32205   32262   32286       1
   32262   32286   32304   32352       2   32262   32286   32304   32355       2
   32262   32286   32304   32358       2   32259   32199   32253   32283       1
   32256   32193   32253   32283       1   32253   32283   32301   32343       2
   32253   32283   32301   32346       2   32253   32283   32301   32349       2
   32250   32187   32244   32280       1   32247   32181   32244   32280       1
   32244   32280   32298   32334       2   32244   32280   32298   32337       2
   32244   32280   32298   32340       2   32241   32175   32238   32277       1
   32238   32277   32295   32325       2   32238   32277   32295   32328       2
   32238   32277   32295   32331       2   32235   32169   32238   32277       1
   32232   32166   32226   32274       1   32229   32160   32226   32274       1
   32226   32274   32292   32316       2   32226   32274   32292   32319       2
   32226   32274   32292   32322       2   32223   32151   32217   32271       1
   32220   32145   32217   32271       1   32217   32271   32289   32307       2
   32217   32271   32289   32310       2   32217   32271   32289   32313       2
   32214   32142   32211   32262       1   32214   32142   32211   32268       1
   32211   32262   32205   32265       1   32208   32139   32205   32262       1
   32208   32139   32205   32265       1   32205   32262   32211   32268       1
   32202   32136   32199   32253       1   32202   32136   32199   32259       1
   32199   32253   32193   32256       1   32196   32133   32193   32253       1
   32196   32133   32193   32256       1   32193   32253   32199   32259       1
   32190   32130   32187   32244       1   32190   32130   32187   32250       1
   32187   32244   32181   32247       1   32184   32127   32181   32244       1
   32184   32127   32181   32247       1   32181   32244   32187   32250       1
   32178   32124   32175   32238       1   32178   32124   32175   32241       1
   32175   32238   32169   32235       1   32172   32121   32169   32235       1
   32172   32121   32169   32238       1   32169   32238   32175   32241       1
   32166   32226   32160   32229       1   32163   32118   32166   32226       1
   32163   32118   32166   32232       1   32160   32226   32166   32232       1
   32157   32115   32160   32226       1   32157   32115   32160   32229       1
   32154   32112   32151   32217       1   32154   32112   32151   32223       1
   32151   32217   32145   32220       1   32148   32109   32145   32217       1
   32148   32109   32145   32220       1   32145   32217   32151   32223       1
   32142   32103   32139   32208       1   32139   32103   32142   32214       1
   32136   32100   32133   32196       1   32133   32100   32136   32202       1
   32130   32094   32127   32184       1   32127   32094   32130   32190       1
   32124   32091   32121   32172       1   32121   32091   32124   32178       1
   32118   32088   32115   32157       1   32115   32088   32118   32163       1
   32112   32085   32109   32148       1   32109   32085   32112   32154       1
   32103   32139   32205   32265       1   32103   32142   32211   32268       1
   32100   32133   32193   32256       1   32100   32136   32199   32259       1
   32094   32127   32181   32247       1   32094   32130   32187   32250       1
   32091   32121   32169   32235       1   32091   32124   32175   32241       1
   32088   32115   32160   32229       1   32088   32118   32166   32232       1
   32085   32109   32145   32220       1   32085   32112   32151   32223       1
   32082   32049   32079   32106       1   32076   32046   32079   32106       1
   32076   32100   32133   32196       1   32076   32100   32136   32202       1
   32076   32103   32139   32208       1   32076   32103   32142   32214       1
   32073   32040   32070   32097       1   32067   32034   32070   32097       1
   32067   32091   32121   32172       1   32067   32091   32124   32178       1
   32067   32094   32127   32184       1   32067   32094   32130   32190       1
   32064   32085   32109   32148       1   32064   32085   32112   32154       1
   32064   32088   32115   32157       1   32064   32088   32118   32163       1
   32061   32022   32028   32064       1   32046   32079   32049   32082       1
   32043   32013   32046   32076       1   32043   32013   32046   32079       1
   32037   32007   32034   32067       1   32037   32007   32034   32070       1
   32034   32070   32040   32073       1   32031   32004   32028   32064       1
   32025   32001   32022   32028       1   32025   32001   32022   32061       1
   32022   32028   32004   32031       1   32016   31995   32013   32043       1
   32016   32010   32040   32073       1   32016   32049   32079   32106       1
   32013   32046   32079   32106       1   32010   31992   32007   32037       1
   32010   32016   32049   32082       1   32010   32040   32070   32097       1
   32007   32034   32070   32097       1   32004   32028   32022   32061       1
   31995   32016   32049   32082       1   31992   32010   32040   32073       1
   31989   31986   32001   32025       1   31986   31989   32004   32031       1
   31986   32001   32022   32061       1   31983   31962   31977   31998       1
   31980   31956   31977   31998       1   31977   31998   32019   32052       2
   31977   31998   32019   32055       2   31977   31998   32019   32058       2
   31974   31950   31968   31986       1   31971   31989   32004   32031       1
   31971   31992   32007   32037       1   31971   31995   32013   32043       1
   31968   31986   32001   32025       1   31965   31941   31962   31977       1
   31965   31941   31962   31983       1   31962   31977   31956   31980       1
   31959   31938   31956   31977       1   31959   31938   31956   31980       1
   31956   31977   31962   31983       1   31953   31935   31950   31968       1
   31953   31935   31950   31974       1   31947   31932   31944   31968       1
   31947   31932   31944   31971       1   31944   31968   31950   31974       1
   31941   31929   31938   31959       1   31938   31929   31941   31965       1
   31935   31926   31932   31947       1   31932   31926   31935   31953       1
   31929   31938   31956   31980       1   31929   31941   31962   31983       1
   31926   31935   31950   31974       1   31923   31926   31932   31947       1
   31923   31926   31935   31953       1   31923   31929   31938   31959       1
   31923   31929   31941   31965       1   31920   31908   31914   31923       1
   31917   31902   31914   31923       1   31911   31890   31908   31914       1
   31911   31890   31908   31920       1   31908   31914   31902   31917       1
   31905   31887   31902   31914       1   31905   31887   31902   31917       1
   31902   31914   31908   31920       1   31890   31881   31887   31905       1
   31887   31881   31890   31911       1   31881   31878   31884   31893       2
   31881   31878   31884   31896       2   31881   31878   31884   31899       2
   31881   31887   31902   31917       1   31881   31890   31908   31920       1
   31878   31881   31887   31905       1   31878   31881   31890   31911       1
   32751   32694   32745   32769       1   32748   32688   32745   32769       1
   32745   32769   32787   32835       2   32745   32769   32787   32838       2
   32745   32769   32787   32841       2   32742   32682   32736   32766       1
   32739   32676   32736   32766       1   32736   32766   32784   32826       2
   32736   32766   32784   32829       2   32736   32766   32784   32832       2
   32733   32670   32727   32763       1   32730   32664   32727   32763       1
   32727   32763   32781   32817       2   32727   32763   32781   32820       2
   32727   32763   32781   32823       2   32724   32658   32721   32760       1
   32721   32760   32778   32808       2   32721   32760   32778   32811       2
   32721   32760   32778   32814       2   32718   32652   32721   32760       1
   32715   32649   32709   32757       1   32712   32643   32709   32757       1
   32709   32757   32775   32799       2   32709   32757   32775   32802       2
   32709   32757   32775   32805       2   32706   32634   32700   32754       1
   32703   32628   32700   32754       1   32700   32754   32772   32790       2
   32700   32754   32772   32793       2   32700   32754   32772   32796       2
   32697   32625   32694   32745       1   32697   32625   32694   32751       1
   32694   32745   32688   32748       1   32691   32622   32688   32745       1
   32691   32622   32688   32748       1   32688   32745   32694   32751       1
   32685   32619   32682   32736       1   32685   32619   32682   32742       1
   32682   32736   32676   32739       1   32679   32616   32676   32736       1
   32679   32616   32676   32739       1   32676   32736   32682   32742       1
   32673   32613   32670   32727       1   32673   32613   32670   32733       1
   32670   32727   32664   32730       1   32667   32610   32664   32727       1
   32667   32610   32664   32730       1   32664   32727   32670   32733       1
   32661   32607   32658   32721       1   32661   32607   32658   32724       1
   32658   32721   32652   32718       1   32655   32604   32652   32718       1
   32655   32604   32652   32721       1   32652   32721   32658   32724       1
   32649   32709   32643   32712       1   32646   32601   32649   32709       1
   32646   32601   32649   32715       1   32643   32709   32649   32715       1
   32640   32598   32643   32709       1   32640   32598   32643   32712       1
   32637   32595   32634   32700       1   32637   32595   32634   32706       1
   32634   32700   32628   32703       1   32631   32592   32628   32700       1
   32631   32592   32628   32703       1   32628   32700   32634   32706       1
   32625   32586   32622   32691       1   32622   32586   32625   32697       1
   32619   32583   32616   32679       1   32616   32583   32619   32685       1
   32613   32577   32610   32667       1   32610   32577   32613   32673       1
   32607   32574   32604   32655       1   32604   32574   32607   32661       1
   32601   32571   32598   32640       1   32598   32571   32601   32646       1
   32595   32568   32592   32631       1   32592   32568   32595   32637       1
   32586   32622   32688   32748       1   32586   32625   32694   32751       1
   32583   32616   32676   32739       1   32583   32619   32682   32742       1
   32577   32610   32664   32730       1   32577   32613   32670   32733       1
   32574   32604   32652   32718       1   32574   32607   32658   32724       1
   32571   32598   32643   32712       1   32571   32601   32649   32715       1
   32568   32592   32628   32703       1   32568   32595   32634   32706       1
   32565   32532   32562   32589       1   32559   32529   32562   32589       1
   32559   32583   32616   32679       1   32559   32583   32619   32685       1
   32559   32586   32622   32691       1   32559   32586   32625   32697       1
   32556   32523   32553   32580       1   32550   32517   32553   32580       1
   32550   32574   32604   32655       1   32550   32574   32607   32661       1
   32550   32577   32610   32667       1   32550   32577   32613   32673       1
   32547   32568   32592   32631       1   32547   32568   32595   32637       1
   32547   32571   32598   32640       1   32547   32571   32601   32646       1
   32544   32505   32511   32547       1   32529   32562   32532   32565       1
   32526   32496   32529   32559       1   32526   32496   32529   32562       1
   32520   32490   32517   32550       1   32520   32490   32517   32553       1
   32517   32553   32523   32556       1   32514   32487   32511   32547       1
   32508   32484   32505   32511       1   32508   32484   32505   32544       1
   32505   32511   32487   32514       1   32499   32478   32496   32526       1
   32499   32493   32523   32556       1   32499   32532   32562   32589       1
   32496   32529   32562   32589       1   32493   32475   32490   32520       1
   32493   32499   32532   32565       1   32493   32523   32553   32580       1
   32490   32517   32553   32580       1   32487   32511   32505   32544       1
   32478   32499   32532   32565       1   32475   32493   32523   32556       1
   32472   32469   32484   32508       1   32469   32472   32487   32514       1
   32469   32484   32505   32544       1   32466   32445   32460   32481       1
   32463   32439   32460   32481       1   32460   32481   32502   32535       2
   32460   32481   32502   32538       2   32460   32481   32502   32541       2
   32457   32433   32451   32469       1   32454   32472   32487   32514       1
   32454   32475   32490   32520       1   32454   32478   32496   32526       1
   32451   32469   32484   32508       1   32448   32424   32445   32460       1
   32448   32424   32445   32466       1   32445   32460   32439   32463       1
   32442   32421   32439   32460       1   32442   32421   32439   32463       1
   32439   32460   32445   32466       1   32436   32418   32433   32451       1
   32436   32418   32433   32457       1   32430   32415   32427   32451       1
   32430   32415   32427   32454       1   32427   32451   32433   32457       1
   32424   32412   32421   32442       1   32421   32412   32424   32448       1
   32418   32409   32415   32430       1   32415   32409   32418   32436       1
   32412   32421   32439   32463       1   32412   32424   32445   32466       1
   32409   32418   32433   32457       1   32406   32409   32415   32430       1
   32406   32409   32418   32436       1   32406   32412   32421   32442       1
   32406   32412   32424   32448       1   32403   32391   32397   32406       1
   32400   32385   32397   32406       1   32394   32373   32391   32397       1
   32394   32373   32391   32403       1   32391   32397   32385   32400       1
   32388   32370   32385   32397       1   32388   32370   32385   32400       1
   32385   32397   32391   32403       1   32373   32364   32370   32388       1
   32370   32364   32373   32394       1   32364   32361   32367   32376       2
   32364   32361   32367   32379       2   32364   32361   32367   32382       2
   32364   32370   32385   32400       1   32364   32373   32391   32403       1
   32361   32364   32370   32388       1   32361   32364   32373   32394       1
   33234   33177   33228   33252       1   33231   33171   33228   33252       1
   33228   33252   33270   33318       2   33228   33252   33270   33321       2
   33228   33252   33270   33324       2   33225   33165   33219   33249       1
   33222   33159   33219   33249       1   33219   33249   33267   33309       2
   33219   33249   33267   33312       2   33219   33249   33267   33315       2
   33216   33153   33210   33246       1   33213   33147   33210   33246       1
   33210   33246   33264   33300       2   33210   33246   33264   33303       2
   33210   33246   33264   33306       2   33207   33141   33204   33243       1
   33204   33243   33261   33291       2   33204   33243   33261   33294       2
   33204   33243   33261   33297       2   33201   33135   33204   33243       1
   33198   33132   33192   33240       1   33195   33126   33192   33240       1
   33192   33240   33258   33282       2   33192   33240   33258   33285       2
   33192   33240   33258   33288       2   33189   33117   33183   33237       1
   33186   33111   33183   33237       1   33183   33237   33255   33273       2
   33183   33237   33255   33276       2   33183   33237   33255   33279       2
   33180   33108   33177   33228       1   33180   33108   33177   33234       1
   33177   33228   33171   33231       1   33174   33105   33171   33228       1
   33174   33105   33171   33231       1   33171   33228   33177   33234       1
   33168   33102   33165   33219       1   33168   33102   33165   33225       1
   33165   33219   33159   33222       1   33162   33099   33159   33219       1
   33162   33099   33159   33222       1   33159   33219   33165   33225       1
   33156   33096   33153   33210       1   33156   33096   33153   33216       1
   33153   33210   33147   33213       1   33150   33093   33147   33210       1
   33150   33093   33147   33213       1   33147   33210   33153   33216       1
   33144   33090   33141   33204       1   33144   33090   33141   33207       1
   33141   33204   33135   33201       1   33138   33087   33135   33201       1
   33138   33087   33135   33204       1   33135   33204   33141   33207       1
   33132   33192   33126   33195       1   33129   33084   33132   33192       1
   33129   33084   33132   33198       1   33126   33192   33132   33198       1
   33123   33081   33126   33192       1   33123   33081   33126   33195       1
   33120   33078   33117   33183       1   33120   33078   33117   33189       1
   33117   33183   33111   33186       1   33114   33075   33111   33183       1
   33114   33075   33111   33186       1   33111   33183   33117   33189       1
   33108   33069   33105   33174       1   33105   33069   33108   33180       1
   33102   33066   33099   33162       1   33099   33066   33102   33168       1
   33096   33060   33093   33150       1   33093   33060   33096   33156       1
   33090   33057   33087   33138       1   33087   33057   33090   33144       1
   33084   33054   33081   33123       1   33081   33054   33084   33129       1
   33078   33051   33075   33114       1   33075   33051   33078   33120       1
   33069   33105   33171   33231       1   33069   33108   33177   33234       1
   33066   33099   33159   33222       1   33066   33102   33165   33225       1
   33060   33093   33147   33213       1   33060   33096   33153   33216       1
   33057   33087   33135   33201       1   33057   33090   33141   33207       1
   33054   33081   33126   33195       1   33054   33084   33132   33198       1
   33051   33075   33111   33186       1   33051   33078   33117   33189       1
   33048   33015   33045   33072       1   33042   33012   33045   33072       1
   33042   33066   33099   33162       1   33042   33066   33102   33168       1
   33042   33069   33105   33174       1   33042   33069   33108   33180       1
   33039   33006   33036   33063       1   33033   33000   33036   33063       1
   33033   33057   33087   33138       1   33033   33057   33090   33144       1
   33033   33060   33093   33150       1   33033   33060   33096   33156       1
   33030   33051   33075   33114       1   33030   33051   33078   33120       1
   33030   33054   33081   33123       1   33030   33054   33084   33129       1
   33027   32988   32994   33030       1   33012   33045   33015   33048       1
   33009   32979   33012   33042       1   33009   32979   33012   33045       1
   33003   32973   33000   33033       1   33003   32973   33000   33036       1
   33000   33036   33006   33039       1   32997   32970   32994   33030       1
   32991   32967   32988   32994       1   32991   32967   32988   33027       1
   32988   32994   32970   32997       1   32982   32961   32979   33009       1
   32982   32976   33006   33039       1   32982   33015   33045   33072       1
   32979   33012   33045   33072       1   32976   32958   32973   33003       1
   32976   32982   33015   33048       1   32976   33006   33036   33063       1
   32973   33000   33036   33063       1   32970   32994   32988   33027       1
   32961   32982   33015   33048       1   32958   32976   33006   33039       1
   32955   32952   32967   32991       1   32952   32955   32970   32997       1
   32952   32967   32988   33027       1   32949   32928   32943   32964       1
   32946   32922   32943   32964       1   32943   32964   32985   33018       2
   32943   32964   32985   33021       2   32943   32964   32985   33024       2
   32940   32916   32934   32952       1   32937   32955   32970   32997       1
   32937   32958   32973   33003       1   32937   32961   32979   33009       1
   32934   32952   32967   32991       1   32931   32907   32928   32943       1
   32931   32907   32928   32949       1   32928   32943   32922   32946       1
   32925   32904   32922   32943       1   32925   32904   32922   32946       1
   32922   32943   32928   32949       1   32919   32901   32916   32934       1
   32919   32901   32916   32940       1   32913   32898   32910   32934       1
   32913   32898   32910   32937       1   32910   32934   32916   32940       1
   32907   32895   32904   32925       1   32904   32895   32907   32931       1
   32901   32892   32898   32913       1   32898   32892   32901   32919       1
   32895   32904   32922   32946       1   32895   32907   32928   32949       1
   32892   32901   32916   32940       1   32889   32892   32898   32913       1
   32889   32892   32901   32919       1   32889   32895   32904   32925       1
   32889   32895   32907   32931       1   32886   32874   32880   32889       1
   32883   32868   32880   32889       1   32877   32856   32874   32880       1
   32877   32856   32874   32886       1   32874   32880   32868   32883       1
   32871   32853   32868   32880       1   32871   32853   32868   32883       1
   32868   32880   32874   32886       1   32856   32847   32853   32871       1
   32853   32847   32856   32877       1   32847   32844   32850   32859       2
   32847   32844   32850   32862       2   32847   32844   32850   32865       2
   32847   32853   32868   32883       1   32847   32856   32874   32886       1
   32844   32847   32853   32871       1   32844   32847   32856   32877       1
   33717   33660   33711   33735       1   33714   33654   33711   33735       1
   33711   33735   33753   33801       2   33711   33735   33753   33804       2
   33711   33735   33753   33807       2   33708   33648   33702   33732       1
   33705   33642   33702   33732       1   33702   33732   33750   33792       2
   33702   33732   33750   33795       2   33702   33732   33750   33798       2
   33699   33636   33693   33729       1   33696   33630   33693   33729       1
   33693   33729   33747   33783       2   33693   33729   33747   33786       2
   33693   33729   33747   33789       2   33690   33624   33687   33726       1
   33687   33726   33744   33774       2   33687   33726   33744   33777       2
   33687   33726   33744   33780       2   33684   33618   33687   33726       1
   33681   33615   33675   33723       1   33678   33609   33675   33723       1
   33675   33723   33741   33765       2   33675   33723   33741   33768       2
   33675   33723   33741   33771       2   33672   33600   33666   33720       1
   33669   33594   33666   33720       1   33666   33720   33738   33756       2
   33666   33720   33738   33759       2   33666   33720   33738   33762       2
   33663   33591   33660   33711       1   33663   33591   33660   33717       1
   33660   33711   33654   33714       1   33657   33588   33654   33711       1
   33657   33588   33654   33714       1   33654   33711   33660   33717       1
   33651   33585   33648   33702       1   33651   33585   33648   33708       1
   33648   33702   33642   33705       1   33645   33582   33642   33702       1
   33645   33582   33642   33705       1   33642   33702   33648   33708       1
   33639   33579   33636   33693       1   33639   33579   33636   33699       1
   33636   33693   33630   33696       1   33633   33576   33630   33693       1
   33633   33576   33630   33696       1   33630   33693   33636   33699       1
   33627   33573   33624   33687       1   33627   33573   33624   33690       1
   33624   33687   33618   33684       1   33621   33570   33618   33684       1
   33621   33570   33618   33687       1   33618   33687   33624   33690       1
   33615   33675   33609   33678       1   33612   33567   33615   33675       1
   33612   33567   33615   33681       1   33609   33675   33615   33681       1
   33606   33564   33609   33675       1   33606   33564   33609   33678       1
   33603   33561   33600   33666       1   33603   33561   33600   33672       1
   33600   33666   33594   33669       1   33597   33558   33594   33666       1
   33597   33558   33594   33669       1   33594   33666   33600   33672       1
   33591   33552   33588   33657       1   33588   33552   33591   33663       1
   33585   33549   33582   33645       1   33582   33549   33585   33651       1
   33579   33543   33576   33633       1   33576   33543   33579   33639       1
   33573   33540   33570   33621       1   33570   33540   33573   33627       1
   33567   33537   33564   33606       1   33564   33537   33567   33612       1
   33561   33534   33558   33597       1   33558   33534   33561   33603       1
   33552   33588   33654   33714       1   33552   33591   33660   33717       1
   33549   33582   33642   33705       1   33549   33585   33648   33708       1
   33543   33576   33630   33696       1   33543   33579   33636   33699       1
   33540   33570   33618   33684       1   33540   33573   33624   33690       1
   33537   33564   33609   33678       1   33537   33567   33615   33681       1
   33534   33558   33594   33669       1   33534   33561   33600   33672       1
   33531   33498   33528   33555       1   33525   33495   33528   33555       1
   33525   33549   33582   33645       1   33525   33549   33585   33651       1
   33525   33552   33588   33657       1   33525   33552   33591   33663       1
   33522   33489   33519   33546       1   33516   33483   33519   33546       1
   33516   33540   33570   33621       1   33516   33540   33573   33627       1
   33516   33543   33576   33633       1   33516   33543   33579   33639       1
   33513   33534   33558   33597       1   33513   33534   33561   33603       1
   33513   33537   33564   33606       1   33513   33537   33567   33612       1
   33510   33471   33477   33513       1   33495   33528   33498   33531       1
   33492   33462   33495   33525       1   33492   33462   33495   33528       1
   33486   33456   33483   33516       1   33486   33456   33483   33519       1
   33483   33519   33489   33522       1   33480   33453   33477   33513       1
   33474   33450   33471   33477       1   33474   33450   33471   33510       1
   33471   33477   33453   33480       1   33465   33444   33462   33492       1
   33465   33459   33489   33522       1   33465   33498   33528   33555       1
   33462   33495   33528   33555       1   33459   33441   33456   33486       1
   33459   33465   33498   33531       1   33459   33489   33519   33546       1
   33456   33483   33519   33546       1   33453   33477   33471   33510       1
   33444   33465   33498   33531       1   33441   33459   33489   33522       1
   33438   33435   33450   33474       1   33435   33438   33453   33480       1
   33435   33450   33471   33510       1   33432   33411   33426   33447       1
   33429   33405   33426   33447       1   33426   33447   33468   33501       2
   33426   33447   33468   33504       2   33426   33447   33468   33507       2
   33423   33399   33417   33435       1   33420   33438   33453   33480       1
   33420   33441   33456   33486       1   33420   33444   33462   33492       1
   33417   33435   33450   33474       1   33414   33390   33411   33426       1
   33414   33390   33411   33432       1   33411   33426   33405   33429       1
   33408   33387   33405   33426       1   33408   33387   33405   33429       1
   33405   33426   33411   33432       1   33402   33384   33399   33417       1
   33402   33384   33399   33423       1   33396   33381   33393   33417       1
   33396   33381   33393   33420       1   33393   33417   33399   33423       1
   33390   33378   33387   33408       1   33387   33378   33390   33414       1
   33384   33375   33381   33396       1   33381   33375   33384   33402       1
   33378   33387   33405   33429       1   33378   33390   33411   33432       1
   33375   33384   33399   33423       1   33372   33375   33381   33396       1
   33372   33375   33384   33402       1   33372   33378   33387   33408       1
   33372   33378   33390   33414       1   33369   33357   33363   33372       1
   33366   33351   33363   33372       1   33360   33339   33357   33363       1
   33360   33339   33357   33369       1   33357   33363   33351   33366       1
   33354   33336   33351   33363       1   33354   33336   33351   33366       1
   33351   33363   33357   33369       1   33339   33330   33336   33354       1
   33336   33330   33339   33360       1   33330   33327   33333   33342       2
   33330   33327   33333   33345       2   33330   33327   33333   33348       2
   33330   33336   33351   33366       1   33330   33339   33357   33369       1
   33327   33330   33336   33354       1   33327   33330   33339   33360       1
   34200   34143   34194   34218       1   34197   34137   34194   34218       1
   34194   34218   34236   34284       2   34194   34218   34236   34287       2
   34194   34218   34236   34290       2   34191   34131   34185   34215       1
   34188   34125   34185   34215       1   34185   34215   34233   34275       2
   34185   34215   34233   34278       2   34185   34215   34233   34281       2
   34182   34119   34176   34212       1   34179   34113   34176   34212       1
   34176   34212   34230   34266       2   34176   34212   34230   34269       2
   34176   34212   34230   34272       2   34173   34107   34170   34209       1
   34170   34209   34227   34257       2   34170   34209   34227   34260       2
   34170   34209   34227   34263       2   34167   34101   34170   34209       1
   34164   34098   34158   34206       1   34161   34092   34158   34206       1
   34158   34206   34224   34248       2   34158   34206   34224   34251       2
   34158   34206   34224   34254       2   34155   34083   34149   34203       1
   34152   34077   34149   34203       1   34149   34203   34221   34239       2
   34149   34203   34221   34242       2   34149   34203   34221   34245       2
   34146   34074   34143   34194       1   34146   34074   34143   34200       1
   34143   34194   34137   34197       1   34140   34071   34137   34194       1
   34140   34071   34137   34197       1   34137   34194   34143   34200       1
   34134   34068   34131   34185       1   34134   34068   34131   34191       1
   34131   34185   34125   34188       1   34128   34065   34125   34185       1
   34128   34065   34125   34188       1   34125   34185   34131   34191       1
   34122   34062   34119   34176       1   34122   34062   34119   34182       1
   34119   34176   34113   34179       1   34116   34059   34113   34176       1
   34116   34059   34113   34179       1   34113   34176   34119   34182       1
   34110   34056   34107   34170       1   34110   34056   34107   34173       1
   34107   34170   34101   34167       1   34104   34053   34101   34167       1
   34104   34053   34101   34170       1   34101   34170   34107   34173       1
   34098   34158   34092   34161       1   34095   34050   34098   34158       1
   34095   34050   34098   34164       1   34092   34158   34098   34164       1
   34089   34047   34092   34158       1   34089   34047   34092   34161       1
   34086   34044   34083   34149       1   34086   34044   34083   34155       1
   34083   34149   34077   34152       1   34080   34041   34077   34149       1
   34080   34041   34077   34152       1   34077   34149   34083   34155       1
   34074   34035   34071   34140       1   34071   34035   34074   34146       1
   34068   34032   34065   34128       1   34065   34032   34068   34134       1
   34062   34026   34059   34116       1   34059   34026   34062   34122       1
   34056   34023   34053   34104       1   34053   34023   34056   34110       1
   34050   34020   34047   34089       1   34047   34020   34050   34095       1
   34044   34017   34041   34080       1   34041   34017   34044   34086       1
   34035   34071   34137   34197       1   34035   34074   34143   34200       1
   34032   34065   34125   34188       1   34032   34068   34131   34191       1
   34026   34059   34113   34179       1   34026   34062   34119   34182       1
   34023   34053   34101   34167       1   34023   34056   34107   34173       1
   34020   34047   34092   34161       1   34020   34050   34098   34164       1
   34017   34041   34077   34152       1   34017   34044   34083   34155       1
   34014   33981   34011   34038       1   34008   33978   34011   34038       1
   34008   34032   34065   34128       1   34008   34032   34068   34134       1
   34008   34035   34071   34140       1   34008   34035   34074   34146       1
   34005   33972   34002   34029       1   33999   33966   34002   34029       1
   33999   34023   34053   34104       1   33999   34023   34056   34110       1
   33999   34026   34059   34116       1   33999   34026   34062   34122       1
   33996   34017   34041   34080       1   33996   34017   34044   34086       1
   33996   34020   34047   34089       1   33996   34020   34050   34095       1
   33993   33954   33960   33996       1   33978   34011   33981   34014       1
   33975   33945   33978   34008       1   33975   33945   33978   34011       1
   33969   33939   33966   33999       1   33969   33939   33966   34002       1
   33966   34002   33972   34005       1   33963   33936   33960   33996       1
   33957   33933   33954   33960       1   33957   33933   33954   33993       1
   33954   33960   33936   33963       1   33948   33927   33945   33975       1
   33948   33942   33972   34005       1   33948   33981   34011   34038       1
   33945   33978   34011   34038       1   33942   33924   33939   33969       1
   33942   33948   33981   34014       1   33942   33972   34002   34029       1
   33939   33966   34002   34029       1   33936   33960   33954   33993       1
   33927   33948   33981   34014       1   33924   33942   33972   34005       1
   33921   33918   33933   33957       1   33918   33921   33936   33963       1
   33918   33933   33954   33993       1   33915   33894   33909   33930       1
   33912   33888   33909   33930       1   33909   33930   33951   33984       2
   33909   33930   33951   33987       2   33909   33930   33951   33990       2
   33906   33882   33900   33918       1   33903   33921   33936   33963       1
   33903   33924   33939   33969       1   33903   33927   33945   33975       1
   33900   33918   33933   33957       1   33897   33873   33894   33909       1
   33897   33873   33894   33915       1   33894   33909   33888   33912       1
   33891   33870   33888   33909       1   33891   33870   33888   33912       1
   33888   33909   33894   33915       1   33885   33867   33882   33900       1
   33885   33867   33882   33906       1   33879   33864   33876   33900       1
   33879   33864   33876   33903       1   33876   33900   33882   33906       1
   33873   33861   33870   33891       1   33870   33861   33873   33897       1
   33867   33858   33864   33879       1   33864   33858   33867   33885       1
   33861   33870   33888   33912       1   33861   33873   33894   33915       1
   33858   33867   33882   33906       1   33855   33858   33864   33879       1
   33855   33858   33867   33885       1   33855   33861   33870   33891       1
   33855   33861   33873   33897       1   33852   33840   33846   33855       1
   33849   33834   33846   33855       1   33843   33822   33840   33846       1
   33843   33822   33840   33852       1   33840   33846   33834   33849       1
   33837   33819   33834   33846       1   33837   33819   33834   33849       1
   33834   33846   33840   33852       1   33822   33813   33819   33837       1
   33819   33813   33822   33843       1   33813   33810   33816   33825       2
   33813   33810   33816   33828       2   33813   33810   33816   33831       2
   33813   33819   33834   33849       1   33813   33822   33840   33852       1
   33810   33813   33819   33837       1   33810   33813   33822   33843       1
   34683   34626   34677   34701       1   34680   34620   34677   34701       1
   34677   34701   34719   34767       2   34677   34701   34719   34770       2
   34677   34701   34719   34773       2   34674   34614   34668   34698       1
   34671   34608   34668   34698       1   34668   34698   34716   34758       2
   34668   34698   34716   34761       2   34668   34698   34716   34764       2
   34665   34602   34659   34695       1   34662   34596   34659   34695       1
   34659   34695   34713   34749       2   34659   34695   34713   34752       2
   34659   34695   34713   34755       2   34656   34590   34653   34692       1
   34653   34692   34710   34740       2   34653   34692   34710   34743       2
   34653   34692   34710   34746       2   34650   34584   34653   34692       1
   34647   34581   34641   34689       1   34644   34575   34641   34689       1
   34641   34689   34707   34731       2   34641   34689   34707   34734       2
   34641   34689   34707   34737       2   34638   34566   34632   34686       1
   34635   34560   34632   34686       1   34632   34686   34704   34722       2
   34632   34686   34704   34725       2   34632   34686   34704   34728       2
   34629   34557   34626   34677       1   34629   34557   34626   34683       1
   34626   34677   34620   34680       1   34623   34554   34620   34677       1
   34623   34554   34620   34680       1   34620   34677   34626   34683       1
   34617   34551   34614   34668       1   34617   34551   34614   34674       1
   34614   34668   34608   34671       1   34611   34548   34608   34668       1
   34611   34548   34608   34671       1   34608   34668   34614   34674       1
   34605   34545   34602   34659       1   34605   34545   34602   34665       1
   34602   34659   34596   34662       1   34599   34542   34596   34659       1
   34599   34542   34596   34662       1   34596   34659   34602   34665       1
   34593   34539   34590   34653       1   34593   34539   34590   34656       1
   34590   34653   34584   34650       1   34587   34536   34584   34650       1
   34587   34536   34584   34653       1   34584   34653   34590   34656       1
   34581   34641   34575   34644       1   34578   34533   34581   34641       1
   34578   34533   34581   34647       1   34575   34641   34581   34647       1
   34572   34530   34575   34641       1   34572   34530   34575   34644       1
   34569   34527   34566   34632       1   34569   34527   34566   34638       1
   34566   34632   34560   34635       1   34563   34524   34560   34632       1
   34563   34524   34560   34635       1   34560   34632   34566   34638       1
   34557   34518   34554   34623       1   34554   34518   34557   34629       1
   34551   34515   34548   34611       1   34548   34515   34551   34617       1
   34545   34509   34542   34599       1   34542   34509   34545   34605       1
   34539   34506   34536   34587       1   34536   34506   34539   34593       1
   34533   34503   34530   34572       1   34530   34503   34533   34578       1
   34527   34500   34524   34563       1   34524   34500   34527   34569       1
   34518   34554   34620   34680       1   34518   34557   34626   34683       1
   34515   34548   34608   34671       1   34515   34551   34614   34674       1
   34509   34542   34596   34662       1   34509   34545   34602   34665       1
   34506   34536   34584   34650       1   34506   34539   34590   34656       1
   34503   34530   34575   34644       1   34503   34533   34581   34647       1
   34500   34524   34560   34635       1   34500   34527   34566   34638       1
   34497   34464   34494   34521       1   34491   34461   34494   34521       1
   34491   34515   34548   34611       1   34491   34515   34551   34617       1
   34491   34518   34554   34623       1   34491   34518   34557   34629       1
   34488   34455   34485   34512       1   34482   34449   34485   34512       1
   34482   34506   34536   34587       1   34482   34506   34539   34593       1
   34482   34509   34542   34599       1   34482   34509   34545   34605       1
   34479   34500   34524   34563       1   34479   34500   34527   34569       1
   34479   34503   34530   34572       1   34479   34503   34533   34578       1
   34476   34437   34443   34479       1   34461   34494   34464   34497       1
   34458   34428   34461   34491       1   34458   34428   34461   34494       1
   34452   34422   34449   34482       1   34452   34422   34449   34485       1
   34449   34485   34455   34488       1   34446   34419   34443   34479       1
   34440   34416   34437   34443       1   34440   34416   34437   34476       1
   34437   34443   34419   34446       1   34431   34410   34428   34458       1
   34431   34425   34455   34488       1   34431   34464   34494   34521       1
   34428   34461   34494   34521       1   34425   34407   34422   34452       1
   34425   34431   34464   34497       1   34425   34455   34485   34512       1
   34422   34449   34485   34512       1   34419   34443   34437   34476       1
   34410   34431   34464   34497       1   34407   34425   34455   34488       1
   34404   34401   34416   34440       1   34401   34404   34419   34446       1
   34401   34416   34437   34476       1   34398   34377   34392   34413       1
   34395   34371   34392   34413       1   34392   34413   34434   34467       2
   34392   34413   34434   34470       2   34392   34413   34434   34473       2
   34389   34365   34383   34401       1   34386   34404   34419   34446       1
   34386   34407   34422   34452       1   34386   34410   34428   34458       1
   34383   34401   34416   34440       1   34380   34356   34377   34392       1
   34380   34356   34377   34398       1   34377   34392   34371   34395       1
   34374   34353   34371   34392       1   34374   34353   34371   34395       1
   34371   34392   34377   34398       1   34368   34350   34365   34383       1
   34368   34350   34365   34389       1   34362   34347   34359   34383       1
   34362   34347   34359   34386       1   34359   34383   34365   34389       1
   34356   34344   34353   34374       1   34353   34344   34356   34380       1
   34350   34341   34347   34362       1   34347   34341   34350   34368       1
   34344   34353   34371   34395       1   34344   34356   34377   34398       1
   34341   34350   34365   34389       1   34338   34341   34347   34362       1
   34338   34341   34350   34368       1   34338   34344   34353   34374       1
   34338   34344   34356   34380       1   34335   34323   34329   34338       1
   34332   34317   34329   34338       1   34326   34305   34323   34329       1
   34326   34305   34323   34335       1   34323   34329   34317   34332       1
   34320   34302   34317   34329       1   34320   34302   34317   34332       1
   34317   34329   34323   34335       1   34305   34296   34302   34320       1
   34302   34296   34305   34326       1   34296   34293   34299   34308       2
   34296   34293   34299   34311       2   34296   34293   34299   34314       2
   34296   34302   34317   34332       1   34296   34305   34323   34335       1
   34293   34296   34302   34320       1   34293   34296   34305   34326       1
   35166   35109   35160   35184       1   35163   35103   35160   35184       1
   35160   35184   35202   35250       2   35160   35184   35202   35253       2
   35160   35184   35202   35256       2   35157   35097   35151   35181       1
   35154   35091   35151   35181       1   35151   35181   35199   35241       2
   35151   35181   35199   35244       2   35151   35181   35199   35247       2
   35148   35085   35142   35178       1   35145   35079   35142   35178       1
   35142   35178   35196   35232       2   35142   35178   35196   35235       2
   35142   35178   35196   35238       2   35139   35073   35136   35175       1
   35136   35175   35193   35223       2   35136   35175   35193   35226       2
   35136   35175   35193   35229       2   35133   35067   35136   35175       1
   35130   35064   35124   35172       1   35127   35058   35124   35172       1
   35124   35172   35190   35214       2   35124   35172   35190   35217       2
   35124   35172   35190   35220       2   35121   35049   35115   35169       1
   35118   35043   35115   35169       1   35115   35169   35187   35205       2
   35115   35169   35187   35208       2   35115   35169   35187   35211       2
   35112   35040   35109   35160       1   35112   35040   35109   35166       1
   35109   35160   35103   35163       1   35106   35037   35103   35160       1
   35106   35037   35103   35163       1   35103   35160   35109   35166       1
   35100   35034   35097   35151       1   35100   35034   35097   35157       1
   35097   35151   35091   35154       1   35094   35031   35091   35151       1
   35094   35031   35091   35154       1   35091   35151   35097   35157       1
   35088   35028   35085   35142       1   35088   35028   35085   35148       1
   35085   35142   35079   35145       1   35082   35025   35079   35142       1
   35082   35025   35079   35145       1   35079   35142   35085   35148       1
   35076   35022   35073   35136       1   35076   35022   35073   35139       1
   35073   35136   35067   35133       1   35070   35019   35067   35133       1
   35070   35019   35067   35136       1   35067   35136   35073   35139       1
   35064   35124   35058   35127       1   35061   35016   35064   35124       1
   35061   35016   35064   35130       1   35058   35124   35064   35130       1
   35055   35013   35058   35124       1   35055   35013   35058   35127       1
   35052   35010   35049   35115       1   35052   35010   35049   35121       1
   35049   35115   35043   35118       1   35046   35007   35043   35115       1
   35046   35007   35043   35118       1   35043   35115   35049   35121       1
   35040   35001   35037   35106       1   35037   35001   35040   35112       1
   35034   34998   35031   35094       1   35031   34998   35034   35100       1
   35028   34992   35025   35082       1   35025   34992   35028   35088       1
   35022   34989   35019   35070       1   35019   34989   35022   35076       1
   35016   34986   35013   35055       1   35013   34986   35016   35061       1
   35010   34983   35007   35046       1   35007   34983   35010   35052       1
   35001   35037   35103   35163       1   35001   35040   35109   35166       1
   34998   35031   35091   35154       1   34998   35034   35097   35157       1
   34992   35025   35079   35145       1   34992   35028   35085   35148       1
   34989   35019   35067   35133       1   34989   35022   35073   35139       1
   34986   35013   35058   35127       1   34986   35016   35064   35130       1
   34983   35007   35043   35118       1   34983   35010   35049   35121       1
   34980   34947   34977   35004       1   34974   34944   34977   35004       1
   34974   34998   35031   35094       1   34974   34998   35034   35100       1
   34974   35001   35037   35106       1   34974   35001   35040   35112       1
   34971   34938   34968   34995       1   34965   34932   34968   34995       1
   34965   34989   35019   35070       1   34965   34989   35022   35076       1
   34965   34992   35025   35082       1   34965   34992   35028   35088       1
   34962   34983   35007   35046       1   34962   34983   35010   35052       1
   34962   34986   35013   35055       1   34962   34986   35016   35061       1
   34959   34920   34926   34962       1   34944   34977   34947   34980       1
   34941   34911   34944   34974       1   34941   34911   34944   34977       1
   34935   34905   34932   34965       1   34935   34905   34932   34968       1
   34932   34968   34938   34971       1   34929   34902   34926   34962       1
   34923   34899   34920   34926       1   34923   34899   34920   34959       1
   34920   34926   34902   34929       1   34914   34893   34911   34941       1
   34914   34908   34938   34971       1   34914   34947   34977   35004       1
   34911   34944   34977   35004       1   34908   34890   34905   34935       1
   34908   34914   34947   34980       1   34908   34938   34968   34995       1
   34905   34932   34968   34995       1   34902   34926   34920   34959       1
   34893   34914   34947   34980       1   34890   34908   34938   34971       1
   34887   34884   34899   34923       1   34884   34887   34902   34929       1
   34884   34899   34920   34959       1   34881   34860   34875   34896       1
   34878   34854   34875   34896       1   34875   34896   34917   34950       2
   34875   34896   34917   34953       2   34875   34896   34917   34956       2
   34872   34848   34866   34884       1   34869   34887   34902   34929       1
   34869   34890   34905   34935       1   34869   34893   34911   34941       1
   34866   34884   34899   34923       1   34863   34839   34860   34875       1
   34863   34839   34860   34881       1   34860   34875   34854   34878       1
   34857   34836   34854   34875       1   34857   34836   34854   34878       1
   34854   34875   34860   34881       1   34851   34833   34848   34866       1
   34851   34833   34848   34872       1   34845   34830   34842   34866       1
   34845   34830   34842   34869       1   34842   34866   34848   34872       1
   34839   34827   34836   34857       1   34836   34827   34839   34863       1
   34833   34824   34830   34845       1   34830   34824   34833   34851       1
   34827   34836   34854   34878       1   34827   34839   34860   34881       1
   34824   34833   34848   34872       1   34821   34824   34830   34845       1
   34821   34824   34833   34851       1   34821   34827   34836   34857       1
   34821   34827   34839   34863       1   34818   34806   34812   34821       1
   34815   34800   34812   34821       1   34809   34788   34806   34812       1
   34809   34788   34806   34818       1   34806   34812   34800   34815       1
   34803   34785   34800   34812       1   34803   34785   34800   34815       1
   34800   34812   34806   34818       1   34788   34779   34785   34803       1
   34785   34779   34788   34809       1   34779   34776   34782   34791       2
   34779   34776   34782   34794       2   34779   34776   34782   34797       2
   34779   34785   34800   34815       1   34779   34788   34806   34818       1
   34776   34779   34785   34803       1   34776   34779   34788   34809       1
   35649   35592   35643   35667       1   35646   35586   35643   35667       1
   35643   35667   35685   35733       2   35643   35667   35685   35736       2
   35643   35667   35685   35739       2   35640   35580   35634   35664       1
   35637   35574   35634   35664       1   35634   35664   35682   35724       2
   35634   35664   35682   35727       2   35634   35664   35682   35730       2
   35631   35568   35625   35661       1   35628   35562   35625   35661       1
   35625   35661   35679   35715       2   35625   35661   35679   35718       2
   35625   35661   35679   35721       2   35622   35556   35619   35658       1
   35619   35658   35676   35706       2   35619   35658   35676   35709       2
   35619   35658   35676   35712       2   35616   35550   35619   35658       1
   35613   35547   35607   35655       1   35610   35541   35607   35655       1
   35607   35655   35673   35697       2   35607   35655   35673   35700       2
   35607   35655   35673   35703       2   35604   35532   35598   35652       1
   35601   35526   35598   35652       1   35598   35652   35670   35688       2
   35598   35652   35670   35691       2   35598   35652   35670   35694       2
   35595   35523   35592   35643       1   35595   35523   35592   35649       1
   35592   35643   35586   35646       1   35589   35520   35586   35643       1
   35589   35520   35586   35646       1   35586   35643   35592   35649       1
   35583   35517   35580   35634       1   35583   35517   35580   35640       1
   35580   35634   35574   35637       1   35577   35514   35574   35634       1
   35577   35514   35574   35637       1   35574   35634   35580   35640       1
   35571   35511   35568   35625       1   35571   35511   35568   35631       1
   35568   35625   35562   35628       1   35565   35508   35562   35625       1
   35565   35508   35562   35628       1   35562   35625   35568   35631       1
   35559   35505   35556   35619       1   35559   35505   35556   35622       1
   35556   35619   35550   35616       1   35553   35502   35550   35616       1
   35553   35502   35550   35619       1   35550   35619   35556   35622       1
   35547   35607   35541   35610       1   35544   35499   35547   35607       1
   35544   35499   35547   35613       1   35541   35607   35547   35613       1
   35538   35496   35541   35607       1   35538   35496   35541   35610       1
   35535   35493   35532   35598       1   35535   35493   35532   35604       1
   35532   35598   35526   35601       1   35529   35490   35526   35598       1
   35529   35490   35526   35601       1   35526   35598   35532   35604       1
   35523   35484   35520   35589       1   35520   35484   35523   35595       1
   35517   35481   35514   35577       1   35514   35481   35517   35583       1
   35511   35475   35508   35565       1   35508   35475   35511   35571       1
   35505   35472   35502   35553       1   35502   35472   35505   35559       1
   35499   35469   35496   35538       1   35496   35469   35499   35544       1
   35493   35466   35490   35529       1   35490   35466   35493   35535       1
   35484   35520   35586   35646       1   35484   35523   35592   35649       1
   35481   35514   35574   35637       1   35481   35517   35580   35640       1
   35475   35508   35562   35628       1   35475   35511   35568   35631       1
   35472   35502   35550   35616       1   35472   35505   35556   35622       1
   35469   35496   35541   35610       1   35469   35499   35547   35613       1
   35466   35490   35526   35601       1   35466   35493   35532   35604       1
   35463   35430   35460   35487       1   35457   35427   35460   35487       1
   35457   35481   35514   35577       1   35457   35481   35517   35583       1
   35457   35484   35520   35589       1   35457   35484   35523   35595       1
   35454   35421   35451   35478       1   35448   35415   35451   35478       1
   35448   35472   35502   35553       1   35448   35472   35505   35559       1
   35448   35475   35508   35565       1   35448   35475   35511   35571       1
   35445   35466   35490   35529       1   35445   35466   35493   35535       1
   35445   35469   35496   35538       1   35445   35469   35499   35544       1
   35442   35403   35409   35445       1   35427   35460   35430   35463       1
   35424   35394   35427   35457       1   35424   35394   35427   35460       1
   35418   35388   35415   35448       1   35418   35388   35415   35451       1
   35415   35451   35421   35454       1   35412   35385   35409   35445       1
   35406   35382   35403   35409       1   35406   35382   35403   35442       1
   35403   35409   35385   35412       1   35397   35376   35394   35424       1
   35397   35391   35421   35454       1   35397   35430   35460   35487       1
   35394   35427   35460   35487       1   35391   35373   35388   35418       1
   35391   35397   35430   35463       1   35391   35421   35451   35478       1
   35388   35415   35451   35478       1   35385   35409   35403   35442       1
   35376   35397   35430   35463       1   35373   35391   35421   35454       1
   35370   35367   35382   35406       1   35367   35370   35385   35412       1
   35367   35382   35403   35442       1   35364   35343   35358   35379       1
   35361   35337   35358   35379       1   35358   35379   35400   35433       2
   35358   35379   35400   35436       2   35358   35379   35400   35439       2
   35355   35331   35349   35367       1   35352   35370   35385   35412       1
   35352   35373   35388   35418       1   35352   35376   35394   35424       1
   35349   35367   35382   35406       1   35346   35322   35343   35358       1
   35346   35322   35343   35364       1   35343   35358   35337   35361       1
   35340   35319   35337   35358       1   35340   35319   35337   35361       1
   35337   35358   35343   35364       1   35334   35316   35331   35349       1
   35334   35316   35331   35355       1   35328   35313   35325   35349       1
   35328   35313   35325   35352       1   35325   35349   35331   35355       1
   35322   35310   35319   35340       1   35319   35310   35322   35346       1
   35316   35307   35313   35328       1   35313   35307   35316   35334       1
   35310   35319   35337   35361       1   35310   35322   35343   35364       1
   35307   35316   35331   35355       1   35304   35307   35313   35328       1
   35304   35307   35316   35334       1   35304   35310   35319   35340       1
   35304   35310   35322   35346       1   35301   35289   35295   35304       1
   35298   35283   35295   35304       1   35292   35271   35289   35295       1
   35292   35271   35289   35301       1   35289   35295   35283   35298       1
   35286   35268   35283   35295       1   35286   35268   35283   35298       1
   35283   35295   35289   35301       1   35271   35262   35268   35286       1
   35268   35262   35271   35292       1   35262   35259   35265   35274       2
   35262   35259   35265   35277       2   35262   35259   35265   35280       2
   35262   35268   35283   35298       1   35262   35271   35289   35301       1
   35259   35262   35268   35286       1   35259   35262   35271   35292       1
   36132   36075   36126   36150       1   36129   36069   36126   36150       1
   36126   36150   36168   36216       2   36126   36150   36168   36219       2
   36126   36150   36168   36222       2   36123   36063   36117   36147       1
   36120   36057   36117   36147       1   36117   36147   36165   36207       2
   36117   36147   36165   36210       2   36117   36147   36165   36213       2
   36114   36051   36108   36144       1   36111   36045   36108   36144       1
   36108   36144   36162   36198       2   36108   36144   36162   36201       2
   36108   36144   36162   36204       2   36105   36039   36102   36141       1
   36102   36141   36159   36189       2   36102   36141   36159   36192       2
   36102   36141   36159   36195       2   36099   36033   36102   36141       1
   36096   36030   36090   36138       1   36093   36024   36090   36138       1
   36090   36138   36156   36180       2   36090   36138   36156   36183       2
   36090   36138   36156   36186       2   36087   36015   36081   36135       1
   36084   36009   36081   36135       1   36081   36135   36153   36171       2
   36081   36135   36153   36174       2   36081   36135   36153   36177       2
   36078   36006   36075   36126       1   36078   36006   36075   36132       1
   36075   36126   36069   36129       1   36072   36003   36069   36126       1
   36072   36003   36069   36129       1   36069   36126   36075   36132       1
   36066   36000   36063   36117       1   36066   36000   36063   36123       1
   36063   36117   36057   36120       1   36060   35997   36057   36117       1
   36060   35997   36057   36120       1   36057   36117   36063   36123       1
   36054   35994   36051   36108       1   36054   35994   36051   36114       1
   36051   36108   36045   36111       1   36048   35991   36045   36108       1
   36048   35991   36045   36111       1   36045   36108   36051   36114       1
   36042   35988   36039   36102       1   36042   35988   36039   36105       1
   36039   36102   36033   36099       1   36036   35985   36033   36099       1
   36036   35985   36033   36102       1   36033   36102   36039   36105       1
   36030   36090   36024   36093       1   36027   35982   36030   36090       1
   36027   35982   36030   36096       1   36024   36090   36030   36096       1
   36021   35979   36024   36090       1   36021   35979   36024   36093       1
   36018   35976   36015   36081       1   36018   35976   36015   36087       1
   36015   36081   36009   36084       1   36012   35973   36009   36081       1
   36012   35973   36009   36084       1   36009   36081   36015   36087       1
   36006   35967   36003   36072       1   36003   35967   36006   36078       1
   36000   35964   35997   36060       1   35997   35964   36000   36066       1
   35994   35958   35991   36048       1   35991   35958   35994   36054       1
   35988   35955   35985   36036       1   35985   35955   35988   36042       1
   35982   35952   35979   36021       1   35979   35952   35982   36027       1
   35976   35949   35973   36012       1   35973   35949   35976   36018       1
   35967   36003   36069   36129       1   35967   36006   36075   36132       1
   35964   35997   36057   36120       1   35964   36000   36063   36123       1
   35958   35991   36045   36111       1   35958   35994   36051   36114       1
   35955   35985   36033   36099       1   35955   35988   36039   36105       1
   35952   35979   36024   36093       1   35952   35982   36030   36096       1
   35949   35973   36009   36084       1   35949   35976   36015   36087       1
   35946   35913   35943   35970       1   35940   35910   35943   35970       1
   35940   35964   35997   36060       1   35940   35964   36000   36066       1
   35940   35967   36003   36072       1   35940   35967   36006   36078       1
   35937   35904   35934   35961       1   35931   35898   35934   35961       1
   35931   35955   35985   36036       1   35931   35955   35988   36042       1
   35931   35958   35991   36048       1   35931   35958   35994   36054       1
   35928   35949   35973   36012       1   35928   35949   35976   36018       1
   35928   35952   35979   36021       1   35928   35952   35982   36027       1
   35925   35886   35892   35928       1   35910   35943   35913   35946       1
   35907   35877   35910   35940       1   35907   35877   35910   35943       1
   35901   35871   35898   35931       1   35901   35871   35898   35934       1
   35898   35934   35904   35937       1   35895   35868   35892   35928       1
   35889   35865   35886   35892       1   35889   35865   35886   35925       1
   35886   35892   35868   35895       1   35880   35859   35877   35907       1
   35880   35874   35904   35937       1   35880   35913   35943   35970       1
   35877   35910   35943   35970       1   35874   35856   35871   35901       1
   35874   35880   35913   35946       1   35874   35904   35934   35961       1
   35871   35898   35934   35961       1   35868   35892   35886   35925       1
   35859   35880   35913   35946       1   35856   35874   35904   35937       1
   35853   35850   35865   35889       1   35850   35853   35868   35895       1
   35850   35865   35886   35925       1   35847   35826   35841   35862       1
   35844   35820   35841   35862       1   35841   35862   35883   35916       2
   35841   35862   35883   35919       2   35841   35862   35883   35922       2
   35838   35814   35832   35850       1   35835   35853   35868   35895       1
   35835   35856   35871   35901       1   35835   35859   35877   35907       1
   35832   35850   35865   35889       1   35829   35805   35826   35841       1
   35829   35805   35826   35847       1   35826   35841   35820   35844       1
   35823   35802   35820   35841       1   35823   35802   35820   35844       1
   35820   35841   35826   35847       1   35817   35799   35814   35832       1
   35817   35799   35814   35838       1   35811   35796   35808   35832       1
   35811   35796   35808   35835       1   35808   35832   35814   35838       1
   35805   35793   35802   35823       1   35802   35793   35805   35829       1
   35799   35790   35796   35811       1   35796   35790   35799   35817       1
   35793   35802   35820   35844       1   35793   35805   35826   35847       1
   35790   35799   35814   35838       1   35787   35790   35796   35811       1
   35787   35790   35799   35817       1   35787   35793   35802   35823       1
   35787   35793   35805   35829       1   35784   35772   35778   35787       1
   35781   35766   35778   35787       1   35775   35754   35772   35778       1
   35775   35754   35772   35784       1   35772   35778   35766   35781       1
   35769   35751   35766   35778       1   35769   35751   35766   35781       1
   35766   35778   35772   35784       1   35754   35745   35751   35769       1
   35751   35745   35754   35775       1   35745   35742   35748   35757       2
   35745   35742   35748   35760       2   35745   35742   35748   35763       2
   35745   35751   35766   35781       1   35745   35754   35772   35784       1
   35742   35745   35751   35769       1   35742   35745   35754   35775       1
   36615   36558   36609   36633       1   36612   36552   36609   36633       1
   36609   36633   36651   36699       2   36609   36633   36651   36702       2
   36609   36633   36651   36705       2   36606   36546   36600   36630       1
   36603   36540   36600   36630       1   36600   36630   36648   36690       2
   36600   36630   36648   36693       2   36600   36630   36648   36696       2
   36597   36534   36591   36627       1   36594   36528   36591   36627       1
   36591   36627   36645   36681       2   36591   36627   36645   36684       2
   36591   36627   36645   36687       2   36588   36522   36585   36624       1
   36585   36624   36642   36672       2   36585   36624   36642   36675       2
   36585   36624   36642   36678       2   36582   36516   36585   36624       1
   36579   36513   36573   36621       1   36576   36507   36573   36621       1
   36573   36621   36639   36663       2   36573   36621   36639   36666       2
   36573   36621   36639   36669       2   36570   36498   36564   36618       1
   36567   36492   36564   36618       1   36564   36618   36636   36654       2
   36564   36618   36636   36657       2   36564   36618   36636   36660       2
   36561   36489   36558   36609       1   36561   36489   36558   36615       1
   36558   36609   36552   36612       1   36555   36486   36552   36609       1
   36555   36486   36552   36612       1   36552   36609   36558   36615       1
   36549   36483   36546   36600       1   36549   36483   36546   36606       1
   36546   36600   36540   36603       1   36543   36480   36540   36600       1
   36543   36480   36540   36603       1   36540   36600   36546   36606       1
   36537   36477   36534   36591       1   36537   36477   36534   36597       1
   36534   36591   36528   36594       1   36531   36474   36528   36591       1
   36531   36474   36528   36594       1   36528   36591   36534   36597       1
   36525   36471   36522   36585       1   36525   36471   36522   36588       1
   36522   36585   36516   36582       1   36519   36468   36516   36582       1
   36519   36468   36516   36585       1   36516   36585   36522   36588       1
   36513   36573   36507   36576       1   36510   36465   36513   36573       1
   36510   36465   36513   36579       1   36507   36573   36513   36579       1
   36504   36462   36507   36573       1   36504   36462   36507   36576       1
   36501   36459   36498   36564       1   36501   36459   36498   36570       1
   36498   36564   36492   36567       1   36495   36456   36492   36564       1
   36495   36456   36492   36567       1   36492   36564   36498   36570       1
   36489   36450   36486   36555       1   36486   36450   36489   36561       1
   36483   36447   36480   36543       1   36480   36447   36483   36549       1
   36477   36441   36474   36531       1   36474   36441   36477   36537       1
   36471   36438   36468   36519       1   36468   36438   36471   36525       1
   36465   36435   36462   36504       1   36462   36435   36465   36510       1
   36459   36432   36456   36495       1   36456   36432   36459   36501       1
   36450   36486   36552   36612       1   36450   36489   36558   36615       1
   36447   36480   36540   36603       1   36447   36483   36546   36606       1
   36441   36474   36528   36594       1   36441   36477   36534   36597       1
   36438   36468   36516   36582       1   36438   36471   36522   36588       1
   36435   36462   36507   36576       1   36435   36465   36513   36579       1
   36432   36456   36492   36567       1   36432   36459   36498   36570       1
   36429   36396   36426   36453       1   36423   36393   36426   36453       1
   36423   36447   36480   36543       1   36423   36447   36483   36549       1
   36423   36450   36486   36555       1   36423   36450   36489   36561       1
   36420   36387   36417   36444       1   36414   36381   36417   36444       1
   36414   36438   36468   36519       1   36414   36438   36471   36525       1
   36414   36441   36474   36531       1   36414   36441   36477   36537       1
   36411   36432   36456   36495       1   36411   36432   36459   36501       1
   36411   36435   36462   36504       1   36411   36435   36465   36510       1
   36408   36369   36375   36411       1   36393   36426   36396   36429       1
   36390   36360   36393   36423       1   36390   36360   36393   36426       1
   36384   36354   36381   36414       1   36384   36354   36381   36417       1
   36381   36417   36387   36420       1   36378   36351   36375   36411       1
   36372   36348   36369   36375       1   36372   36348   36369   36408       1
   36369   36375   36351   36378       1   36363   36342   36360   36390       1
   36363   36357   36387   36420       1   36363   36396   36426   36453       1
   36360   36393   36426   36453       1   36357   36339   36354   36384       1
   36357   36363   36396   36429       1   36357   36387   36417   36444       1
   36354   36381   36417   36444       1   36351   36375   36369   36408       1
   36342   36363   36396   36429       1   36339   36357   36387   36420       1
   36336   36333   36348   36372       1   36333   36336   36351   36378       1
   36333   36348   36369   36408       1   36330   36309   36324   36345       1
   36327   36303   36324   36345       1   36324   36345   36366   36399       2
   36324   36345   36366   36402       2   36324   36345   36366   36405       2
   36321   36297   36315   36333       1   36318   36336   36351   36378       1
   36318   36339   36354   36384       1   36318   36342   36360   36390       1
   36315   36333   36348   36372       1   36312   36288   36309   36324       1
   36312   36288   36309   36330       1   36309   36324   36303   36327       1
   36306   36285   36303   36324       1   36306   36285   36303   36327       1
   36303   36324   36309   36330       1   36300   36282   36297   36315       1
   36300   36282   36297   36321       1   36294   36279   36291   36315       1
   36294   36279   36291   36318       1   36291   36315   36297   36321       1
   36288   36276   36285   36306       1   36285   36276   36288   36312       1
   36282   36273   36279   36294       1   36279   36273   36282   36300       1
   36276   36285   36303   36327       1   36276   36288   36309   36330       1
   36273   36282   36297   36321       1   36270   36273   36279   36294       1
   36270   36273   36282   36300       1   36270   36276   36285   36306       1
   36270   36276   36288   36312       1   36267   36255   36261   36270       1
   36264   36249   36261   36270       1   36258   36237   36255   36261       1
   36258   36237   36255   36267       1   36255   36261   36249   36264       1
   36252   36234   36249   36261       1   36252   36234   36249   36264       1
   36249   36261   36255   36267       1   36237   36228   36234   36252       1
   36234   36228   36237   36258       1   36228   36225   36231   36240       2
   36228   36225   36231   36243       2   36228   36225   36231   36246       2
   36228   36234   36249   36264       1   36228   36237   36255   36267       1
   36225   36228   36234   36252       1   36225   36228   36237   36258       1
   37098   37041   37092   37116       1   37095   37035   37092   37116       1
   37092   37116   37134   37182       2   37092   37116   37134   37185       2
   37092   37116   37134   37188       2   37089   37029   37083   37113       1
   37086   37023   37083   37113       1   37083   37113   37131   37173       2
   37083   37113   37131   37176       2   37083   37113   37131   37179       2
   37080   37017   37074   37110       1   37077   37011   37074   37110       1
   37074   37110   37128   37164       2   37074   37110   37128   37167       2
   37074   37110   37128   37170       2   37071   37005   37068   37107       1
   37068   37107   37125   37155       2   37068   37107   37125   37158       2
   37068   37107   37125   37161       2   37065   36999   37068   37107       1
   37062   36996   37056   37104       1   37059   36990   37056   37104       1
   37056   37104   37122   37146       2   37056   37104   37122   37149       2
   37056   37104   37122   37152       2   37053   36981   37047   37101       1
   37050   36975   37047   37101       1   37047   37101   37119   37137       2
   37047   37101   37119   37140       2   37047   37101   37119   37143       2
   37044   36972   37041   37092       1   37044   36972   37041   37098       1
   37041   37092   37035   37095       1   37038   36969   37035   37092       1
   37038   36969   37035   37095       1   37035   37092   37041   37098       1
   37032   36966   37029   37083       1   37032   36966   37029   37089       1
   37029   37083   37023   37086       1   37026   36963   37023   37083       1
   37026   36963   37023   37086       1   37023   37083   37029   37089       1
   37020   36960   37017   37074       1   37020   36960   37017   37080       1
   37017   37074   37011   37077       1   37014   36957   37011   37074       1
   37014   36957   37011   37077       1   37011   37074   37017   37080       1
   37008   36954   37005   37068       1   37008   36954   37005   37071       1
   37005   37068   36999   37065       1   37002   36951   36999   37065       1
   37002   36951   36999   37068       1   36999   37068   37005   37071       1
   36996   37056   36990   37059       1   36993   36948   36996   37056       1
   36993   36948   36996   37062       1   36990   37056   36996   37062       1
   36987   36945   36990   37056       1   36987   36945   36990   37059       1
   36984   36942   36981   37047       1   36984   36942   36981   37053       1
   36981   37047   36975   37050       1   36978   36939   36975   37047       1
   36978   36939   36975   37050       1   36975   37047   36981   37053       1
   36972   36933   36969   37038       1   36969   36933   36972   37044       1
   36966   36930   36963   37026       1   36963   36930   36966   37032       1
   36960   36924   36957   37014       1   36957   36924   36960   37020       1
   36954   36921   36951   37002       1   36951   36921   36954   37008       1
   36948   36918   36945   36987       1   36945   36918   36948   36993       1
   36942   36915   36939   36978       1   36939   36915   36942   36984       1
   36933   36969   37035   37095       1   36933   36972   37041   37098       1
   36930   36963   37023   37086       1   36930   36966   37029   37089       1
   36924   36957   37011   37077       1   36924   36960   37017   37080       1
   36921   36951   36999   37065       1   36921   36954   37005   37071       1
   36918   36945   36990   37059       1   36918   36948   36996   37062       1
   36915   36939   36975   37050       1   36915   36942   36981   37053       1
   36912   36879   36909   36936       1   36906   36876   36909   36936       1
   36906   36930   36963   37026       1   36906   36930   36966   37032       1
   36906   36933   36969   37038       1   36906   36933   36972   37044       1
   36903   36870   36900   36927       1   36897   36864   36900   36927       1
   36897   36921   36951   37002       1   36897   36921   36954   37008       1
   36897   36924   36957   37014       1   36897   36924   36960   37020       1
   36894   36915   36939   36978       1   36894   36915   36942   36984       1
   36894   36918   36945   36987       1   36894   36918   36948   36993       1
   36891   36852   36858   36894       1   36876   36909   36879   36912       1
   36873   36843   36876   36906       1   36873   36843   36876   36909       1
   36867   36837   36864   36897       1   36867   36837   36864   36900       1
   36864   36900   36870   36903       1   36861   36834   36858   36894       1
   36855   36831   36852   36858       1   36855   36831   36852   36891       1
   36852   36858   36834   36861       1   36846   36825   36843   36873       1
   36846   36840   36870   36903       1   36846   36879   36909   36936       1
   36843   36876   36909   36936       1   36840   36822   36837   36867       1
   36840   36846   36879   36912       1   36840   36870   36900   36927       1
   36837   36864   36900   36927       1   36834   36858   36852   36891       1
   36825   36846   36879   36912       1   36822   36840   36870   36903       1
   36819   36816   36831   36855       1   36816   36819   36834   36861       1
   36816   36831   36852   36891       1   36813   36792   36807   36828       1
   36810   36786   36807   36828       1   36807   36828   36849   36882       2
   36807   36828   36849   36885       2   36807   36828   36849   36888       2
   36804   36780   36798   36816       1   36801   36819   36834   36861       1
   36801   36822   36837   36867       1   36801   36825   36843   36873       1
   36798   36816   36831   36855       1   36795   36771   36792   36807       1
   36795   36771   36792   36813       1   36792   36807   36786   36810       1
   36789   36768   36786   36807       1   36789   36768   36786   36810       1
   36786   36807   36792   36813       1   36783   36765   36780   36798       1
   36783   36765   36780   36804       1   36777   36762   36774   36798       1
   36777   36762   36774   36801       1   36774   36798   36780   36804       1
   36771   36759   36768   36789       1   36768   36759   36771   36795       1
   36765   36756   36762   36777       1   36762   36756   36765   36783       1
   36759   36768   36786   36810       1   36759   36771   36792   36813       1
   36756   36765   36780   36804       1   36753   36756   36762   36777       1
   36753   36756   36765   36783       1   36753   36759   36768   36789       1
   36753   36759   36771   36795       1   36750   36738   36744   36753       1
   36747   36732   36744   36753       1   36741   36720   36738   36744       1
   36741   36720   36738   36750       1   36738   36744   36732   36747       1
   36735   36717   36732   36744       1   36735   36717   36732   36747       1
   36732   36744   36738   36750       1   36720   36711   36717   36735       1
   36717   36711   36720   36741       1   36711   36708   36714   36723       2
   36711   36708   36714   36726       2   36711   36708   36714   36729       2
   36711   36717   36732   36747       1   36711   36720   36738   36750       1
   36708   36711   36717   36735       1   36708   36711   36720   36741       1
   37581   37524   37575   37599       1   37578   37518   37575   37599       1
   37575   37599   37617   37665       2   37575   37599   37617   37668       2
   37575   37599   37617   37671       2   37572   37512   37566   37596       1
   37569   37506   37566   37596       1   37566   37596   37614   37656       2
   37566   37596   37614   37659       2   37566   37596   37614   37662       2
   37563   37500   37557   37593       1   37560   37494   37557   37593       1
   37557   37593   37611   37647       2   37557   37593   37611   37650       2
   37557   37593   37611   37653       2   37554   37488   37551   37590       1
   37551   37590   37608   37638       2   37551   37590   37608   37641       2
   37551   37590   37608   37644       2   37548   37482   37551   37590       1
   37545   37479   37539   37587       1   37542   37473   37539   37587       1
   37539   37587   37605   37629       2   37539   37587   37605   37632       2
   37539   37587   37605   37635       2   37536   37464   37530   37584       1
   37533   37458   37530   37584       1   37530   37584   37602   37620       2
   37530   37584   37602   37623       2   37530   37584   37602   37626       2
   37527   37455   37524   37575       1   37527   37455   37524   37581       1
   37524   37575   37518   37578       1   37521   37452   37518   37575       1
   37521   37452   37518   37578       1   37518   37575   37524   37581       1
   37515   37449   37512   37566       1   37515   37449   37512   37572       1
   37512   37566   37506   37569       1   37509   37446   37506   37566       1
   37509   37446   37506   37569       1   37506   37566   37512   37572       1
   37503   37443   37500   37557       1   37503   37443   37500   37563       1
   37500   37557   37494   37560       1   37497   37440   37494   37557       1
   37497   37440   37494   37560       1   37494   37557   37500   37563       1
   37491   37437   37488   37551       1   37491   37437   37488   37554       1
   37488   37551   37482   37548       1   37485   37434   37482   37548       1
   37485   37434   37482   37551       1   37482   37551   37488   37554       1
   37479   37539   37473   37542       1   37476   37431   37479   37539       1
   37476   37431   37479   37545       1   37473   37539   37479   37545       1
   37470   37428   37473   37539       1   37470   37428   37473   37542       1
   37467   37425   37464   37530       1   37467   37425   37464   37536       1
   37464   37530   37458   37533       1   37461   37422   37458   37530       1
   37461   37422   37458   37533       1   37458   37530   37464   37536       1
   37455   37416   37452   37521       1   37452   37416   37455   37527       1
   37449   37413   37446   37509       1   37446   37413   37449   37515       1
   37443   37407   37440   37497       1   37440   37407   37443   37503       1
   37437   37404   37434   37485       1   37434   37404   37437   37491       1
   37431   37401   37428   37470       1   37428   37401   37431   37476       1
   37425   37398   37422   37461       1   37422   37398   37425   37467       1
   37416   37452   37518   37578       1   37416   37455   37524   37581       1
   37413   37446   37506   37569       1   37413   37449   37512   37572       1
   37407   37440   37494   37560       1   37407   37443   37500   37563       1
   37404   37434   37482   37548       1   37404   37437   37488   37554       1
   37401   37428   37473   37542       1   37401   37431   37479   37545       1
   37398   37422   37458   37533       1   37398   37425   37464   37536       1
   37395   37362   37392   37419       1   37389   37359   37392   37419       1
   37389   37413   37446   37509       1   37389   37413   37449   37515       1
   37389   37416   37452   37521       1   37389   37416   37455   37527       1
   37386   37353   37383   37410       1   37380   37347   37383   37410       1
   37380   37404   37434   37485       1   37380   37404   37437   37491       1
   37380   37407   37440   37497       1   37380   37407   37443   37503       1
   37377   37398   37422   37461       1   37377   37398   37425   37467       1
   37377   37401   37428   37470       1   37377   37401   37431   37476       1
   37374   37335   37341   37377       1   37359   37392   37362   37395       1
   37356   37326   37359   37389       1   37356   37326   37359   37392       1
   37350   37320   37347   37380       1   37350   37320   37347   37383       1
   37347   37383   37353   37386       1   37344   37317   37341   37377       1
   37338   37314   37335   37341       1   37338   37314   37335   37374       1
   37335   37341   37317   37344       1   37329   37308   37326   37356       1
   37329   37323   37353   37386       1   37329   37362   37392   37419       1
   37326   37359   37392   37419       1   37323   37305   37320   37350       1
   37323   37329   37362   37395       1   37323   37353   37383   37410       1
   37320   37347   37383   37410       1   37317   37341   37335   37374       1
   37308   37329   37362   37395       1   37305   37323   37353   37386       1
   37302   37299   37314   37338       1   37299   37302   37317   37344       1
   37299   37314   37335   37374       1   37296   37275   37290   37311       1
   37293   37269   37290   37311       1   37290   37311   37332   37365       2
   37290   37311   37332   37368       2   37290   37311   37332   37371       2
   37287   37263   37281   37299       1   37284   37302   37317   37344       1
   37284   37305   37320   37350       1   37284   37308   37326   37356       1
   37281   37299   37314   37338       1   37278   37254   37275   37290       1
   37278   37254   37275   37296       1   37275   37290   37269   37293       1
   37272   37251   37269   37290       1   37272   37251   37269   37293       1
   37269   37290   37275   37296       1   37266   37248   37263   37281       1
   37266   37248   37263   37287       1   37260   37245   37257   37281       1
   37260   37245   37257   37284       1   37257   37281   37263   37287       1
   37254   37242   37251   37272       1   37251   37242   37254   37278       1
   37248   37239   37245   37260       1   37245   37239   37248   37266       1
   37242   37251   37269   37293       1   37242   37254   37275   37296       1
   37239   37248   37263   37287       1   37236   37239   37245   37260       1
   37236   37239   37248   37266       1   37236   37242   37251   37272       1
   37236   37242   37254   37278       1   37233   37221   37227   37236       1
   37230   37215   37227   37236       1   37224   37203   37221   37227       1
   37224   37203   37221   37233       1   37221   37227   37215   37230       1
   37218   37200   37215   37227       1   37218   37200   37215   37230       1
   37215   37227   37221   37233       1   37203   37194   37200   37218       1
   37200   37194   37203   37224       1   37194   37191   37197   37206       2
   37194   37191   37197   37209       2   37194   37191   37197   37212       2
   37194   37200   37215   37230       1   37194   37203   37221   37233       1
   37191   37194   37200   37218       1   37191   37194   37203   37224       1
   38064   38007   38058   38082       1   38061   38001   38058   38082       1
   38058   38082   38100   38148       2   38058   38082   38100   38151       2
   38058   38082   38100   38154       2   38055   37995   38049   38079       1
   38052   37989   38049   38079       1   38049   38079   38097   38139       2
   38049   38079   38097   38142       2   38049   38079   38097   38145       2
   38046   37983   38040   38076       1   38043   37977   38040   38076       1
   38040   38076   38094   38130       2   38040   38076   38094   38133       2
   38040   38076   38094   38136       2   38037   37971   38034   38073       1
   38034   38073   38091   38121       2   38034   38073   38091   38124       2
   38034   38073   38091   38127       2   38031   37965   38034   38073       1
   38028   37962   38022   38070       1   38025   37956   38022   38070       1
   38022   38070   38088   38112       2   38022   38070   38088   38115       2
   38022   38070   38088   38118       2   38019   37947   38013   38067       1
   38016   37941   38013   38067       1   38013   38067   38085   38103       2
   38013   38067   38085   38106       2   38013   38067   38085   38109       2
   38010   37938   38007   38058       1   38010   37938   38007   38064       1
   38007   38058   38001   38061       1   38004   37935   38001   38058       1
   38004   37935   38001   38061       1   38001   38058   38007   38064       1
   37998   37932   37995   38049       1   37998   37932   37995   38055       1
   37995   38049   37989   38052       1   37992   37929   37989   38049       1
   37992   37929   37989   38052       1   37989   38049   37995   38055       1
   37986   37926   37983   38040       1   37986   37926   37983   38046       1
   37983   38040   37977   38043       1   37980   37923   37977   38040       1
   37980   37923   37977   38043       1   37977   38040   37983   38046       1
   37974   37920   37971   38034       1   37974   37920   37971   38037       1
   37971   38034   37965   38031       1   37968   37917   37965   38031       1
   37968   37917   37965   38034       1   37965   38034   37971   38037       1
   37962   38022   37956   38025       1   37959   37914   37962   38022       1
   37959   37914   37962   38028       1   37956   38022   37962   38028       1
   37953   37911   37956   38022       1   37953   37911   37956   38025       1
   37950   37908   37947   38013       1   37950   37908   37947   38019       1
   37947   38013   37941   38016       1   37944   37905   37941   38013       1
   37944   37905   37941   38016       1   37941   38013   37947   38019       1
   37938   37899   37935   38004       1   37935   37899   37938   38010       1
   37932   37896   37929   37992       1   37929   37896   37932   37998       1
   37926   37890   37923   37980       1   37923   37890   37926   37986       1
   37920   37887   37917   37968       1   37917   37887   37920   37974       1
   37914   37884   37911   37953       1   37911   37884   37914   37959       1
   37908   37881   37905   37944       1   37905   37881   37908   37950       1
   37899   37935   38001   38061       1   37899   37938   38007   38064       1
   37896   37929   37989   38052       1   37896   37932   37995   38055       1
   37890   37923   37977   38043       1   37890   37926   37983   38046       1
   37887   37917   37965   38031       1   37887   37920   37971   38037       1
   37884   37911   37956   38025       1   37884   37914   37962   38028       1
   37881   37905   37941   38016       1   37881   37908   37947   38019       1
   37878   37845   37875   37902       1   37872   37842   37875   37902       1
   37872   37896   37929   37992       1   37872   37896   37932   37998       1
   37872   37899   37935   38004       1   37872   37899   37938   38010       1
   37869   37836   37866   37893       1   37863   37830   37866   37893       1
   37863   37887   37917   37968       1   37863   37887   37920   37974       1
   37863   37890   37923   37980       1   37863   37890   37926   37986       1
   37860   37881   37905   37944       1   37860   37881   37908   37950       1
   37860   37884   37911   37953       1   37860   37884   37914   37959       1
   37857   37818   37824   37860       1   37842   37875   37845   37878       1
   37839   37809   37842   37872       1   37839   37809   37842   37875       1
   37833   37803   37830   37863       1   37833   37803   37830   37866       1
   37830   37866   37836   37869       1   37827   37800   37824   37860       1
   37821   37797   37818   37824       1   37821   37797   37818   37857       1
   37818   37824   37800   37827       1   37812   37791   37809   37839       1
   37812   37806   37836   37869       1   37812   37845   37875   37902       1
   37809   37842   37875   37902       1   37806   37788   37803   37833       1
   37806   37812   37845   37878       1   37806   37836   37866   37893       1
   37803   37830   37866   37893       1   37800   37824   37818   37857       1
   37791   37812   37845   37878       1   37788   37806   37836   37869       1
   37785   37782   37797   37821       1   37782   37785   37800   37827       1
   37782   37797   37818   37857       1   37779   37758   37773   37794       1
   37776   37752   37773   37794       1   37773   37794   37815   37848       2
   37773   37794   37815   37851       2   37773   37794   37815   37854       2
   37770   37746   37764   37782       1   37767   37785   37800   37827       1
   37767   37788   37803   37833       1   37767   37791   37809   37839       1
   37764   37782   37797   37821       1   37761   37737   37758   37773       1
   37761   37737   37758   37779       1   37758   37773   37752   37776       1
   37755   37734   37752   37773       1   37755   37734   37752   37776       1
   37752   37773   37758   37779       1   37749   37731   37746   37764       1
   37749   37731   37746   37770       1   37743   37728   37740   37764       1
   37743   37728   37740   37767       1   37740   37764   37746   37770       1
   37737   37725   37734   37755       1   37734   37725   37737   37761       1
   37731   37722   37728   37743       1   37728   37722   37731   37749       1
   37725   37734   37752   37776       1   37725   37737   37758   37779       1
   37722   37731   37746   37770       1   37719   37722   37728   37743       1
   37719   37722   37731   37749       1   37719   37725   37734   37755       1
   37719   37725   37737   37761       1   37716   37704   37710   37719       1
   37713   37698   37710   37719       1   37707   37686   37704   37710       1
   37707   37686   37704   37716       1   37704   37710   37698   37713       1
   37701   37683   37698   37710       1   37701   37683   37698   37713       1
   37698   37710   37704   37716       1   37686   37677   37683   37701       1
   37683   37677   37686   37707       1   37677   37674   37680   37689       2
   37677   37674   37680   37692       2   37677   37674   37680   37695       2
   37677   37683   37698   37713       1   37677   37686   37704   37716       1
   37674   37677   37683   37701       1   37674   37677   37686   37707       1
   38547   38490   38541   38565       1   38544   38484   38541   38565       1
   38541   38565   38583   38631       2   38541   38565   38583   38634       2
   38541   38565   38583   38637       2   38538   38478   38532   38562       1
   38535   38472   38532   38562       1   38532   38562   38580   38622       2
   38532   38562   38580   38625       2   38532   38562   38580   38628       2
   38529   38466   38523   38559       1   38526   38460   38523   38559       1
   38523   38559   38577   38613       2   38523   38559   38577   38616       2
   38523   38559   38577   38619       2   38520   38454   38517   38556       1
   38517   38556   38574   38604       2   38517   38556   38574   38607       2
   38517   38556   38574   38610       2   38514   38448   38517   38556       1
   38511   38445   38505   38553       1   38508   38439   38505   38553       1
   38505   38553   38571   38595       2   38505   38553   38571   38598       2
   38505   38553   38571   38601       2   38502   38430   38496   38550       1
   38499   38424   38496   38550       1   38496   38550   38568   38586       2
   38496   38550   38568   38589       2   38496   38550   38568   38592       2
   38493   38421   38490   38541       1   38493   38421   38490   38547       1
   38490   38541   38484   38544       1   38487   38418   38484   38541       1
   38487   38418   38484   38544       1   38484   38541   38490   38547       1
   38481   38415   38478   38532       1   38481   38415   38478   38538       1
   38478   38532   38472   38535       1   38475   38412   38472   38532       1
   38475   38412   38472   38535       1   38472   38532   38478   38538       1
   38469   38409   38466   38523       1   38469   38409   38466   38529       1
   38466   38523   38460   38526       1   38463   38406   38460   38523       1
   38463   38406   38460   38526       1   38460   38523   38466   38529       1
   38457   38403   38454   38517       1   38457   38403   38454   38520       1
   38454   38517   38448   38514       1   38451   38400   38448   38514       1
   38451   38400   38448   38517       1   38448   38517   38454   38520       1
   38445   38505   38439   38508       1   38442   38397   38445   38505       1
   38442   38397   38445   38511       1   38439   38505   38445   38511       1
   38436   38394   38439   38505       1   38436   38394   38439   38508       1
   38433   38391   38430   38496       1   38433   38391   38430   38502       1
   38430   38496   38424   38499       1   38427   38388   38424   38496       1
   38427   38388   38424   38499       1   38424   38496   38430   38502       1
   38421   38382   38418   38487       1   38418   38382   38421   38493       1
   38415   38379   38412   38475       1   38412   38379   38415   38481       1
   38409   38373   38406   38463       1   38406   38373   38409   38469       1
   38403   38370   38400   38451       1   38400   38370   38403   38457       1
   38397   38367   38394   38436       1   38394   38367   38397   38442       1
   38391   38364   38388   38427       1   38388   38364   38391   38433       1
   38382   38418   38484   38544       1   38382   38421   38490   38547       1
   38379   38412   38472   38535       1   38379   38415   38478   38538       1
   38373   38406   38460   38526       1   38373   38409   38466   38529       1
   38370   38400   38448   38514       1   38370   38403   38454   38520       1
   38367   38394   38439   38508       1   38367   38397   38445   38511       1
   38364   38388   38424   38499       1   38364   38391   38430   38502       1
   38361   38328   38358   38385       1   38355   38325   38358   38385       1
   38355   38379   38412   38475       1   38355   38379   38415   38481       1
   38355   38382   38418   38487       1   38355   38382   38421   38493       1
   38352   38319   38349   38376       1   38346   38313   38349   38376       1
   38346   38370   38400   38451       1   38346   38370   38403   38457       1
   38346   38373   38406   38463       1   38346   38373   38409   38469       1
   38343   38364   38388   38427       1   38343   38364   38391   38433       1
   38343   38367   38394   38436       1   38343   38367   38397   38442       1
   38340   38301   38307   38343       1   38325   38358   38328   38361       1
   38322   38292   38325   38355       1   38322   38292   38325   38358       1
   38316   38286   38313   38346       1   38316   38286   38313   38349       1
   38313   38349   38319   38352       1   38310   38283   38307   38343       1
   38304   38280   38301   38307       1   38304   38280   38301   38340       1
   38301   38307   38283   38310       1   38295   38274   38292   38322       1
   38295   38289   38319   38352       1   38295   38328   38358   38385       1
   38292   38325   38358   38385       1   38289   38271   38286   38316       1
   38289   38295   38328   38361       1   38289   38319   38349   38376       1
   38286   38313   38349   38376       1   38283   38307   38301   38340       1
   38274   38295   38328   38361       1   38271   38289   38319   38352       1
   38268   38265   38280   38304       1   38265   38268   38283   38310       1
   38265   38280   38301   38340       1   38262   38241   38256   38277       1
   38259   38235   38256   38277       1   38256   38277   38298   38331       2
   38256   38277   38298   38334       2   38256   38277   38298   38337       2
   38253   38229   38247   38265       1   38250   38268   38283   38310       1
   38250   38271   38286   38316       1   38250   38274   38292   38322       1
   38247   38265   38280   38304       1   38244   38220   38241   38256       1
   38244   38220   38241   38262       1   38241   38256   38235   38259       1
   38238   38217   38235   38256       1   38238   38217   38235   38259       1
   38235   38256   38241   38262       1   38232   38214   38229   38247       1
   38232   38214   38229   38253       1   38226   38211   38223   38247       1
   38226   38211   38223   38250       1   38223   38247   38229   38253       1
   38220   38208   38217   38238       1   38217   38208   38220   38244       1
   38214   38205   38211   38226       1   38211   38205   38214   38232       1
   38208   38217   38235   38259       1   38208   38220   38241   38262       1
   38205   38214   38229   38253       1   38202   38205   38211   38226       1
   38202   38205   38214   38232       1   38202   38208   38217   38238       1
   38202   38208   38220   38244       1   38199   38187   38193   38202       1
   38196   38181   38193   38202       1   38190   38169   38187   38193       1
   38190   38169   38187   38199       1   38187   38193   38181   38196       1
   38184   38166   38181   38193       1   38184   38166   38181   38196       1
   38181   38193   38187   38199       1   38169   38160   38166   38184       1
   38166   38160   38169   38190       1   38160   38157   38163   38172       2
   38160   38157   38163   38175       2   38160   38157   38163   38178       2
   38160   38166   38181   38196       1   38160   38169   38187   38199       1
   38157   38160   38166   38184       1   38157   38160   38169   38190       1
   39030   38973   39024   39048       1   39027   38967   39024   39048       1
   39024   39048   39066   39114       2   39024   39048   39066   39117       2
   39024   39048   39066   39120       2   39021   38961   39015   39045       1
   39018   38955   39015   39045       1   39015   39045   39063   39105       2
   39015   39045   39063   39108       2   39015   39045   39063   39111       2
   39012   38949   39006   39042       1   39009   38943   39006   39042       1
   39006   39042   39060   39096       2   39006   39042   39060   39099       2
   39006   39042   39060   39102       2   39003   38937   39000   39039       1
   39000   39039   39057   39087       2   39000   39039   39057   39090       2
   39000   39039   39057   39093       2   38997   38931   39000   39039       1
   38994   38928   38988   39036       1   38991   38922   38988   39036       1
   38988   39036   39054   39078       2   38988   39036   39054   39081       2
   38988   39036   39054   39084       2   38985   38913   38979   39033       1
   38982   38907   38979   39033       1   38979   39033   39051   39069       2
   38979   39033   39051   39072       2   38979   39033   39051   39075       2
   38976   38904   38973   39024       1   38976   38904   38973   39030       1
   38973   39024   38967   39027       1   38970   38901   38967   39024       1
   38970   38901   38967   39027       1   38967   39024   38973   39030       1
   38964   38898   38961   39015       1   38964   38898   38961   39021       1
   38961   39015   38955   39018       1   38958   38895   38955   39015       1
   38958   38895   38955   39018       1   38955   39015   38961   39021       1
   38952   38892   38949   39006       1   38952   38892   38949   39012       1
   38949   39006   38943   39009       1   38946   38889   38943   39006       1
   38946   38889   38943   39009       1   38943   39006   38949   39012       1
   38940   38886   38937   39000       1   38940   38886   38937   39003       1
   38937   39000   38931   38997       1   38934   38883   38931   38997       1
   38934   38883   38931   39000       1   38931   39000   38937   39003       1
   38928   38988   38922   38991       1   38925   38880   38928   38988       1
   38925   38880   38928   38994       1   38922   38988   38928   38994       1
   38919   38877   38922   38988       1   38919   38877   38922   38991       1
   38916   38874   38913   38979       1   38916   38874   38913   38985       1
   38913   38979   38907   38982       1   38910   38871   38907   38979       1
   38910   38871   38907   38982       1   38907   38979   38913   38985       1
   38904   38865   38901   38970       1   38901   38865   38904   38976       1
   38898   38862   38895   38958       1   38895   38862   38898   38964       1
   38892   38856   38889   38946       1   38889   38856   38892   38952       1
   38886   38853   38883   38934       1   38883   38853   38886   38940       1
   38880   38850   38877   38919       1   38877   38850   38880   38925       1
   38874   38847   38871   38910       1   38871   38847   38874   38916       1
   38865   38901   38967   39027       1   38865   38904   38973   39030       1
   38862   38895   38955   39018       1   38862   38898   38961   39021       1
   38856   38889   38943   39009       1   38856   38892   38949   39012       1
   38853   38883   38931   38997       1   38853   38886   38937   39003       1
   38850   38877   38922   38991       1   38850   38880   38928   38994       1
   38847   38871   38907   38982       1   38847   38874   38913   38985       1
   38844   38811   38841   38868       1   38838   38808   38841   38868       1
   38838   38862   38895   38958       1   38838   38862   38898   38964       1
   38838   38865   38901   38970       1   38838   38865   38904   38976       1
   38835   38802   38832   38859       1   38829   38796   38832   38859       1
   38829   38853   38883   38934       1   38829   38853   38886   38940       1
   38829   38856   38889   38946       1   38829   38856   38892   38952       1
   38826   38847   38871   38910       1   38826   38847   38874   38916       1
   38826   38850   38877   38919       1   38826   38850   38880   38925       1
   38823   38784   38790   38826       1   38808   38841   38811   38844       1
   38805   38775   38808   38838       1   38805   38775   38808   38841       1
   38799   38769   38796   38829       1   38799   38769   38796   38832       1
   38796   38832   38802   38835       1   38793   38766   38790   38826       1
   38787   38763   38784   38790       1   38787   38763   38784   38823       1
   38784   38790   38766   38793       1   38778   38757   38775   38805       1
   38778   38772   38802   38835       1   38778   38811   38841   38868       1
   38775   38808   38841   38868       1   38772   38754   38769   38799       1
   38772   38778   38811   38844       1   38772   38802   38832   38859       1
   38769   38796   38832   38859       1   38766   38790   38784   38823       1
   38757   38778   38811   38844       1   38754   38772   38802   38835       1
   38751   38748   38763   38787       1   38748   38751   38766   38793       1
   38748   38763   38784   38823       1   38745   38724   38739   38760       1
   38742   38718   38739   38760       1   38739   38760   38781   38814       2
   38739   38760   38781   38817       2   38739   38760   38781   38820       2
   38736   38712   38730   38748       1   38733   38751   38766   38793       1
   38733   38754   38769   38799       1   38733   38757   38775   38805       1
   38730   38748   38763   38787       1   38727   38703   38724   38739       1
   38727   38703   38724   38745       1   38724   38739   38718   38742       1
   38721   38700   38718   38739       1   38721   38700   38718   38742       1
   38718   38739   38724   38745       1   38715   38697   38712   38730       1
   38715   38697   38712   38736       1   38709   38694   38706   38730       1
   38709   38694   38706   38733       1   38706   38730   38712   38736       1
   38703   38691   38700   38721       1   38700   38691   38703   38727       1
   38697   38688   38694   38709       1   38694   38688   38697   38715       1
   38691   38700   38718   38742       1   38691   38703   38724   38745       1
   38688   38697   38712   38736       1   38685   38688   38694   38709       1
   38685   38688   38697   38715       1   38685   38691   38700   38721       1
   38685   38691   38703   38727       1   38682   38670   38676   38685       1
   38679   38664   38676   38685       1   38673   38652   38670   38676       1
   38673   38652   38670   38682       1   38670   38676   38664   38679       1
   38667   38649   38664   38676       1   38667   38649   38664   38679       1
   38664   38676   38670   38682       1   38652   38643   38649   38667       1
   38649   38643   38652   38673       1   38643   38640   38646   38655       2
   38643   38640   38646   38658       2   38643   38640   38646   38661       2
   38643   38649   38664   38679       1   38643   38652   38670   38682       1
   38640   38643   38649   38667       1   38640   38643   38652   38673       1
   39513   39456   39507   39531       1   39510   39450   39507   39531       1
   39507   39531   39549   39597       2   39507   39531   39549   39600       2
   39507   39531   39549   39603       2   39504   39444   39498   39528       1
   39501   39438   39498   39528       1   39498   39528   39546   39588       2
   39498   39528   39546   39591       2   39498   39528   39546   39594       2
   39495   39432   39489   39525       1   39492   39426   39489   39525       1
   39489   39525   39543   39579       2   39489   39525   39543   39582       2
   39489   39525   39543   39585       2   39486   39420   39483   39522       1
   39483   39522   39540   39570       2   39483   39522   39540   39573       2
   39483   39522   39540   39576       2   39480   39414   39483   39522       1
   39477   39411   39471   39519       1   39474   39405   39471   39519       1
   39471   39519   39537   39561       2   39471   39519   39537   39564       2
   39471   39519   39537   39567       2   39468   39396   39462   39516       1
   39465   39390   39462   39516       1   39462   39516   39534   39552       2
   39462   39516   39534   39555       2   39462   39516   39534   39558       2
   39459   39387   39456   39507       1   39459   39387   39456   39513       1
   39456   39507   39450   39510       1   39453   39384   39450   39507       1
   39453   39384   39450   39510       1   39450   39507   39456   39513       1
   39447   39381   39444   39498       1   39447   39381   39444   39504       1
   39444   39498   39438   39501       1   39441   39378   39438   39498       1
   39441   39378   39438   39501       1   39438   39498   39444   39504       1
   39435   39375   39432   39489       1   39435   39375   39432   39495       1
   39432   39489   39426   39492       1   39429   39372   39426   39489       1
   39429   39372   39426   39492       1   39426   39489   39432   39495       1
   39423   39369   39420   39483       1   39423   39369   39420   39486       1
   39420   39483   39414   39480       1   39417   39366   39414   39480       1
   39417   39366   39414   39483       1   39414   39483   39420   39486       1
   39411   39471   39405   39474       1   39408   39363   39411   39471       1
   39408   39363   39411   39477       1   39405   39471   39411   39477       1
   39402   39360   39405   39471       1   39402   39360   39405   39474       1
   39399   39357   39396   39462       1   39399   39357   39396   39468       1
   39396   39462   39390   39465       1   39393   39354   39390   39462       1
   39393   39354   39390   39465       1   39390   39462   39396   39468       1
   39387   39348   39384   39453       1   39384   39348   39387   39459       1
   39381   39345   39378   39441       1   39378   39345   39381   39447       1
   39375   39339   39372   39429       1   39372   39339   39375   39435       1
   39369   39336   39366   39417       1   39366   39336   39369   39423       1
   39363   39333   39360   39402       1   39360   39333   39363   39408       1
   39357   39330   39354   39393       1   39354   39330   39357   39399       1
   39348   39384   39450   39510       1   39348   39387   39456   39513       1
   39345   39378   39438   39501       1   39345   39381   39444   39504       1
   39339   39372   39426   39492       1   39339   39375   39432   39495       1
   39336   39366   39414   39480       1   39336   39369   39420   39486       1
   39333   39360   39405   39474       1   39333   39363   39411   39477       1
   39330   39354   39390   39465       1   39330   39357   39396   39468       1
   39327   39294   39324   39351       1   39321   39291   39324   39351       1
   39321   39345   39378   39441       1   39321   39345   39381   39447       1
   39321   39348   39384   39453       1   39321   39348   39387   39459       1
   39318   39285   39315   39342       1   39312   39279   39315   39342       1
   39312   39336   39366   39417       1   39312   39336   39369   39423       1
   39312   39339   39372   39429       1   39312   39339   39375   39435       1
   39309   39330   39354   39393       1   39309   39330   39357   39399       1
   39309   39333   39360   39402       1   39309   39333   39363   39408       1
   39306   39267   39273   39309       1   39291   39324   39294   39327       1
   39288   39258   39291   39321       1   39288   39258   39291   39324       1
   39282   39252   39279   39312       1   39282   39252   39279   39315       1
   39279   39315   39285   39318       1   39276   39249   39273   39309       1
   39270   39246   39267   39273       1   39270   39246   39267   39306       1
   39267   39273   39249   39276       1   39261   39240   39258   39288       1
   39261   39255   39285   39318       1   39261   39294   39324   39351       1
   39258   39291   39324   39351       1   39255   39237   39252   39282       1
   39255   39261   39294   39327       1   39255   39285   39315   39342       1
   39252   39279   39315   39342       1   39249   39273   39267   39306       1
   39240   39261   39294   39327       1   39237   39255   39285   39318       1
   39234   39231   39246   39270       1   39231   39234   39249   39276       1
   39231   39246   39267   39306       1   39228   39207   39222   39243       1
   39225   39201   39222   39243       1   39222   39243   39264   39297       2
   39222   39243   39264   39300       2   39222   39243   39264   39303       2
   39219   39195   39213   39231       1   39216   39234   39249   39276       1
   39216   39237   39252   39282       1   39216   39240   39258   39288       1
   39213   39231   39246   39270       1   39210   39186   39207   39222       1
   39210   39186   39207   39228       1   39207   39222   39201   39225       1
   39204   39183   39201   39222       1   39204   39183   39201   39225       1
   39201   39222   39207   39228       1   39198   39180   39195   39213       1
   39198   39180   39195   39219       1   39192   39177   39189   39213       1
   39192   39177   39189   39216       1   39189   39213   39195   39219       1
   39186   39174   39183   39204       1   39183   39174   39186   39210       1
   39180   39171   39177   39192       1   39177   39171   39180   39198       1
   39174   39183   39201   39225       1   39174   39186   39207   39228       1
   39171   39180   39195   39219       1   39168   39171   39177   39192       1
   39168   39171   39180   39198       1   39168   39174   39183   39204       1
   39168   39174   39186   39210       1   39165   39153   39159   39168       1
   39162   39147   39159   39168       1   39156   39135   39153   39159       1
   39156   39135   39153   39165       1   39153   39159   39147   39162       1
   39150   39132   39147   39159       1   39150   39132   39147   39162       1
   39147   39159   39153   39165       1   39135   39126   39132   39150       1
   39132   39126   39135   39156       1   39126   39123   39129   39138       2
   39126   39123   39129   39141       2   39126   39123   39129   39144       2
   39126   39132   39147   39162       1   39126   39135   39153   39165       1
   39123   39126   39132   39150       1   39123   39126   39135   39156       1
   39996   39939   39990   40014       1   39993   39933   39990   40014       1
   39990   40014   40032   40080       2   39990   40014   40032   40083       2
   39990   40014   40032   40086       2   39987   39927   39981   40011       1
   39984   39921   39981   40011       1   39981   40011   40029   40071       2
   39981   40011   40029   40074       2   39981   40011   40029   40077       2
   39978   39915   39972   40008       1   39975   39909   39972   40008       1
   39972   40008   40026   40062       2   39972   40008   40026   40065       2
   39972   40008   40026   40068       2   39969   39903   39966   40005       1
   39966   40005   40023   40053       2   39966   40005   40023   40056       2
   39966   40005   40023   40059       2   39963   39897   39966   40005       1
   39960   39894   39954   40002       1   39957   39888   39954   40002       1
   39954   40002   40020   40044       2   39954   40002   40020   40047       2
   39954   40002   40020   40050       2   39951   39879   39945   39999       1
   39948   39873   39945   39999       1   39945   39999   40017   40035       2
   39945   39999   40017   40038       2   39945   39999   40017   40041       2
   39942   39870   39939   39990       1   39942   39870   39939   39996       1
   39939   39990   39933   39993       1   39936   39867   39933   39990       1
   39936   39867   39933   39993       1   39933   39990   39939   39996       1
   39930   39864   39927   39981       1   39930   39864   39927   39987       1
   39927   39981   39921   39984       1   39924   39861   39921   39981       1
   39924   39861   39921   39984       1   39921   39981   39927   39987       1
   39918   39858   39915   39972       1   39918   39858   39915   39978       1
   39915   39972   39909   39975       1   39912   39855   39909   39972       1
   39912   39855   39909   39975       1   39909   39972   39915   39978       1
   39906   39852   39903   39966       1   39906   39852   39903   39969       1
   39903   39966   39897   39963       1   39900   39849   39897   39963       1
   39900   39849   39897   39966       1   39897   39966   39903   39969       1
   39894   39954   39888   39957       1   39891   39846   39894   39954       1
   39891   39846   39894   39960       1   39888   39954   39894   39960       1
   39885   39843   39888   39954       1   39885   39843   39888   39957       1
   39882   39840   39879   39945       1   39882   39840   39879   39951       1
   39879   39945   39873   39948       1   39876   39837   39873   39945       1
   39876   39837   39873   39948       1   39873   39945   39879   39951       1
   39870   39831   39867   39936       1   39867   39831   39870   39942       1
   39864   39828   39861   39924       1   39861   39828   39864   39930       1
   39858   39822   39855   39912       1   39855   39822   39858   39918       1
   39852   39819   39849   39900       1   39849   39819   39852   39906       1
   39846   39816   39843   39885       1   39843   39816   39846   39891       1
   39840   39813   39837   39876       1   39837   39813   39840   39882       1
   39831   39867   39933   39993       1   39831   39870   39939   39996       1
   39828   39861   39921   39984       1   39828   39864   39927   39987       1
   39822   39855   39909   39975       1   39822   39858   39915   39978       1
   39819   39849   39897   39963       1   39819   39852   39903   39969       1
   39816   39843   39888   39957       1   39816   39846   39894   39960       1
   39813   39837   39873   39948       1   39813   39840   39879   39951       1
   39810   39777   39807   39834       1   39804   39774   39807   39834       1
   39804   39828   39861   39924       1   39804   39828   39864   39930       1
   39804   39831   39867   39936       1   39804   39831   39870   39942       1
   39801   39768   39798   39825       1   39795   39762   39798   39825       1
   39795   39819   39849   39900       1   39795   39819   39852   39906       1
   39795   39822   39855   39912       1   39795   39822   39858   39918       1
   39792   39813   39837   39876       1   39792   39813   39840   39882       1
   39792   39816   39843   39885       1   39792   39816   39846   39891       1
   39789   39750   39756   39792       1   39774   39807   39777   39810       1
   39771   39741   39774   39804       1   39771   39741   39774   39807       1
   39765   39735   39762   39795       1   39765   39735   39762   39798       1
   39762   39798   39768   39801       1   39759   39732   39756   39792       1
   39753   39729   39750   39756       1   39753   39729   39750   39789       1
   39750   39756   39732   39759       1   39744   39723   39741   39771       1
   39744   39738   39768   39801       1   39744   39777   39807   39834       1
   39741   39774   39807   39834       1   39738   39720   39735   39765       1
   39738   39744   39777   39810       1   39738   39768   39798   39825       1
   39735   39762   39798   39825       1   39732   39756   39750   39789       1
   39723   39744   39777   39810       1   39720   39738   39768   39801       1
   39717   39714   39729   39753       1   39714   39717   39732   39759       1
   39714   39729   39750   39789       1   39711   39690   39705   39726       1
   39708   39684   39705   39726       1   39705   39726   39747   39780       2
   39705   39726   39747   39783       2   39705   39726   39747   39786       2
   39702   39678   39696   39714       1   39699   39717   39732   39759       1
   39699   39720   39735   39765       1   39699   39723   39741   39771       1
   39696   39714   39729   39753       1   39693   39669   39690   39705       1
   39693   39669   39690   39711       1   39690   39705   39684   39708       1
   39687   39666   39684   39705       1   39687   39666   39684   39708       1
   39684   39705   39690   39711       1   39681   39663   39678   39696       1
   39681   39663   39678   39702       1   39675   39660   39672   39696       1
   39675   39660   39672   39699       1   39672   39696   39678   39702       1
   39669   39657   39666   39687       1   39666   39657   39669   39693       1
   39663   39654   39660   39675       1   39660   39654   39663   39681       1
   39657   39666   39684   39708       1   39657   39669   39690   39711       1
   39654   39663   39678   39702       1   39651   39654   39660   39675       1
   39651   39654   39663   39681       1   39651   39657   39666   39687       1
   39651   39657   39669   39693       1   39648   39636   39642   39651       1
   39645   39630   39642   39651       1   39639   39618   39636   39642       1
   39639   39618   39636   39648       1   39636   39642   39630   39645       1
   39633   39615   39630   39642       1   39633   39615   39630   39645       1
   39630   39642   39636   39648       1   39618   39609   39615   39633       1
   39615   39609   39618   39639       1   39609   39606   39612   39621       2
   39609   39606   39612   39624       2   39609   39606   39612   39627       2
   39609   39615   39630   39645       1   39609   39618   39636   39648       1
   39606   39609   39615   39633       1   39606   39609   39618   39639       1
   40479   40422   40473   40497       1   40476   40416   40473   40497       1
   40473   40497   40515   40563       2   40473   40497   40515   40566       2
   40473   40497   40515   40569       2   40470   40410   40464   40494       1
   40467   40404   40464   40494       1   40464   40494   40512   40554       2
   40464   40494   40512   40557       2   40464   40494   40512   40560       2
   40461   40398   40455   40491       1   40458   40392   40455   40491       1
   40455   40491   40509   40545       2   40455   40491   40509   40548       2
   40455   40491   40509   40551       2   40452   40386   40449   40488       1
   40449   40488   40506   40536       2   40449   40488   40506   40539       2
   40449   40488   40506   40542       2   40446   40380   40449   40488       1
   40443   40377   40437   40485       1   40440   40371   40437   40485       1
   40437   40485   40503   40527       2   40437   40485   40503   40530       2
   40437   40485   40503   40533       2   40434   40362   40428   40482       1
   40431   40356   40428   40482       1   40428   40482   40500   40518       2
   40428   40482   40500   40521       2   40428   40482   40500   40524       2
   40425   40353   40422   40473       1   40425   40353   40422   40479       1
   40422   40473   40416   40476       1   40419   40350   40416   40473       1
   40419   40350   40416   40476       1   40416   40473   40422   40479       1
   40413   40347   40410   40464       1   40413   40347   40410   40470       1
   40410   40464   40404   40467       1   40407   40344   40404   40464       1
   40407   40344   40404   40467       1   40404   40464   40410   40470       1
   40401   40341   40398   40455       1   40401   40341   40398   40461       1
   40398   40455   40392   40458       1   40395   40338   40392   40455       1
   40395   40338   40392   40458       1   40392   40455   40398   40461       1
   40389   40335   40386   40449       1   40389   40335   40386   40452       1
   40386   40449   40380   40446       1   40383   40332   40380   40446       1
   40383   40332   40380   40449       1   40380   40449   40386   40452       1
   40377   40437   40371   40440       1   40374   40329   40377   40437       1
   40374   40329   40377   40443       1   40371   40437   40377   40443       1
   40368   40326   40371   40437       1   40368   40326   40371   40440       1
   40365   40323   40362   40428       1   40365   40323   40362   40434       1
   40362   40428   40356   40431       1   40359   40320   40356   40428       1
   40359   40320   40356   40431       1   40356   40428   40362   40434       1
   40353   40314   40350   40419       1   40350   40314   40353   40425       1
   40347   40311   40344   40407       1   40344   40311   40347   40413       1
   40341   40305   40338   40395       1   40338   40305   40341   40401       1
   40335   40302   40332   40383       1   40332   40302   40335   40389       1
   40329   40299   40326   40368       1   40326   40299   40329   40374       1
   40323   40296   40320   40359       1   40320   40296   40323   40365       1
   40314   40350   40416   40476       1   40314   40353   40422   40479       1
   40311   40344   40404   40467       1   40311   40347   40410   40470       1
   40305   40338   40392   40458       1   40305   40341   40398   40461       1
   40302   40332   40380   40446       1   40302   40335   40386   40452       1
   40299   40326   40371   40440       1   40299   40329   40377   40443       1
   40296   40320   40356   40431       1   40296   40323   40362   40434       1
   40293   40260   40290   40317       1   40287   40257   40290   40317       1
   40287   40311   40344   40407       1   40287   40311   40347   40413       1
   40287   40314   40350   40419       1   40287   40314   40353   40425       1
   40284   40251   40281   40308       1   40278   40245   40281   40308       1
   40278   40302   40332   40383       1   40278   40302   40335   40389       1
   40278   40305   40338   40395       1   40278   40305   40341   40401       1
   40275   40296   40320   40359       1   40275   40296   40323   40365       1
   40275   40299   40326   40368       1   40275   40299   40329   40374       1
   40272   40233   40239   40275       1   40257   40290   40260   40293       1
   40254   40224   40257   40287       1   40254   40224   40257   40290       1
   40248   40218   40245   40278       1   40248   40218   40245   40281       1
   40245   40281   40251   40284       1   40242   40215   40239   40275       1
   40236   40212   40233   40239       1   40236   40212   40233   40272       1
   40233   40239   40215   40242       1   40227   40206   40224   40254       1
   40227   40221   40251   40284       1   40227   40260   40290   40317       1
   40224   40257   40290   40317       1   40221   40203   40218   40248       1
   40221   40227   40260   40293       1   40221   40251   40281   40308       1
   40218   40245   40281   40308       1   40215   40239   40233   40272       1
   40206   40227   40260   40293       1   40203   40221   40251   40284       1
   40200   40197   40212   40236       1   40197   40200   40215   40242       1
   40197   40212   40233   40272       1   40194   40173   40188   40209       1
   40191   40167   40188   40209       1   40188   40209   40230   40263       2
   40188   40209   40230   40266       2   40188   40209   40230   40269       2
   40185   40161   40179   40197       1   40182   40200   40215   40242       1
   40182   40203   40218   40248       1   40182   40206   40224   40254       1
   40179   40197   40212   40236       1   40176   40152   40173   40188       1
   40176   40152   40173   40194       1   40173   40188   40167   40191       1
   40170   40149   40167   40188       1   40170   40149   40167   40191       1
   40167   40188   40173   40194       1   40164   40146   40161   40179       1
   40164   40146   40161   40185       1   40158   40143   40155   40179       1
   40158   40143   40155   40182       1   40155   40179   40161   40185       1
   40152   40140   40149   40170       1   40149   40140   40152   40176       1
   40146   40137   40143   40158       1   40143   40137   40146   40164       1
   40140   40149   40167   40191       1   40140   40152   40173   40194       1
   40137   40146   40161   40185       1   40134   40137   40143   40158       1
   40134   40137   40146   40164       1   40134   40140   40149   40170       1
   40134   40140   40152   40176       1   40131   40119   40125   40134       1
   40128   40113   40125   40134       1   40122   40101   40119   40125       1
   40122   40101   40119   40131       1   40119   40125   40113   40128       1
   40116   40098   40113   40125       1   40116   40098   40113   40128       1
   40113   40125   40119   40131       1   40101   40092   40098   40116       1
   40098   40092   40101   40122       1   40092   40089   40095   40104       2
   40092   40089   40095   40107       2   40092   40089   40095   40110       2
   40092   40098   40113   40128       1   40092   40101   40119   40131       1
   40089   40092   40098   40116       1   40089   40092   40101   40122       1
   40962   40905   40956   40980       1   40959   40899   40956   40980       1
   40956   40980   40998   41046       2   40956   40980   40998   41049       2
   40956   40980   40998   41052       2   40953   40893   40947   40977       1
   40950   40887   40947   40977       1   40947   40977   40995   41037       2
   40947   40977   40995   41040       2   40947   40977   40995   41043       2
   40944   40881   40938   40974       1   40941   40875   40938   40974       1
   40938   40974   40992   41028       2   40938   40974   40992   41031       2
   40938   40974   40992   41034       2   40935   40869   40932   40971       1
   40932   40971   40989   41019       2   40932   40971   40989   41022       2
   40932   40971   40989   41025       2   40929   40863   40932   40971       1
   40926   40860   40920   40968       1   40923   40854   40920   40968       1
   40920   40968   40986   41010       2   40920   40968   40986   41013       2
   40920   40968   40986   41016       2   40917   40845   40911   40965       1
   40914   40839   40911   40965       1   40911   40965   40983   41001       2
   40911   40965   40983   41004       2   40911   40965   40983   41007       2
   40908   40836   40905   40956       1   40908   40836   40905   40962       1
   40905   40956   40899   40959       1   40902   40833   40899   40956       1
   40902   40833   40899   40959       1   40899   40956   40905   40962       1
   40896   40830   40893   40947       1   40896   40830   40893   40953       1
   40893   40947   40887   40950       1   40890   40827   40887   40947       1
   40890   40827   40887   40950       1   40887   40947   40893   40953       1
   40884   40824   40881   40938       1   40884   40824   40881   40944       1
   40881   40938   40875   40941       1   40878   40821   40875   40938       1
   40878   40821   40875   40941       1   40875   40938   40881   40944       1
   40872   40818   40869   40932       1   40872   40818   40869   40935       1
   40869   40932   40863   40929       1   40866   40815   40863   40929       1
   40866   40815   40863   40932       1   40863   40932   40869   40935       1
   40860   40920   40854   40923       1   40857   40812   40860   40920       1
   40857   40812   40860   40926       1   40854   40920   40860   40926       1
   40851   40809   40854   40920       1   40851   40809   40854   40923       1
   40848   40806   40845   40911       1   40848   40806   40845   40917       1
   40845   40911   40839   40914       1   40842   40803   40839   40911       1
   40842   40803   40839   40914       1   40839   40911   40845   40917       1
   40836   40797   40833   40902       1   40833   40797   40836   40908       1
   40830   40794   40827   40890       1   40827   40794   40830   40896       1
   40824   40788   40821   40878       1   40821   40788   40824   40884       1
   40818   40785   40815   40866       1   40815   40785   40818   40872       1
   40812   40782   40809   40851       1   40809   40782   40812   40857       1
   40806   40779   40803   40842       1   40803   40779   40806   40848       1
   40797   40833   40899   40959       1   40797   40836   40905   40962       1
   40794   40827   40887   40950       1   40794   40830   40893   40953       1
   40788   40821   40875   40941       1   40788   40824   40881   40944       1
   40785   40815   40863   40929       1   40785   40818   40869   40935       1
   40782   40809   40854   40923       1   40782   40812   40860   40926       1
   40779   40803   40839   40914       1   40779   40806   40845   40917       1
   40776   40743   40773   40800       1   40770   40740   40773   40800       1
   40770   40794   40827   40890       1   40770   40794   40830   40896       1
   40770   40797   40833   40902       1   40770   40797   40836   40908       1
   40767   40734   40764   40791       1   40761   40728   40764   40791       1
   40761   40785   40815   40866       1   40761   40785   40818   40872       1
   40761   40788   40821   40878       1   40761   40788   40824   40884       1
   40758   40779   40803   40842       1   40758   40779   40806   40848       1
   40758   40782   40809   40851       1   40758   40782   40812   40857       1
   40755   40716   40722   40758       1   40740   40773   40743   40776       1
   40737   40707   40740   40770       1   40737   40707   40740   40773       1
   40731   40701   40728   40761       1   40731   40701   40728   40764       1
   40728   40764   40734   40767       1   40725   40698   40722   40758       1
   40719   40695   40716   40722       1   40719   40695   40716   40755       1
   40716   40722   40698   40725       1   40710   40689   40707   40737       1
   40710   40704   40734   40767       1   40710   40743   40773   40800       1
   40707   40740   40773   40800       1   40704   40686   40701   40731       1
   40704   40710   40743   40776       1   40704   40734   40764   40791       1
   40701   40728   40764   40791       1   40698   40722   40716   40755       1
   40689   40710   40743   40776       1   40686   40704   40734   40767       1
   40683   40680   40695   40719       1   40680   40683   40698   40725       1
   40680   40695   40716   40755       1   40677   40656   40671   40692       1
   40674   40650   40671   40692       1   40671   40692   40713   40746       2
   40671   40692   40713   40749       2   40671   40692   40713   40752       2
   40668   40644   40662   40680       1   40665   40683   40698   40725       1
   40665   40686   40701   40731       1   40665   40689   40707   40737       1
   40662   40680   40695   40719       1   40659   40635   40656   40671       1
   40659   40635   40656   40677       1   40656   40671   40650   40674       1
   40653   40632   40650   40671       1   40653   40632   40650   40674       1
   40650   40671   40656   40677       1   40647   40629   40644   40662       1
   40647   40629   40644   40668       1   40641   40626   40638   40662       1
   40641   40626   40638   40665       1   40638   40662   40644   40668       1
   40635   40623   40632   40653       1   40632   40623   40635   40659       1
   40629   40620   40626   40641       1   40626   40620   40629   40647       1
   40623   40632   40650   40674       1   40623   40635   40656   40677       1
   40620   40629   40644   40668       1   40617   40620   40626   40641       1
   40617   40620   40629   40647       1   40617   40623   40632   40653       1
   40617   40623   40635   40659       1   40614   40602   40608   40617       1
   40611   40596   40608   40617       1   40605   40584   40602   40608       1
   40605   40584   40602   40614       1   40602   40608   40596   40611       1
   40599   40581   40596   40608       1   40599   40581   40596   40611       1
   40596   40608   40602   40614       1   40584   40575   40581   40599       1
   40581   40575   40584   40605       1   40575   40572   40578   40587       2
   40575   40572   40578   40590       2   40575   40572   40578   40593       2
   40575   40581   40596   40611       1   40575   40584   40602   40614       1
   40572   40575   40581   40599       1   40572   40575   40584   40605       1
   41445   41388   41439   41463       1   41442   41382   41439   41463       1
   41439   41463   41481   41529       2   41439   41463   41481   41532       2
   41439   41463   41481   41535       2   41436   41376   41430   41460       1
   41433   41370   41430   41460       1   41430   41460   41478   41520       2
   41430   41460   41478   41523       2   41430   41460   41478   41526       2
   41427   41364   41421   41457       1   41424   41358   41421   41457       1
   41421   41457   41475   41511       2   41421   41457   41475   41514       2
   41421   41457   41475   41517       2   41418   41352   41415   41454       1
   41415   41454   41472   41502       2   41415   41454   41472   41505       2
   41415   41454   41472   41508       2   41412   41346   41415   41454       1
   41409   41343   41403   41451       1   41406   41337   41403   41451       1
   41403   41451   41469   41493       2   41403   41451   41469   41496       2
   41403   41451   41469   41499       2   41400   41328   41394   41448       1
   41397   41322   41394   41448       1   41394   41448   41466   41484       2
   41394   41448   41466   41487       2   41394   41448   41466   41490       2
   41391   41319   41388   41439       1   41391   41319   41388   41445       1
   41388   41439   41382   41442       1   41385   41316   41382   41439       1
   41385   41316   41382   41442       1   41382   41439   41388   41445       1
   41379   41313   41376   41430       1   41379   41313   41376   41436       1
   41376   41430   41370   41433       1   41373   41310   41370   41430       1
   41373   41310   41370   41433       1   41370   41430   41376   41436       1
   41367   41307   41364   41421       1   41367   41307   41364   41427       1
   41364   41421   41358   41424       1   41361   41304   41358   41421       1
   41361   41304   41358   41424       1   41358   41421   41364   41427       1
   41355   41301   41352   41415       1   41355   41301   41352   41418       1
   41352   41415   41346   41412       1   41349   41298   41346   41412       1
   41349   41298   41346   41415       1   41346   41415   41352   41418       1
   41343   41403   41337   41406       1   41340   41295   41343   41403       1
   41340   41295   41343   41409       1   41337   41403   41343   41409       1
   41334   41292   41337   41403       1   41334   41292   41337   41406       1
   41331   41289   41328   41394       1   41331   41289   41328   41400       1
   41328   41394   41322   41397       1   41325   41286   41322   41394       1
   41325   41286   41322   41397       1   41322   41394   41328   41400       1
   41319   41280   41316   41385       1   41316   41280   41319   41391       1
   41313   41277   41310   41373       1   41310   41277   41313   41379       1
   41307   41271   41304   41361       1   41304   41271   41307   41367       1
   41301   41268   41298   41349       1   41298   41268   41301   41355       1
   41295   41265   41292   41334       1   41292   41265   41295   41340       1
   41289   41262   41286   41325       1   41286   41262   41289   41331       1
   41280   41316   41382   41442       1   41280   41319   41388   41445       1
   41277   41310   41370   41433       1   41277   41313   41376   41436       1
   41271   41304   41358   41424       1   41271   41307   41364   41427       1
   41268   41298   41346   41412       1   41268   41301   41352   41418       1
   41265   41292   41337   41406       1   41265   41295   41343   41409       1
   41262   41286   41322   41397       1   41262   41289   41328   41400       1
   41259   41226   41256   41283       1   41253   41223   41256   41283       1
   41253   41277   41310   41373       1   41253   41277   41313   41379       1
   41253   41280   41316   41385       1   41253   41280   41319   41391       1
   41250   41217   41247   41274       1   41244   41211   41247   41274       1
   41244   41268   41298   41349       1   41244   41268   41301   41355       1
   41244   41271   41304   41361       1   41244   41271   41307   41367       1
   41241   41262   41286   41325       1   41241   41262   41289   41331       1
   41241   41265   41292   41334       1   41241   41265   41295   41340       1
   41238   41199   41205   41241       1   41223   41256   41226   41259       1
   41220   41190   41223   41253       1   41220   41190   41223   41256       1
   41214   41184   41211   41244       1   41214   41184   41211   41247       1
   41211   41247   41217   41250       1   41208   41181   41205   41241       1
   41202   41178   41199   41205       1   41202   41178   41199   41238       1
   41199   41205   41181   41208       1   41193   41172   41190   41220       1
   41193   41187   41217   41250       1   41193   41226   41256   41283       1
   41190   41223   41256   41283       1   41187   41169   41184   41214       1
   41187   41193   41226   41259       1   41187   41217   41247   41274       1
   41184   41211   41247   41274       1   41181   41205   41199   41238       1
   41172   41193   41226   41259       1   41169   41187   41217   41250       1
   41166   41163   41178   41202       1   41163   41166   41181   41208       1
   41163   41178   41199   41238       1   41160   41139   41154   41175       1
   41157   41133   41154   41175       1   41154   41175   41196   41229       2
   41154   41175   41196   41232       2   41154   41175   41196   41235       2
   41151   41127   41145   41163       1   41148   41166   41181   41208       1
   41148   41169   41184   41214       1   41148   41172   41190   41220       1
   41145   41163   41178   41202       1   41142   41118   41139   41154       1
   41142   41118   41139   41160       1   41139   41154   41133   41157       1
   41136   41115   41133   41154       1   41136   41115   41133   41157       1
   41133   41154   41139   41160       1   41130   41112   41127   41145       1
   41130   41112   41127   41151       1   41124   41109   41121   41145       1
   41124   41109   41121   41148       1   41121   41145   41127   41151       1
   41118   41106   41115   41136       1   41115   41106   41118   41142       1
   41112   41103   41109   41124       1   41109   41103   41112   41130       1
   41106   41115   41133   41157       1   41106   41118   41139   41160       1
   41103   41112   41127   41151       1   41100   41103   41109   41124       1
   41100   41103   41112   41130       1   41100   41106   41115   41136       1
   41100   41106   41118   41142       1   41097   41085   41091   41100       1
   41094   41079   41091   41100       1   41088   41067   41085   41091       1
   41088   41067   41085   41097       1   41085   41091   41079   41094       1
   41082   41064   41079   41091       1   41082   41064   41079   41094       1
   41079   41091   41085   41097       1   41067   41058   41064   41082       1
   41064   41058   41067   41088       1   41058   41055   41061   41070       2
   41058   41055   41061   41073       2   41058   41055   41061   41076       2
   41058   41064   41079   41094       1   41058   41067   41085   41097       1
   41055   41058   41064   41082       1   41055   41058   41067   41088       1
   41928   41871   41922   41946       1   41925   41865   41922   41946       1
   41922   41946   41964   42012       2   41922   41946   41964   42015       2
   41922   41946   41964   42018       2   41919   41859   41913   41943       1
   41916   41853   41913   41943       1   41913   41943   41961   42003       2
   41913   41943   41961   42006       2   41913   41943   41961   42009       2
   41910   41847   41904   41940       1   41907   41841   41904   41940       1
   41904   41940   41958   41994       2   41904   41940   41958   41997       2
   41904   41940   41958   42000       2   41901   41835   41898   41937       1
   41898   41937   41955   41985       2   41898   41937   41955   41988       2
   41898   41937   41955   41991       2   41895   41829   41898   41937       1
   41892   41826   41886   41934       1   41889   41820   41886   41934       1
   41886   41934   41952   41976       2   41886   41934   41952   41979       2
   41886   41934   41952   41982       2   41883   41811   41877   41931       1
   41880   41805   41877   41931       1   41877   41931   41949   41967       2
   41877   41931   41949   41970       2   41877   41931   41949   41973       2
   41874   41802   41871   41922       1   41874   41802   41871   41928       1
   41871   41922   41865   41925       1   41868   41799   41865   41922       1
   41868   41799   41865   41925       1   41865   41922   41871   41928       1
   41862   41796   41859   41913       1   41862   41796   41859   41919       1
   41859   41913   41853   41916       1   41856   41793   41853   41913       1
   41856   41793   41853   41916       1   41853   41913   41859   41919       1
   41850   41790   41847   41904       1   41850   41790   41847   41910       1
   41847   41904   41841   41907       1   41844   41787   41841   41904       1
   41844   41787   41841   41907       1   41841   41904   41847   41910       1
   41838   41784   41835   41898       1   41838   41784   41835   41901       1
   41835   41898   41829   41895       1   41832   41781   41829   41895       1
   41832   41781   41829   41898       1   41829   41898   41835   41901       1
   41826   41886   41820   41889       1   41823   41778   41826   41886       1
   41823   41778   41826   41892       1   41820   41886   41826   41892       1
   41817   41775   41820   41886       1   41817   41775   41820   41889       1
   41814   41772   41811   41877       1   41814   41772   41811   41883       1
   41811   41877   41805   41880       1   41808   41769   41805   41877       1
   41808   41769   41805   41880       1   41805   41877   41811   41883       1
   41802   41763   41799   41868       1   41799   41763   41802   41874       1
   41796   41760   41793   41856       1   41793   41760   41796   41862       1
   41790   41754   41787   41844       1   41787   41754   41790   41850       1
   41784   41751   41781   41832       1   41781   41751   41784   41838       1
   41778   41748   41775   41817       1   41775   41748   41778   41823       1
   41772   41745   41769   41808       1   41769   41745   41772   41814       1
   41763   41799   41865   41925       1   41763   41802   41871   41928       1
   41760   41793   41853   41916       1   41760   41796   41859   41919       1
   41754   41787   41841   41907       1   41754   41790   41847   41910       1
   41751   41781   41829   41895       1   41751   41784   41835   41901       1
   41748   41775   41820   41889       1   41748   41778   41826   41892       1
   41745   41769   41805   41880       1   41745   41772   41811   41883       1
   41742   41709   41739   41766       1   41736   41706   41739   41766       1
   41736   41760   41793   41856       1   41736   41760   41796   41862       1
   41736   41763   41799   41868       1   41736   41763   41802   41874       1
   41733   41700   41730   41757       1   41727   41694   41730   41757       1
   41727   41751   41781   41832       1   41727   41751   41784   41838       1
   41727   41754   41787   41844       1   41727   41754   41790   41850       1
   41724   41745   41769   41808       1   41724   41745   41772   41814       1
   41724   41748   41775   41817       1   41724   41748   41778   41823       1
   41721   41682   41688   41724       1   41706   41739   41709   41742       1
   41703   41673   41706   41736       1   41703   41673   41706   41739       1
   41697   41667   41694   41727       1   41697   41667   41694   41730       1
   41694   41730   41700   41733       1   41691   41664   41688   41724       1
   41685   41661   41682   41688       1   41685   41661   41682   41721       1
   41682   41688   41664   41691       1   41676   41655   41673   41703       1
   41676   41670   41700   41733       1   41676   41709   41739   41766       1
   41673   41706   41739   41766       1   41670   41652   41667   41697       1
   41670   41676   41709   41742       1   41670   41700   41730   41757       1
   41667   41694   41730   41757       1   41664   41688   41682   41721       1
   41655   41676   41709   41742       1   41652   41670   41700   41733       1
   41649   41646   41661   41685       1   41646   41649   41664   41691       1
   41646   41661   41682   41721       1   41643   41622   41637   41658       1
   41640   41616   41637   41658       1   41637   41658   41679   41712       2
   41637   41658   41679   41715       2   41637   41658   41679   41718       2
   41634   41610   41628   41646       1   41631   41649   41664   41691       1
   41631   41652   41667   41697       1   41631   41655   41673   41703       1
   41628   41646   41661   41685       1   41625   41601   41622   41637       1
   41625   41601   41622   41643       1   41622   41637   41616   41640       1
   41619   41598   41616   41637       1   41619   41598   41616   41640       1
   41616   41637   41622   41643       1   41613   41595   41610   41628       1
   41613   41595   41610   41634       1   41607   41592   41604   41628       1
   41607   41592   41604   41631       1   41604   41628   41610   41634       1
   41601   41589   41598   41619       1   41598   41589   41601   41625       1
   41595   41586   41592   41607       1   41592   41586   41595   41613       1
   41589   41598   41616   41640       1   41589   41601   41622   41643       1
   41586   41595   41610   41634       1   41583   41586   41592   41607       1
   41583   41586   41595   41613       1   41583   41589   41598   41619       1
   41583   41589   41601   41625       1   41580   41568   41574   41583       1
   41577   41562   41574   41583       1   41571   41550   41568   41574       1
   41571   41550   41568   41580       1   41568   41574   41562   41577       1
   41565   41547   41562   41574       1   41565   41547   41562   41577       1
   41562   41574   41568   41580       1   41550   41541   41547   41565       1
   41547   41541   41550   41571       1   41541   41538   41544   41553       2
   41541   41538   41544   41556       2   41541   41538   41544   41559       2
   41541   41547   41562   41577       1   41541   41550   41568   41580       1
   41538   41541   41547   41565       1   41538   41541   41550   41571       1
   42411   42354   42405   42429       1   42408   42348   42405   42429       1
   42405   42429   42447   42495       2   42405   42429   42447   42498       2
   42405   42429   42447   42501       2   42402   42342   42396   42426       1
   42399   42336   42396   42426       1   42396   42426   42444   42486       2
   42396   42426   42444   42489       2   42396   42426   42444   42492       2
   42393   42330   42387   42423       1   42390   42324   42387   42423       1
   42387   42423   42441   42477       2   42387   42423   42441   42480       2
   42387   42423   42441   42483       2   42384   42318   42381   42420       1
   42381   42420   42438   42468       2   42381   42420   42438   42471       2
   42381   42420   42438   42474       2   42378   42312   42381   42420       1
   42375   42309   42369   42417       1   42372   42303   42369   42417       1
   42369   42417   42435   42459       2   42369   42417   42435   42462       2
   42369   42417   42435   42465       2   42366   42294   42360   42414       1
   42363   42288   42360   42414       1   42360   42414   42432   42450       2
   42360   42414   42432   42453       2   42360   42414   42432   42456       2
   42357   42285   42354   42405       1   42357   42285   42354   42411       1
   42354   42405   42348   42408       1   42351   42282   42348   42405       1
   42351   42282   42348   42408       1   42348   42405   42354   42411       1
   42345   42279   42342   42396       1   42345   42279   42342   42402       1
   42342   42396   42336   42399       1   42339   42276   42336   42396       1
   42339   42276   42336   42399       1   42336   42396   42342   42402       1
   42333   42273   42330   42387       1   42333   42273   42330   42393       1
   42330   42387   42324   42390       1   42327   42270   42324   42387       1
   42327   42270   42324   42390       1   42324   42387   42330   42393       1
   42321   42267   42318   42381       1   42321   42267   42318   42384       1
   42318   42381   42312   42378       1   42315   42264   42312   42378       1
   42315   42264   42312   42381       1   42312   42381   42318   42384       1
   42309   42369   42303   42372       1   42306   42261   42309   42369       1
   42306   42261   42309   42375       1   42303   42369   42309   42375       1
   42300   42258   42303   42369       1   42300   42258   42303   42372       1
   42297   42255   42294   42360       1   42297   42255   42294   42366       1
   42294   42360   42288   42363       1   42291   42252   42288   42360       1
   42291   42252   42288   42363       1   42288   42360   42294   42366       1
   42285   42246   42282   42351       1   42282   42246   42285   42357       1
   42279   42243   42276   42339       1   42276   42243   42279   42345       1
   42273   42237   42270   42327       1   42270   42237   42273   42333       1
   42267   42234   42264   42315       1   42264   42234   42267   42321       1
   42261   42231   42258   42300       1   42258   42231   42261   42306       1
   42255   42228   42252   42291       1   42252   42228   42255   42297       1
   42246   42282   42348   42408       1   42246   42285   42354   42411       1
   42243   42276   42336   42399       1   42243   42279   42342   42402       1
   42237   42270   42324   42390       1   42237   42273   42330   42393       1
   42234   42264   42312   42378       1   42234   42267   42318   42384       1
   42231   42258   42303   42372       1   42231   42261   42309   42375       1
   42228   42252   42288   42363       1   42228   42255   42294   42366       1
   42225   42192   42222   42249       1   42219   42189   42222   42249       1
   42219   42243   42276   42339       1   42219   42243   42279   42345       1
   42219   42246   42282   42351       1   42219   42246   42285   42357       1
   42216   42183   42213   42240       1   42210   42177   42213   42240       1
   42210   42234   42264   42315       1   42210   42234   42267   42321       1
   42210   42237   42270   42327       1   42210   42237   42273   42333       1
   42207   42228   42252   42291       1   42207   42228   42255   42297       1
   42207   42231   42258   42300       1   42207   42231   42261   42306       1
   42204   42165   42171   42207       1   42189   42222   42192   42225       1
   42186   42156   42189   42219       1   42186   42156   42189   42222       1
   42180   42150   42177   42210       1   42180   42150   42177   42213       1
   42177   42213   42183   42216       1   42174   42147   42171   42207       1
   42168   42144   42165   42171       1   42168   42144   42165   42204       1
   42165   42171   42147   42174       1   42159   42138   42156   42186       1
   42159   42153   42183   42216       1   42159   42192   42222   42249       1
   42156   42189   42222   42249       1   42153   42135   42150   42180       1
   42153   42159   42192   42225       1   42153   42183   42213   42240       1
   42150   42177   42213   42240       1   42147   42171   42165   42204       1
   42138   42159   42192   42225       1   42135   42153   42183   42216       1
   42132   42129   42144   42168       1   42129   42132   42147   42174       1
   42129   42144   42165   42204       1   42126   42105   42120   42141       1
   42123   42099   42120   42141       1   42120   42141   42162   42195       2
   42120   42141   42162   42198       2   42120   42141   42162   42201       2
   42117   42093   42111   42129       1   42114   42132   42147   42174       1
   42114   42135   42150   42180       1   42114   42138   42156   42186       1
   42111   42129   42144   42168       1   42108   42084   42105   42120       1
   42108   42084   42105   42126       1   42105   42120   42099   42123       1
   42102   42081   42099   42120       1   42102   42081   42099   42123       1
   42099   42120   42105   42126       1   42096   42078   42093   42111       1
   42096   42078   42093   42117       1   42090   42075   42087   42111       1
   42090   42075   42087   42114       1   42087   42111   42093   42117       1
   42084   42072   42081   42102       1   42081   42072   42084   42108       1
   42078   42069   42075   42090       1   42075   42069   42078   42096       1
   42072   42081   42099   42123       1   42072   42084   42105   42126       1
   42069   42078   42093   42117       1   42066   42069   42075   42090       1
   42066   42069   42078   42096       1   42066   42072   42081   42102       1
   42066   42072   42084   42108       1   42063   42051   42057   42066       1
   42060   42045   42057   42066       1   42054   42033   42051   42057       1
   42054   42033   42051   42063       1   42051   42057   42045   42060       1
   42048   42030   42045   42057       1   42048   42030   42045   42060       1
   42045   42057   42051   42063       1   42033   42024   42030   42048       1
   42030   42024   42033   42054       1   42024   42021   42027   42036       2
   42024   42021   42027   42039       2   42024   42021   42027   42042       2
   42024   42030   42045   42060       1   42024   42033   42051   42063       1
   42021   42024   42030   42048       1   42021   42024   42033   42054       1
   42894   42837   42888   42912       1   42891   42831   42888   42912       1
   42888   42912   42930   42978       2   42888   42912   42930   42981       2
   42888   42912   42930   42984       2   42885   42825   42879   42909       1
   42882   42819   42879   42909       1   42879   42909   42927   42969       2
   42879   42909   42927   42972       2   42879   42909   42927   42975       2
   42876   42813   42870   42906       1   42873   42807   42870   42906       1
   42870   42906   42924   42960       2   42870   42906   42924   42963       2
   42870   42906   42924   42966       2   42867   42801   42864   42903       1
   42864   42903   42921   42951       2   42864   42903   42921   42954       2
   42864   42903   42921   42957       2   42861   42795   42864   42903       1
   42858   42792   42852   42900       1   42855   42786   42852   42900       1
   42852   42900   42918   42942       2   42852   42900   42918   42945       2
   42852   42900   42918   42948       2   42849   42777   42843   42897       1
   42846   42771   42843   42897       1   42843   42897   42915   42933       2
   42843   42897   42915   42936       2   42843   42897   42915   42939       2
   42840   42768   42837   42888       1   42840   42768   42837   42894       1
   42837   42888   42831   42891       1   42834   42765   42831   42888       1
   42834   42765   42831   42891       1   42831   42888   42837   42894       1
   42828   42762   42825   42879       1   42828   42762   42825   42885       1
   42825   42879   42819   42882       1   42822   42759   42819   42879       1
   42822   42759   42819   42882       1   42819   42879   42825   42885       1
   42816   42756   42813   42870       1   42816   42756   42813   42876       1
   42813   42870   42807   42873       1   42810   42753   42807   42870       1
   42810   42753   42807   42873       1   42807   42870   42813   42876       1
   42804   42750   42801   42864       1   42804   42750   42801   42867       1
   42801   42864   42795   42861       1   42798   42747   42795   42861       1
   42798   42747   42795   42864       1   42795   42864   42801   42867       1
   42792   42852   42786   42855       1   42789   42744   42792   42852       1
   42789   42744   42792   42858       1   42786   42852   42792   42858       1
   42783   42741   42786   42852       1   42783   42741   42786   42855       1
   42780   42738   42777   42843       1   42780   42738   42777   42849       1
   42777   42843   42771   42846       1   42774   42735   42771   42843       1
   42774   42735   42771   42846       1   42771   42843   42777   42849       1
   42768   42729   42765   42834       1   42765   42729   42768   42840       1
   42762   42726   42759   42822       1   42759   42726   42762   42828       1
   42756   42720   42753   42810       1   42753   42720   42756   42816       1
   42750   42717   42747   42798       1   42747   42717   42750   42804       1
   42744   42714   42741   42783       1   42741   42714   42744   42789       1
   42738   42711   42735   42774       1   42735   42711   42738   42780       1
   42729   42765   42831   42891       1   42729   42768   42837   42894       1
   42726   42759   42819   42882       1   42726   42762   42825   42885       1
   42720   42753   42807   42873       1   42720   42756   42813   42876       1
   42717   42747   42795   42861       1   42717   42750   42801   42867       1
   42714   42741   42786   42855       1   42714   42744   42792   42858       1
   42711   42735   42771   42846       1   42711   42738   42777   42849       1
   42708   42675   42705   42732       1   42702   42672   42705   42732       1
   42702   42726   42759   42822       1   42702   42726   42762   42828       1
   42702   42729   42765   42834       1   42702   42729   42768   42840       1
   42699   42666   42696   42723       1   42693   42660   42696   42723       1
   42693   42717   42747   42798       1   42693   42717   42750   42804       1
   42693   42720   42753   42810       1   42693   42720   42756   42816       1
   42690   42711   42735   42774       1   42690   42711   42738   42780       1
   42690   42714   42741   42783       1   42690   42714   42744   42789       1
   42687   42648   42654   42690       1   42672   42705   42675   42708       1
   42669   42639   42672   42702       1   42669   42639   42672   42705       1
   42663   42633   42660   42693       1   42663   42633   42660   42696       1
   42660   42696   42666   42699       1   42657   42630   42654   42690       1
   42651   42627   42648   42654       1   42651   42627   42648   42687       1
   42648   42654   42630   42657       1   42642   42621   42639   42669       1
   42642   42636   42666   42699       1   42642   42675   42705   42732       1
   42639   42672   42705   42732       1   42636   42618   42633   42663       1
   42636   42642   42675   42708       1   42636   42666   42696   42723       1
   42633   42660   42696   42723       1   42630   42654   42648   42687       1
   42621   42642   42675   42708       1   42618   42636   42666   42699       1
   42615   42612   42627   42651       1   42612   42615   42630   42657       1
   42612   42627   42648   42687       1   42609   42588   42603   42624       1
   42606   42582   42603   42624       1   42603   42624   42645   42678       2
   42603   42624   42645   42681       2   42603   42624   42645   42684       2
   42600   42576   42594   42612       1   42597   42615   42630   42657       1
   42597   42618   42633   42663       1   42597   42621   42639   42669       1
   42594   42612   42627   42651       1   42591   42567   42588   42603       1
   42591   42567   42588   42609       1   42588   42603   42582   42606       1
   42585   42564   42582   42603       1   42585   42564   42582   42606       1
   42582   42603   42588   42609       1   42579   42561   42576   42594       1
   42579   42561   42576   42600       1   42573   42558   42570   42594       1
   42573   42558   42570   42597       1   42570   42594   42576   42600       1
   42567   42555   42564   42585       1   42564   42555   42567   42591       1
   42561   42552   42558   42573       1   42558   42552   42561   42579       1
   42555   42564   42582   42606       1   42555   42567   42588   42609       1
   42552   42561   42576   42600       1   42549   42552   42558   42573       1
   42549   42552   42561   42579       1   42549   42555   42564   42585       1
   42549   42555   42567   42591       1   42546   42534   42540   42549       1
   42543   42528   42540   42549       1   42537   42516   42534   42540       1
   42537   42516   42534   42546       1   42534   42540   42528   42543       1
   42531   42513   42528   42540       1   42531   42513   42528   42543       1
   42528   42540   42534   42546       1   42516   42507   42513   42531       1
   42513   42507   42516   42537       1   42507   42504   42510   42519       2
   42507   42504   42510   42522       2   42507   42504   42510   42525       2
   42507   42513   42528   42543       1   42507   42516   42534   42546       1
   42504   42507   42513   42531       1   42504   42507   42516   42537       1
   43377   43320   43371   43395       1   43374   43314   43371   43395       1
   43371   43395   43413   43461       2   43371   43395   43413   43464       2
   43371   43395   43413   43467       2   43368   43308   43362   43392       1
   43365   43302   43362   43392       1   43362   43392   43410   43452       2
   43362   43392   43410   43455       2   43362   43392   43410   43458       2
   43359   43296   43353   43389       1   43356   43290   43353   43389       1
   43353   43389   43407   43443       2   43353   43389   43407   43446       2
   43353   43389   43407   43449       2   43350   43284   43347   43386       1
   43347   43386   43404   43434       2   43347   43386   43404   43437       2
   43347   43386   43404   43440       2   43344   43278   43347   43386       1
   43341   43275   43335   43383       1   43338   43269   43335   43383       1
   43335   43383   43401   43425       2   43335   43383   43401   43428       2
   43335   43383   43401   43431       2   43332   43260   43326   43380       1
   43329   43254   43326   43380       1   43326   43380   43398   43416       2
   43326   43380   43398   43419       2   43326   43380   43398   43422       2
   43323   43251   43320   43371       1   43323   43251   43320   43377       1
   43320   43371   43314   43374       1   43317   43248   43314   43371       1
   43317   43248   43314   43374       1   43314   43371   43320   43377       1
   43311   43245   43308   43362       1   43311   43245   43308   43368       1
   43308   43362   43302   43365       1   43305   43242   43302   43362       1
   43305   43242   43302   43365       1   43302   43362   43308   43368       1
   43299   43239   43296   43353       1   43299   43239   43296   43359       1
   43296   43353   43290   43356       1   43293   43236   43290   43353       1
   43293   43236   43290   43356       1   43290   43353   43296   43359       1
   43287   43233   43284   43347       1   43287   43233   43284   43350       1
   43284   43347   43278   43344       1   43281   43230   43278   43344       1
   43281   43230   43278   43347       1   43278   43347   43284   43350       1
   43275   43335   43269   43338       1   43272   43227   43275   43335       1
   43272   43227   43275   43341       1   43269   43335   43275   43341       1
   43266   43224   43269   43335       1   43266   43224   43269   43338       1
   43263   43221   43260   43326       1   43263   43221   43260   43332       1
   43260   43326   43254   43329       1   43257   43218   43254   43326       1
   43257   43218   43254   43329       1   43254   43326   43260   43332       1
   43251   43212   43248   43317       1   43248   43212   43251   43323       1
   43245   43209   43242   43305       1   43242   43209   43245   43311       1
   43239   43203   43236   43293       1   43236   43203   43239   43299       1
   43233   43200   43230   43281       1   43230   43200   43233   43287       1
   43227   43197   43224   43266       1   43224   43197   43227   43272       1
   43221   43194   43218   43257       1   43218   43194   43221   43263       1
   43212   43248   43314   43374       1   43212   43251   43320   43377       1
   43209   43242   43302   43365       1   43209   43245   43308   43368       1
   43203   43236   43290   43356       1   43203   43239   43296   43359       1
   43200   43230   43278   43344       1   43200   43233   43284   43350       1
   43197   43224   43269   43338       1   43197   43227   43275   43341       1
   43194   43218   43254   43329       1   43194   43221   43260   43332       1
   43191   43158   43188   43215       1   43185   43155   43188   43215       1
   43185   43209   43242   43305       1   43185   43209   43245   43311       1
   43185   43212   43248   43317       1   43185   43212   43251   43323       1
   43182   43149   43179   43206       1   43176   43143   43179   43206       1
   43176   43200   43230   43281       1   43176   43200   43233   43287       1
   43176   43203   43236   43293       1   43176   43203   43239   43299       1
   43173   43194   43218   43257       1   43173   43194   43221   43263       1
   43173   43197   43224   43266       1   43173   43197   43227   43272       1
   43170   43131   43137   43173       1   43155   43188   43158   43191       1
   43152   43122   43155   43185       1   43152   43122   43155   43188       1
   43146   43116   43143   43176       1   43146   43116   43143   43179       1
   43143   43179   43149   43182       1   43140   43113   43137   43173       1
   43134   43110   43131   43137       1   43134   43110   43131   43170       1
   43131   43137   43113   43140       1   43125   43104   43122   43152       1
   43125   43119   43149   43182       1   43125   43158   43188   43215       1
   43122   43155   43188   43215       1   43119   43101   43116   43146       1
   43119   43125   43158   43191       1   43119   43149   43179   43206       1
   43116   43143   43179   43206       1   43113   43137   43131   43170       1
   43104   43125   43158   43191       1   43101   43119   43149   43182       1
   43098   43095   43110   43134       1   43095   43098   43113   43140       1
   43095   43110   43131   43170       1   43092   43071   43086   43107       1
   43089   43065   43086   43107       1   43086   43107   43128   43161       2
   43086   43107   43128   43164       2   43086   43107   43128   43167       2
   43083   43059   43077   43095       1   43080   43098   43113   43140       1
   43080   43101   43116   43146       1   43080   43104   43122   43152       1
   43077   43095   43110   43134       1   43074   43050   43071   43086       1
   43074   43050   43071   43092       1   43071   43086   43065   43089       1
   43068   43047   43065   43086       1   43068   43047   43065   43089       1
   43065   43086   43071   43092       1   43062   43044   43059   43077       1
   43062   43044   43059   43083       1   43056   43041   43053   43077       1
   43056   43041   43053   43080       1   43053   43077   43059   43083       1
   43050   43038   43047   43068       1   43047   43038   43050   43074       1
   43044   43035   43041   43056       1   43041   43035   43044   43062       1
   43038   43047   43065   43089       1   43038   43050   43071   43092       1
   43035   43044   43059   43083       1   43032   43035   43041   43056       1
   43032   43035   43044   43062       1   43032   43038   43047   43068       1
   43032   43038   43050   43074       1   43029   43017   43023   43032       1
   43026   43011   43023   43032       1   43020   42999   43017   43023       1
   43020   42999   43017   43029       1   43017   43023   43011   43026       1
   43014   42996   43011   43023       1   43014   42996   43011   43026       1
   43011   43023   43017   43029       1   42999   42990   42996   43014       1
   42996   42990   42999   43020       1   42990   42987   42993   43002       2
   42990   42987   42993   43005       2   42990   42987   42993   43008       2
   42990   42996   43011   43026       1   42990   42999   43017   43029       1
   42987   42990   42996   43014       1   42987   42990   42999   43020       1
   43860   43803   43854   43878       1   43857   43797   43854   43878       1
   43854   43878   43896   43944       2   43854   43878   43896   43947       2
   43854   43878   43896   43950       2   43851   43791   43845   43875       1
   43848   43785   43845   43875       1   43845   43875   43893   43935       2
   43845   43875   43893   43938       2   43845   43875   43893   43941       2
   43842   43779   43836   43872       1   43839   43773   43836   43872       1
   43836   43872   43890   43926       2   43836   43872   43890   43929       2
   43836   43872   43890   43932       2   43833   43767   43830   43869       1
   43830   43869   43887   43917       2   43830   43869   43887   43920       2
   43830   43869   43887   43923       2   43827   43761   43830   43869       1
   43824   43758   43818   43866       1   43821   43752   43818   43866       1
   43818   43866   43884   43908       2   43818   43866   43884   43911       2
   43818   43866   43884   43914       2   43815   43743   43809   43863       1
   43812   43737   43809   43863       1   43809   43863   43881   43899       2
   43809   43863   43881   43902       2   43809   43863   43881   43905       2
   43806   43734   43803   43854       1   43806   43734   43803   43860       1
   43803   43854   43797   43857       1   43800   43731   43797   43854       1
   43800   43731   43797   43857       1   43797   43854   43803   43860       1
   43794   43728   43791   43845       1   43794   43728   43791   43851       1
   43791   43845   43785   43848       1   43788   43725   43785   43845       1
   43788   43725   43785   43848       1   43785   43845   43791   43851       1
   43782   43722   43779   43836       1   43782   43722   43779   43842       1
   43779   43836   43773   43839       1   43776   43719   43773   43836       1
   43776   43719   43773   43839       1   43773   43836   43779   43842       1
   43770   43716   43767   43830       1   43770   43716   43767   43833       1
   43767   43830   43761   43827       1   43764   43713   43761   43827       1
   43764   43713   43761   43830       1   43761   43830   43767   43833       1
   43758   43818   43752   43821       1   43755   43710   43758   43818       1
   43755   43710   43758   43824       1   43752   43818   43758   43824       1
   43749   43707   43752   43818       1   43749   43707   43752   43821       1
   43746   43704   43743   43809       1   43746   43704   43743   43815       1
   43743   43809   43737   43812       1   43740   43701   43737   43809       1
   43740   43701   43737   43812       1   43737   43809   43743   43815       1
   43734   43695   43731   43800       1   43731   43695   43734   43806       1
   43728   43692   43725   43788       1   43725   43692   43728   43794       1
   43722   43686   43719   43776       1   43719   43686   43722   43782       1
   43716   43683   43713   43764       1   43713   43683   43716   43770       1
   43710   43680   43707   43749       1   43707   43680   43710   43755       1
   43704   43677   43701   43740       1   43701   43677   43704   43746       1
   43695   43731   43797   43857       1   43695   43734   43803   43860       1
   43692   43725   43785   43848       1   43692   43728   43791   43851       1
   43686   43719   43773   43839       1   43686   43722   43779   43842       1
   43683   43713   43761   43827       1   43683   43716   43767   43833       1
   43680   43707   43752   43821       1   43680   43710   43758   43824       1
   43677   43701   43737   43812       1   43677   43704   43743   43815       1
   43674   43641   43671   43698       1   43668   43638   43671   43698       1
   43668   43692   43725   43788       1   43668   43692   43728   43794       1
   43668   43695   43731   43800       1   43668   43695   43734   43806       1
   43665   43632   43662   43689       1   43659   43626   43662   43689       1
   43659   43683   43713   43764       1   43659   43683   43716   43770       1
   43659   43686   43719   43776       1   43659   43686   43722   43782       1
   43656   43677   43701   43740       1   43656   43677   43704   43746       1
   43656   43680   43707   43749       1   43656   43680   43710   43755       1
   43653   43614   43620   43656       1   43638   43671   43641   43674       1
   43635   43605   43638   43668       1   43635   43605   43638   43671       1
   43629   43599   43626   43659       1   43629   43599   43626   43662       1
   43626   43662   43632   43665       1   43623   43596   43620   43656       1
   43617   43593   43614   43620       1   43617   43593   43614   43653       1
   43614   43620   43596   43623       1   43608   43587   43605   43635       1
   43608   43602   43632   43665       1   43608   43641   43671   43698       1
   43605   43638   43671   43698       1   43602   43584   43599   43629       1
   43602   43608   43641   43674       1   43602   43632   43662   43689       1
   43599   43626   43662   43689       1   43596   43620   43614   43653       1
   43587   43608   43641   43674       1   43584   43602   43632   43665       1
   43581   43578   43593   43617       1   43578   43581   43596   43623       1
   43578   43593   43614   43653       1   43575   43554   43569   43590       1
   43572   43548   43569   43590       1   43569   43590   43611   43644       2
   43569   43590   43611   43647       2   43569   43590   43611   43650       2
   43566   43542   43560   43578       1   43563   43581   43596   43623       1
   43563   43584   43599   43629       1   43563   43587   43605   43635       1
   43560   43578   43593   43617       1   43557   43533   43554   43569       1
   43557   43533   43554   43575       1   43554   43569   43548   43572       1
   43551   43530   43548   43569       1   43551   43530   43548   43572       1
   43548   43569   43554   43575       1   43545   43527   43542   43560       1
   43545   43527   43542   43566       1   43539   43524   43536   43560       1
   43539   43524   43536   43563       1   43536   43560   43542   43566       1
   43533   43521   43530   43551       1   43530   43521   43533   43557       1
   43527   43518   43524   43539       1   43524   43518   43527   43545       1
   43521   43530   43548   43572       1   43521   43533   43554   43575       1
   43518   43527   43542   43566       1   43515   43518   43524   43539       1
   43515   43518   43527   43545       1   43515   43521   43530   43551       1
   43515   43521   43533   43557       1   43512   43500   43506   43515       1
   43509   43494   43506   43515       1   43503   43482   43500   43506       1
   43503   43482   43500   43512       1   43500   43506   43494   43509       1
   43497   43479   43494   43506       1   43497   43479   43494   43509       1
   43494   43506   43500   43512       1   43482   43473   43479   43497       1
   43479   43473   43482   43503       1   43473   43470   43476   43485       2
   43473   43470   43476   43488       2   43473   43470   43476   43491       2
   43473   43479   43494   43509       1   43473   43482   43500   43512       1
   43470   43473   43479   43497       1   43470   43473   43482   43503       1
   44343   44286   44337   44361       1   44340   44280   44337   44361       1
   44337   44361   44379   44427       2   44337   44361   44379   44430       2
   44337   44361   44379   44433       2   44334   44274   44328   44358       1
   44331   44268   44328   44358       1   44328   44358   44376   44418       2
   44328   44358   44376   44421       2   44328   44358   44376   44424       2
   44325   44262   44319   44355       1   44322   44256   44319   44355       1
   44319   44355   44373   44409       2   44319   44355   44373   44412       2
   44319   44355   44373   44415       2   44316   44250   44313   44352       1
   44313   44352   44370   44400       2   44313   44352   44370   44403       2
   44313   44352   44370   44406       2   44310   44244   44313   44352       1
   44307   44241   44301   44349       1   44304   44235   44301   44349       1
   44301   44349   44367   44391       2   44301   44349   44367   44394       2
   44301   44349   44367   44397       2   44298   44226   44292   44346       1
   44295   44220   44292   44346       1   44292   44346   44364   44382       2
   44292   44346   44364   44385       2   44292   44346   44364   44388       2
   44289   44217   44286   44337       1   44289   44217   44286   44343       1
   44286   44337   44280   44340       1   44283   44214   44280   44337       1
   44283   44214   44280   44340       1   44280   44337   44286   44343       1
   44277   44211   44274   44328       1   44277   44211   44274   44334       1
   44274   44328   44268   44331       1   44271   44208   44268   44328       1
   44271   44208   44268   44331       1   44268   44328   44274   44334       1
   44265   44205   44262   44319       1   44265   44205   44262   44325       1
   44262   44319   44256   44322       1   44259   44202   44256   44319       1
   44259   44202   44256   44322       1   44256   44319   44262   44325       1
   44253   44199   44250   44313       1   44253   44199   44250   44316       1
   44250   44313   44244   44310       1   44247   44196   44244   44310       1
   44247   44196   44244   44313       1   44244   44313   44250   44316       1
   44241   44301   44235   44304       1   44238   44193   44241   44301       1
   44238   44193   44241   44307       1   44235   44301   44241   44307       1
   44232   44190   44235   44301       1   44232   44190   44235   44304       1
   44229   44187   44226   44292       1   44229   44187   44226   44298       1
   44226   44292   44220   44295       1   44223   44184   44220   44292       1
   44223   44184   44220   44295       1   44220   44292   44226   44298       1
   44217   44178   44214   44283       1   44214   44178   44217   44289       1
   44211   44175   44208   44271       1   44208   44175   44211   44277       1
   44205   44169   44202   44259       1   44202   44169   44205   44265       1
   44199   44166   44196   44247       1   44196   44166   44199   44253       1
   44193   44163   44190   44232       1   44190   44163   44193   44238       1
   44187   44160   44184   44223       1   44184   44160   44187   44229       1
   44178   44214   44280   44340       1   44178   44217   44286   44343       1
   44175   44208   44268   44331       1   44175   44211   44274   44334       1
   44169   44202   44256   44322       1   44169   44205   44262   44325       1
   44166   44196   44244   44310       1   44166   44199   44250   44316       1
   44163   44190   44235   44304       1   44163   44193   44241   44307       1
   44160   44184   44220   44295       1   44160   44187   44226   44298       1
   44157   44124   44154   44181       1   44151   44121   44154   44181       1
   44151   44175   44208   44271       1   44151   44175   44211   44277       1
   44151   44178   44214   44283       1   44151   44178   44217   44289       1
   44148   44115   44145   44172       1   44142   44109   44145   44172       1
   44142   44166   44196   44247       1   44142   44166   44199   44253       1
   44142   44169   44202   44259       1   44142   44169   44205   44265       1
   44139   44160   44184   44223       1   44139   44160   44187   44229       1
   44139   44163   44190   44232       1   44139   44163   44193   44238       1
   44136   44097   44103   44139       1   44121   44154   44124   44157       1
   44118   44088   44121   44151       1   44118   44088   44121   44154       1
   44112   44082   44109   44142       1   44112   44082   44109   44145       1
   44109   44145   44115   44148       1   44106   44079   44103   44139       1
   44100   44076   44097   44103       1   44100   44076   44097   44136       1
   44097   44103   44079   44106       1   44091   44070   44088   44118       1
   44091   44085   44115   44148       1   44091   44124   44154   44181       1
   44088   44121   44154   44181       1   44085   44067   44082   44112       1
   44085   44091   44124   44157       1   44085   44115   44145   44172       1
   44082   44109   44145   44172       1   44079   44103   44097   44136       1
   44070   44091   44124   44157       1   44067   44085   44115   44148       1
   44064   44061   44076   44100       1   44061   44064   44079   44106       1
   44061   44076   44097   44136       1   44058   44037   44052   44073       1
   44055   44031   44052   44073       1   44052   44073   44094   44127       2
   44052   44073   44094   44130       2   44052   44073   44094   44133       2
   44049   44025   44043   44061       1   44046   44064   44079   44106       1
   44046   44067   44082   44112       1   44046   44070   44088   44118       1
   44043   44061   44076   44100       1   44040   44016   44037   44052       1
   44040   44016   44037   44058       1   44037   44052   44031   44055       1
   44034   44013   44031   44052       1   44034   44013   44031   44055       1
   44031   44052   44037   44058       1   44028   44010   44025   44043       1
   44028   44010   44025   44049       1   44022   44007   44019   44043       1
   44022   44007   44019   44046       1   44019   44043   44025   44049       1
   44016   44004   44013   44034       1   44013   44004   44016   44040       1
   44010   44001   44007   44022       1   44007   44001   44010   44028       1
   44004   44013   44031   44055       1   44004   44016   44037   44058       1
   44001   44010   44025   44049       1   43998   44001   44007   44022       1
   43998   44001   44010   44028       1   43998   44004   44013   44034       1
   43998   44004   44016   44040       1   43995   43983   43989   43998       1
   43992   43977   43989   43998       1   43986   43965   43983   43989       1
   43986   43965   43983   43995       1   43983   43989   43977   43992       1
   43980   43962   43977   43989       1   43980   43962   43977   43992       1
   43977   43989   43983   43995       1   43965   43956   43962   43980       1
   43962   43956   43965   43986       1   43956   43953   43959   43968       2
   43956   43953   43959   43971       2   43956   43953   43959   43974       2
   43956   43962   43977   43992       1   43956   43965   43983   43995       1
   43953   43956   43962   43980       1   43953   43956   43965   43986       1
   44826   44769   44820   44844       1   44823   44763   44820   44844       1
   44820   44844   44862   44910       2   44820   44844   44862   44913       2
   44820   44844   44862   44916       2   44817   44757   44811   44841       1
   44814   44751   44811   44841       1   44811   44841   44859   44901       2
   44811   44841   44859   44904       2   44811   44841   44859   44907       2
   44808   44745   44802   44838       1   44805   44739   44802   44838       1
   44802   44838   44856   44892       2   44802   44838   44856   44895       2
   44802   44838   44856   44898       2   44799   44733   44796   44835       1
   44796   44835   44853   44883       2   44796   44835   44853   44886       2
   44796   44835   44853   44889       2   44793   44727   44796   44835       1
   44790   44724   44784   44832       1   44787   44718   44784   44832       1
   44784   44832   44850   44874       2   44784   44832   44850   44877       2
   44784   44832   44850   44880       2   44781   44709   44775   44829       1
   44778   44703   44775   44829       1   44775   44829   44847   44865       2
   44775   44829   44847   44868       2   44775   44829   44847   44871       2
   44772   44700   44769   44820       1   44772   44700   44769   44826       1
   44769   44820   44763   44823       1   44766   44697   44763   44820       1
   44766   44697   44763   44823       1   44763   44820   44769   44826       1
   44760   44694   44757   44811       1   44760   44694   44757   44817       1
   44757   44811   44751   44814       1   44754   44691   44751   44811       1
   44754   44691   44751   44814       1   44751   44811   44757   44817       1
   44748   44688   44745   44802       1   44748   44688   44745   44808       1
   44745   44802   44739   44805       1   44742   44685   44739   44802       1
   44742   44685   44739   44805       1   44739   44802   44745   44808       1
   44736   44682   44733   44796       1   44736   44682   44733   44799       1
   44733   44796   44727   44793       1   44730   44679   44727   44793       1
   44730   44679   44727   44796       1   44727   44796   44733   44799       1
   44724   44784   44718   44787       1   44721   44676   44724   44784       1
   44721   44676   44724   44790       1   44718   44784   44724   44790       1
   44715   44673   44718   44784       1   44715   44673   44718   44787       1
   44712   44670   44709   44775       1   44712   44670   44709   44781       1
   44709   44775   44703   44778       1   44706   44667   44703   44775       1
   44706   44667   44703   44778       1   44703   44775   44709   44781       1
   44700   44661   44697   44766       1   44697   44661   44700   44772       1
   44694   44658   44691   44754       1   44691   44658   44694   44760       1
   44688   44652   44685   44742       1   44685   44652   44688   44748       1
   44682   44649   44679   44730       1   44679   44649   44682   44736       1
   44676   44646   44673   44715       1   44673   44646   44676   44721       1
   44670   44643   44667   44706       1   44667   44643   44670   44712       1
   44661   44697   44763   44823       1   44661   44700   44769   44826       1
   44658   44691   44751   44814       1   44658   44694   44757   44817       1
   44652   44685   44739   44805       1   44652   44688   44745   44808       1
   44649   44679   44727   44793       1   44649   44682   44733   44799       1
   44646   44673   44718   44787       1   44646   44676   44724   44790       1
   44643   44667   44703   44778       1   44643   44670   44709   44781       1
   44640   44607   44637   44664       1   44634   44604   44637   44664       1
   44634   44658   44691   44754       1   44634   44658   44694   44760       1
   44634   44661   44697   44766       1   44634   44661   44700   44772       1
   44631   44598   44628   44655       1   44625   44592   44628   44655       1
   44625   44649   44679   44730       1   44625   44649   44682   44736       1
   44625   44652   44685   44742       1   44625   44652   44688   44748       1
   44622   44643   44667   44706       1   44622   44643   44670   44712       1
   44622   44646   44673   44715       1   44622   44646   44676   44721       1
   44619   44580   44586   44622       1   44604   44637   44607   44640       1
   44601   44571   44604   44634       1   44601   44571   44604   44637       1
   44595   44565   44592   44625       1   44595   44565   44592   44628       1
   44592   44628   44598   44631       1   44589   44562   44586   44622       1
   44583   44559   44580   44586       1   44583   44559   44580   44619       1
   44580   44586   44562   44589       1   44574   44553   44571   44601       1
   44574   44568   44598   44631       1   44574   44607   44637   44664       1
   44571   44604   44637   44664       1   44568   44550   44565   44595       1
   44568   44574   44607   44640       1   44568   44598   44628   44655       1
   44565   44592   44628   44655       1   44562   44586   44580   44619       1
   44553   44574   44607   44640       1   44550   44568   44598   44631       1
   44547   44544   44559   44583       1   44544   44547   44562   44589       1
   44544   44559   44580   44619       1   44541   44520   44535   44556       1
   44538   44514   44535   44556       1   44535   44556   44577   44610       2
   44535   44556   44577   44613       2   44535   44556   44577   44616       2
   44532   44508   44526   44544       1   44529   44547   44562   44589       1
   44529   44550   44565   44595       1   44529   44553   44571   44601       1
   44526   44544   44559   44583       1   44523   44499   44520   44535       1
   44523   44499   44520   44541       1   44520   44535   44514   44538       1
   44517   44496   44514   44535       1   44517   44496   44514   44538       1
   44514   44535   44520   44541       1   44511   44493   44508   44526       1
   44511   44493   44508   44532       1   44505   44490   44502   44526       1
   44505   44490   44502   44529       1   44502   44526   44508   44532       1
   44499   44487   44496   44517       1   44496   44487   44499   44523       1
   44493   44484   44490   44505       1   44490   44484   44493   44511       1
   44487   44496   44514   44538       1   44487   44499   44520   44541       1
   44484   44493   44508   44532       1   44481   44484   44490   44505       1
   44481   44484   44493   44511       1   44481   44487   44496   44517       1
   44481   44487   44499   44523       1   44478   44466   44472   44481       1
   44475   44460   44472   44481       1   44469   44448   44466   44472       1
   44469   44448   44466   44478       1   44466   44472   44460   44475       1
   44463   44445   44460   44472       1   44463   44445   44460   44475       1
   44460   44472   44466   44478       1   44448   44439   44445   44463       1
   44445   44439   44448   44469       1   44439   44436   44442   44451       2
   44439   44436   44442   44454       2   44439   44436   44442   44457       2
   44439   44445   44460   44475       1   44439   44448   44466   44478       1
   44436   44439   44445   44463       1   44436   44439   44448   44469       1
   45309   45252   45303   45327       1   45306   45246   45303   45327       1
   45303   45327   45345   45393       2   45303   45327   45345   45396       2
   45303   45327   45345   45399       2   45300   45240   45294   45324       1
   45297   45234   45294   45324       1   45294   45324   45342   45384       2
   45294   45324   45342   45387       2   45294   45324   45342   45390       2
   45291   45228   45285   45321       1   45288   45222   45285   45321       1
   45285   45321   45339   45375       2   45285   45321   45339   45378       2
   45285   45321   45339   45381       2   45282   45216   45279   45318       1
   45279   45318   45336   45366       2   45279   45318   45336   45369       2
   45279   45318   45336   45372       2   45276   45210   45279   45318       1
   45273   45207   45267   45315       1   45270   45201   45267   45315       1
   45267   45315   45333   45357       2   45267   45315   45333   45360       2
   45267   45315   45333   45363       2   45264   45192   45258   45312       1
   45261   45186   45258   45312       1   45258   45312   45330   45348       2
   45258   45312   45330   45351       2   45258   45312   45330   45354       2
   45255   45183   45252   45303       1   45255   45183   45252   45309       1
   45252   45303   45246   45306       1   45249   45180   45246   45303       1
   45249   45180   45246   45306       1   45246   45303   45252   45309       1
   45243   45177   45240   45294       1   45243   45177   45240   45300       1
   45240   45294   45234   45297       1   45237   45174   45234   45294       1
   45237   45174   45234   45297       1   45234   45294   45240   45300       1
   45231   45171   45228   45285       1   45231   45171   45228   45291       1
   45228   45285   45222   45288       1   45225   45168   45222   45285       1
   45225   45168   45222   45288       1   45222   45285   45228   45291       1
   45219   45165   45216   45279       1   45219   45165   45216   45282       1
   45216   45279   45210   45276       1   45213   45162   45210   45276       1
   45213   45162   45210   45279       1   45210   45279   45216   45282       1
   45207   45267   45201   45270       1   45204   45159   45207   45267       1
   45204   45159   45207   45273       1   45201   45267   45207   45273       1
   45198   45156   45201   45267       1   45198   45156   45201   45270       1
   45195   45153   45192   45258       1   45195   45153   45192   45264       1
   45192   45258   45186   45261       1   45189   45150   45186   45258       1
   45189   45150   45186   45261       1   45186   45258   45192   45264       1
   45183   45144   45180   45249       1   45180   45144   45183   45255       1
   45177   45141   45174   45237       1   45174   45141   45177   45243       1
   45171   45135   45168   45225       1   45168   45135   45171   45231       1
   45165   45132   45162   45213       1   45162   45132   45165   45219       1
   45159   45129   45156   45198       1   45156   45129   45159   45204       1
   45153   45126   45150   45189       1   45150   45126   45153   45195       1
   45144   45180   45246   45306       1   45144   45183   45252   45309       1
   45141   45174   45234   45297       1   45141   45177   45240   45300       1
   45135   45168   45222   45288       1   45135   45171   45228   45291       1
   45132   45162   45210   45276       1   45132   45165   45216   45282       1
   45129   45156   45201   45270       1   45129   45159   45207   45273       1
   45126   45150   45186   45261       1   45126   45153   45192   45264       1
   45123   45090   45120   45147       1   45117   45087   45120   45147       1
   45117   45141   45174   45237       1   45117   45141   45177   45243       1
   45117   45144   45180   45249       1   45117   45144   45183   45255       1
   45114   45081   45111   45138       1   45108   45075   45111   45138       1
   45108   45132   45162   45213       1   45108   45132   45165   45219       1
   45108   45135   45168   45225       1   45108   45135   45171   45231       1
   45105   45126   45150   45189       1   45105   45126   45153   45195       1
   45105   45129   45156   45198       1   45105   45129   45159   45204       1
   45102   45063   45069   45105       1   45087   45120   45090   45123       1
   45084   45054   45087   45117       1   45084   45054   45087   45120       1
   45078   45048   45075   45108       1   45078   45048   45075   45111       1
   45075   45111   45081   45114       1   45072   45045   45069   45105       1
   45066   45042   45063   45069       1   45066   45042   45063   45102       1
   45063   45069   45045   45072       1   45057   45036   45054   45084       1
   45057   45051   45081   45114       1   45057   45090   45120   45147       1
   45054   45087   45120   45147       1   45051   45033   45048   45078       1
   45051   45057   45090   45123       1   45051   45081   45111   45138       1
   45048   45075   45111   45138       1   45045   45069   45063   45102       1
   45036   45057   45090   45123       1   45033   45051   45081   45114       1
   45030   45027   45042   45066       1   45027   45030   45045   45072       1
   45027   45042   45063   45102       1   45024   45003   45018   45039       1
   45021   44997   45018   45039       1   45018   45039   45060   45093       2
   45018   45039   45060   45096       2   45018   45039   45060   45099       2
   45015   44991   45009   45027       1   45012   45030   45045   45072       1
   45012   45033   45048   45078       1   45012   45036   45054   45084       1
   45009   45027   45042   45066       1   45006   44982   45003   45018       1
   45006   44982   45003   45024       1   45003   45018   44997   45021       1
   45000   44979   44997   45018       1   45000   44979   44997   45021       1
   44997   45018   45003   45024       1   44994   44976   44991   45009       1
   44994   44976   44991   45015       1   44988   44973   44985   45009       1
   44988   44973   44985   45012       1   44985   45009   44991   45015       1
   44982   44970   44979   45000       1   44979   44970   44982   45006       1
   44976   44967   44973   44988       1   44973   44967   44976   44994       1
   44970   44979   44997   45021       1   44970   44982   45003   45024       1
   44967   44976   44991   45015       1   44964   44967   44973   44988       1
   44964   44967   44976   44994       1   44964   44970   44979   45000       1
   44964   44970   44982   45006       1   44961   44949   44955   44964       1
   44958   44943   44955   44964       1   44952   44931   44949   44955       1
   44952   44931   44949   44961       1   44949   44955   44943   44958       1
   44946   44928   44943   44955       1   44946   44928   44943   44958       1
   44943   44955   44949   44961       1   44931   44922   44928   44946       1
   44928   44922   44931   44952       1   44922   44919   44925   44934       2
   44922   44919   44925   44937       2   44922   44919   44925   44940       2
   44922   44928   44943   44958       1   44922   44931   44949   44961       1
   44919   44922   44928   44946       1   44919   44922   44931   44952       1
   45792   45735   45786   45810       1   45789   45729   45786   45810       1
   45786   45810   45828   45876       2   45786   45810   45828   45879       2
   45786   45810   45828   45882       2   45783   45723   45777   45807       1
   45780   45717   45777   45807       1   45777   45807   45825   45867       2
   45777   45807   45825   45870       2   45777   45807   45825   45873       2
   45774   45711   45768   45804       1   45771   45705   45768   45804       1
   45768   45804   45822   45858       2   45768   45804   45822   45861       2
   45768   45804   45822   45864       2   45765   45699   45762   45801       1
   45762   45801   45819   45849       2   45762   45801   45819   45852       2
   45762   45801   45819   45855       2   45759   45693   45762   45801       1
   45756   45690   45750   45798       1   45753   45684   45750   45798       1
   45750   45798   45816   45840       2   45750   45798   45816   45843       2
   45750   45798   45816   45846       2   45747   45675   45741   45795       1
   45744   45669   45741   45795       1   45741   45795   45813   45831       2
   45741   45795   45813   45834       2   45741   45795   45813   45837       2
   45738   45666   45735   45786       1   45738   45666   45735   45792       1
   45735   45786   45729   45789       1   45732   45663   45729   45786       1
   45732   45663   45729   45789       1   45729   45786   45735   45792       1
   45726   45660   45723   45777       1   45726   45660   45723   45783       1
   45723   45777   45717   45780       1   45720   45657   45717   45777       1
   45720   45657   45717   45780       1   45717   45777   45723   45783       1
   45714   45654   45711   45768       1   45714   45654   45711   45774       1
   45711   45768   45705   45771       1   45708   45651   45705   45768       1
   45708   45651   45705   45771       1   45705   45768   45711   45774       1
   45702   45648   45699   45762       1   45702   45648   45699   45765       1
   45699   45762   45693   45759       1   45696   45645   45693   45759       1
   45696   45645   45693   45762       1   45693   45762   45699   45765       1
   45690   45750   45684   45753       1   45687   45642   45690   45750       1
   45687   45642   45690   45756       1   45684   45750   45690   45756       1
   45681   45639   45684   45750       1   45681   45639   45684   45753       1
   45678   45636   45675   45741       1   45678   45636   45675   45747       1
   45675   45741   45669   45744       1   45672   45633   45669   45741       1
   45672   45633   45669   45744       1   45669   45741   45675   45747       1
   45666   45627   45663   45732       1   45663   45627   45666   45738       1
   45660   45624   45657   45720       1   45657   45624   45660   45726       1
   45654   45618   45651   45708       1   45651   45618   45654   45714       1
   45648   45615   45645   45696       1   45645   45615   45648   45702       1
   45642   45612   45639   45681       1   45639   45612   45642   45687       1
   45636   45609   45633   45672       1   45633   45609   45636   45678       1
   45627   45663   45729   45789       1   45627   45666   45735   45792       1
   45624   45657   45717   45780       1   45624   45660   45723   45783       1
   45618   45651   45705   45771       1   45618   45654   45711   45774       1
   45615   45645   45693   45759       1   45615   45648   45699   45765       1
   45612   45639   45684   45753       1   45612   45642   45690   45756       1
   45609   45633   45669   45744       1   45609   45636   45675   45747       1
   45606   45573   45603   45630       1   45600   45570   45603   45630       1
   45600   45624   45657   45720       1   45600   45624   45660   45726       1
   45600   45627   45663   45732       1   45600   45627   45666   45738       1
   45597   45564   45594   45621       1   45591   45558   45594   45621       1
   45591   45615   45645   45696       1   45591   45615   45648   45702       1
   45591   45618   45651   45708       1   45591   45618   45654   45714       1
   45588   45609   45633   45672       1   45588   45609   45636   45678       1
   45588   45612   45639   45681       1   45588   45612   45642   45687       1
   45585   45546   45552   45588       1   45570   45603   45573   45606       1
   45567   45537   45570   45600       1   45567   45537   45570   45603       1
   45561   45531   45558   45591       1   45561   45531   45558   45594       1
   45558   45594   45564   45597       1   45555   45528   45552   45588       1
   45549   45525   45546   45552       1   45549   45525   45546   45585       1
   45546   45552   45528   45555       1   45540   45519   45537   45567       1
   45540   45534   45564   45597       1   45540   45573   45603   45630       1
   45537   45570   45603   45630       1   45534   45516   45531   45561       1
   45534   45540   45573   45606       1   45534   45564   45594   45621       1
   45531   45558   45594   45621       1   45528   45552   45546   45585       1
   45519   45540   45573   45606       1   45516   45534   45564   45597       1
   45513   45510   45525   45549       1   45510   45513   45528   45555       1
   45510   45525   45546   45585       1   45507   45486   45501   45522       1
   45504   45480   45501   45522       1   45501   45522   45543   45576       2
   45501   45522   45543   45579       2   45501   45522   45543   45582       2
   45498   45474   45492   45510       1   45495   45513   45528   45555       1
   45495   45516   45531   45561       1   45495   45519   45537   45567       1
   45492   45510   45525   45549       1   45489   45465   45486   45501       1
   45489   45465   45486   45507       1   45486   45501   45480   45504       1
   45483   45462   45480   45501       1   45483   45462   45480   45504       1
   45480   45501   45486   45507       1   45477   45459   45474   45492       1
   45477   45459   45474   45498       1   45471   45456   45468   45492       1
   45471   45456   45468   45495       1   45468   45492   45474   45498       1
   45465   45453   45462   45483       1   45462   45453   45465   45489       1
   45459   45450   45456   45471       1   45456   45450   45459   45477       1
   45453   45462   45480   45504       1   45453   45465   45486   45507       1
   45450   45459   45474   45498       1   45447   45450   45456   45471       1
   45447   45450   45459   45477       1   45447   45453   45462   45483       1
   45447   45453   45465   45489       1   45444   45432   45438   45447       1
   45441   45426   45438   45447       1   45435   45414   45432   45438       1
   45435   45414   45432   45444       1   45432   45438   45426   45441       1
   45429   45411   45426   45438       1   45429   45411   45426   45441       1
   45426   45438   45432   45444       1   45414   45405   45411   45429       1
   45411   45405   45414   45435       1   45405   45402   45408   45417       2
   45405   45402   45408   45420       2   45405   45402   45408   45423       2
   45405   45411   45426   45441       1   45405   45414   45432   45444       1
   45402   45405   45411   45429       1   45402   45405   45414   45435       1
   46275   46218   46269   46293       1   46272   46212   46269   46293       1
   46269   46293   46311   46359       2   46269   46293   46311   46362       2
   46269   46293   46311   46365       2   46266   46206   46260   46290       1
   46263   46200   46260   46290       1   46260   46290   46308   46350       2
   46260   46290   46308   46353       2   46260   46290   46308   46356       2
   46257   46194   46251   46287       1   46254   46188   46251   46287       1
   46251   46287   46305   46341       2   46251   46287   46305   46344       2
   46251   46287   46305   46347       2   46248   46182   46245   46284       1
   46245   46284   46302   46332       2   46245   46284   46302   46335       2
   46245   46284   46302   46338       2   46242   46176   46245   46284       1
   46239   46173   46233   46281       1   46236   46167   46233   46281       1
   46233   46281   46299   46323       2   46233   46281   46299   46326       2
   46233   46281   46299   46329       2   46230   46158   46224   46278       1
   46227   46152   46224   46278       1   46224   46278   46296   46314       2
   46224   46278   46296   46317       2   46224   46278   46296   46320       2
   46221   46149   46218   46269       1   46221   46149   46218   46275       1
   46218   46269   46212   46272       1   46215   46146   46212   46269       1
   46215   46146   46212   46272       1   46212   46269   46218   46275       1
   46209   46143   46206   46260       1   46209   46143   46206   46266       1
   46206   46260   46200   46263       1   46203   46140   46200   46260       1
   46203   46140   46200   46263       1   46200   46260   46206   46266       1
   46197   46137   46194   46251       1   46197   46137   46194   46257       1
   46194   46251   46188   46254       1   46191   46134   46188   46251       1
   46191   46134   46188   46254       1   46188   46251   46194   46257       1
   46185   46131   46182   46245       1   46185   46131   46182   46248       1
   46182   46245   46176   46242       1   46179   46128   46176   46242       1
   46179   46128   46176   46245       1   46176   46245   46182   46248       1
   46173   46233   46167   46236       1   46170   46125   46173   46233       1
   46170   46125   46173   46239       1   46167   46233   46173   46239       1
   46164   46122   46167   46233       1   46164   46122   46167   46236       1
   46161   46119   46158   46224       1   46161   46119   46158   46230       1
   46158   46224   46152   46227       1   46155   46116   46152   46224       1
   46155   46116   46152   46227       1   46152   46224   46158   46230       1
   46149   46110   46146   46215       1   46146   46110   46149   46221       1
   46143   46107   46140   46203       1   46140   46107   46143   46209       1
   46137   46101   46134   46191       1   46134   46101   46137   46197       1
   46131   46098   46128   46179       1   46128   46098   46131   46185       1
   46125   46095   46122   46164       1   46122   46095   46125   46170       1
   46119   46092   46116   46155       1   46116   46092   46119   46161       1
   46110   46146   46212   46272       1   46110   46149   46218   46275       1
   46107   46140   46200   46263       1   46107   46143   46206   46266       1
   46101   46134   46188   46254       1   46101   46137   46194   46257       1
   46098   46128   46176   46242       1   46098   46131   46182   46248       1
   46095   46122   46167   46236       1   46095   46125   46173   46239       1
   46092   46116   46152   46227       1   46092   46119   46158   46230       1
   46089   46056   46086   46113       1   46083   46053   46086   46113       1
   46083   46107   46140   46203       1   46083   46107   46143   46209       1
   46083   46110   46146   46215       1   46083   46110   46149   46221       1
   46080   46047   46077   46104       1   46074   46041   46077   46104       1
   46074   46098   46128   46179       1   46074   46098   46131   46185       1
   46074   46101   46134   46191       1   46074   46101   46137   46197       1
   46071   46092   46116   46155       1   46071   46092   46119   46161       1
   46071   46095   46122   46164       1   46071   46095   46125   46170       1
   46068   46029   46035   46071       1   46053   46086   46056   46089       1
   46050   46020   46053   46083       1   46050   46020   46053   46086       1
   46044   46014   46041   46074       1   46044   46014   46041   46077       1
   46041   46077   46047   46080       1   46038   46011   46035   46071       1
   46032   46008   46029   46035       1   46032   46008   46029   46068       1
   46029   46035   46011   46038       1   46023   46002   46020   46050       1
   46023   46017   46047   46080       1   46023   46056   46086   46113       1
   46020   46053   46086   46113       1   46017   45999   46014   46044       1
   46017   46023   46056   46089       1   46017   46047   46077   46104       1
   46014   46041   46077   46104       1   46011   46035   46029   46068       1
   46002   46023   46056   46089       1   45999   46017   46047   46080       1
   45996   45993   46008   46032       1   45993   45996   46011   46038       1
   45993   46008   46029   46068       1   45990   45969   45984   46005       1
   45987   45963   45984   46005       1   45984   46005   46026   46059       2
   45984   46005   46026   46062       2   45984   46005   46026   46065       2
   45981   45957   45975   45993       1   45978   45996   46011   46038       1
   45978   45999   46014   46044       1   45978   46002   46020   46050       1
   45975   45993   46008   46032       1   45972   45948   45969   45984       1
   45972   45948   45969   45990       1   45969   45984   45963   45987       1
   45966   45945   45963   45984       1   45966   45945   45963   45987       1
   45963   45984   45969   45990       1   45960   45942   45957   45975       1
   45960   45942   45957   45981       1   45954   45939   45951   45975       1
   45954   45939   45951   45978       1   45951   45975   45957   45981       1
   45948   45936   45945   45966       1   45945   45936   45948   45972       1
   45942   45933   45939   45954       1   45939   45933   45942   45960       1
   45936   45945   45963   45987       1   45936   45948   45969   45990       1
   45933   45942   45957   45981       1   45930   45933   45939   45954       1
   45930   45933   45942   45960       1   45930   45936   45945   45966       1
   45930   45936   45948   45972       1   45927   45915   45921   45930       1
   45924   45909   45921   45930       1   45918   45897   45915   45921       1
   45918   45897   45915   45927       1   45915   45921   45909   45924       1
   45912   45894   45909   45921       1   45912   45894   45909   45924       1
   45909   45921   45915   45927       1   45897   45888   45894   45912       1
   45894   45888   45897   45918       1   45888   45885   45891   45900       2
   45888   45885   45891   45903       2   45888   45885   45891   45906       2
   45888   45894   45909   45924       1   45888   45897   45915   45927       1
   45885   45888   45894   45912       1   45885   45888   45897   45918       1
   46758   46701   46752   46776       1   46755   46695   46752   46776       1
   46752   46776   46794   46842       2   46752   46776   46794   46845       2
   46752   46776   46794   46848       2   46749   46689   46743   46773       1
   46746   46683   46743   46773       1   46743   46773   46791   46833       2
   46743   46773   46791   46836       2   46743   46773   46791   46839       2
   46740   46677   46734   46770       1   46737   46671   46734   46770       1
   46734   46770   46788   46824       2   46734   46770   46788   46827       2
   46734   46770   46788   46830       2   46731   46665   46728   46767       1
   46728   46767   46785   46815       2   46728   46767   46785   46818       2
   46728   46767   46785   46821       2   46725   46659   46728   46767       1
   46722   46656   46716   46764       1   46719   46650   46716   46764       1
   46716   46764   46782   46806       2   46716   46764   46782   46809       2
   46716   46764   46782   46812       2   46713   46641   46707   46761       1
   46710   46635   46707   46761       1   46707   46761   46779   46797       2
   46707   46761   46779   46800       2   46707   46761   46779   46803       2
   46704   46632   46701   46752       1   46704   46632   46701   46758       1
   46701   46752   46695   46755       1   46698   46629   46695   46752       1
   46698   46629   46695   46755       1   46695   46752   46701   46758       1
   46692   46626   46689   46743       1   46692   46626   46689   46749       1
   46689   46743   46683   46746       1   46686   46623   46683   46743       1
   46686   46623   46683   46746       1   46683   46743   46689   46749       1
   46680   46620   46677   46734       1   46680   46620   46677   46740       1
   46677   46734   46671   46737       1   46674   46617   46671   46734       1
   46674   46617   46671   46737       1   46671   46734   46677   46740       1
   46668   46614   46665   46728       1   46668   46614   46665   46731       1
   46665   46728   46659   46725       1   46662   46611   46659   46725       1
   46662   46611   46659   46728       1   46659   46728   46665   46731       1
   46656   46716   46650   46719       1   46653   46608   46656   46716       1
   46653   46608   46656   46722       1   46650   46716   46656   46722       1
   46647   46605   46650   46716       1   46647   46605   46650   46719       1
   46644   46602   46641   46707       1   46644   46602   46641   46713       1
   46641   46707   46635   46710       1   46638   46599   46635   46707       1
   46638   46599   46635   46710       1   46635   46707   46641   46713       1
   46632   46593   46629   46698       1   46629   46593   46632   46704       1
   46626   46590   46623   46686       1   46623   46590   46626   46692       1
   46620   46584   46617   46674       1   46617   46584   46620   46680       1
   46614   46581   46611   46662       1   46611   46581   46614   46668       1
   46608   46578   46605   46647       1   46605   46578   46608   46653       1
   46602   46575   46599   46638       1   46599   46575   46602   46644       1
   46593   46629   46695   46755       1   46593   46632   46701   46758       1
   46590   46623   46683   46746       1   46590   46626   46689   46749       1
   46584   46617   46671   46737       1   46584   46620   46677   46740       1
   46581   46611   46659   46725       1   46581   46614   46665   46731       1
   46578   46605   46650   46719       1   46578   46608   46656   46722       1
   46575   46599   46635   46710       1   46575   46602   46641   46713       1
   46572   46539   46569   46596       1   46566   46536   46569   46596       1
   46566   46590   46623   46686       1   46566   46590   46626   46692       1
   46566   46593   46629   46698       1   46566   46593   46632   46704       1
   46563   46530   46560   46587       1   46557   46524   46560   46587       1
   46557   46581   46611   46662       1   46557   46581   46614   46668       1
   46557   46584   46617   46674       1   46557   46584   46620   46680       1
   46554   46575   46599   46638       1   46554   46575   46602   46644       1
   46554   46578   46605   46647       1   46554   46578   46608   46653       1
   46551   46512   46518   46554       1   46536   46569   46539   46572       1
   46533   46503   46536   46566       1   46533   46503   46536   46569       1
   46527   46497   46524   46557       1   46527   46497   46524   46560       1
   46524   46560   46530   46563       1   46521   46494   46518   46554       1
   46515   46491   46512   46518       1   46515   46491   46512   46551       1
   46512   46518   46494   46521       1   46506   46485   46503   46533       1
   46506   46500   46530   46563       1   46506   46539   46569   46596       1
   46503   46536   46569   46596       1   46500   46482   46497   46527       1
   46500   46506   46539   46572       1   46500   46530   46560   46587       1
   46497   46524   46560   46587       1   46494   46518   46512   46551       1
   46485   46506   46539   46572       1   46482   46500   46530   46563       1
   46479   46476   46491   46515       1   46476   46479   46494   46521       1
   46476   46491   46512   46551       1   46473   46452   46467   46488       1
   46470   46446   46467   46488       1   46467   46488   46509   46542       2
   46467   46488   46509   46545       2   46467   46488   46509   46548       2
   46464   46440   46458   46476       1   46461   46479   46494   46521       1
   46461   46482   46497   46527       1   46461   46485   46503   46533       1
   46458   46476   46491   46515       1   46455   46431   46452   46467       1
   46455   46431   46452   46473       1   46452   46467   46446   46470       1
   46449   46428   46446   46467       1   46449   46428   46446   46470       1
   46446   46467   46452   46473       1   46443   46425   46440   46458       1
   46443   46425   46440   46464       1   46437   46422   46434   46458       1
   46437   46422   46434   46461       1   46434   46458   46440   46464       1
   46431   46419   46428   46449       1   46428   46419   46431   46455       1
   46425   46416   46422   46437       1   46422   46416   46425   46443       1
   46419   46428   46446   46470       1   46419   46431   46452   46473       1
   46416   46425   46440   46464       1   46413   46416   46422   46437       1
   46413   46416   46425   46443       1   46413   46419   46428   46449       1
   46413   46419   46431   46455       1   46410   46398   46404   46413       1
   46407   46392   46404   46413       1   46401   46380   46398   46404       1
   46401   46380   46398   46410       1   46398   46404   46392   46407       1
   46395   46377   46392   46404       1   46395   46377   46392   46407       1
   46392   46404   46398   46410       1   46380   46371   46377   46395       1
   46377   46371   46380   46401       1   46371   46368   46374   46383       2
   46371   46368   46374   46386       2   46371   46368   46374   46389       2
   46371   46377   46392   46407       1   46371   46380   46398   46410       1
   46368   46371   46377   46395       1   46368   46371   46380   46401       1
   47241   47184   47235   47259       1   47238   47178   47235   47259       1
   47235   47259   47277   47325       2   47235   47259   47277   47328       2
   47235   47259   47277   47331       2   47232   47172   47226   47256       1
   47229   47166   47226   47256       1   47226   47256   47274   47316       2
   47226   47256   47274   47319       2   47226   47256   47274   47322       2
   47223   47160   47217   47253       1   47220   47154   47217   47253       1
   47217   47253   47271   47307       2   47217   47253   47271   47310       2
   47217   47253   47271   47313       2   47214   47148   47211   47250       1
   47211   47250   47268   47298       2   47211   47250   47268   47301       2
   47211   47250   47268   47304       2   47208   47142   47211   47250       1
   47205   47139   47199   47247       1   47202   47133   47199   47247       1
   47199   47247   47265   47289       2   47199   47247   47265   47292       2
   47199   47247   47265   47295       2   47196   47124   47190   47244       1
   47193   47118   47190   47244       1   47190   47244   47262   47280       2
   47190   47244   47262   47283       2   47190   47244   47262   47286       2
   47187   47115   47184   47235       1   47187   47115   47184   47241       1
   47184   47235   47178   47238       1   47181   47112   47178   47235       1
   47181   47112   47178   47238       1   47178   47235   47184   47241       1
   47175   47109   47172   47226       1   47175   47109   47172   47232       1
   47172   47226   47166   47229       1   47169   47106   47166   47226       1
   47169   47106   47166   47229       1   47166   47226   47172   47232       1
   47163   47103   47160   47217       1   47163   47103   47160   47223       1
   47160   47217   47154   47220       1   47157   47100   47154   47217       1
   47157   47100   47154   47220       1   47154   47217   47160   47223       1
   47151   47097   47148   47211       1   47151   47097   47148   47214       1
   47148   47211   47142   47208       1   47145   47094   47142   47208       1
   47145   47094   47142   47211       1   47142   47211   47148   47214       1
   47139   47199   47133   47202       1   47136   47091   47139   47199       1
   47136   47091   47139   47205       1   47133   47199   47139   47205       1
   47130   47088   47133   47199       1   47130   47088   47133   47202       1
   47127   47085   47124   47190       1   47127   47085   47124   47196       1
   47124   47190   47118   47193       1   47121   47082   47118   47190       1
   47121   47082   47118   47193       1   47118   47190   47124   47196       1
   47115   47076   47112   47181       1   47112   47076   47115   47187       1
   47109   47073   47106   47169       1   47106   47073   47109   47175       1
   47103   47067   47100   47157       1   47100   47067   47103   47163       1
   47097   47064   47094   47145       1   47094   47064   47097   47151       1
   47091   47061   47088   47130       1   47088   47061   47091   47136       1
   47085   47058   47082   47121       1   47082   47058   47085   47127       1
   47076   47112   47178   47238       1   47076   47115   47184   47241       1
   47073   47106   47166   47229       1   47073   47109   47172   47232       1
   47067   47100   47154   47220       1   47067   47103   47160   47223       1
   47064   47094   47142   47208       1   47064   47097   47148   47214       1
   47061   47088   47133   47202       1   47061   47091   47139   47205       1
   47058   47082   47118   47193       1   47058   47085   47124   47196       1
   47055   47022   47052   47079       1   47049   47019   47052   47079       1
   47049   47073   47106   47169       1   47049   47073   47109   47175       1
   47049   47076   47112   47181       1   47049   47076   47115   47187       1
   47046   47013   47043   47070       1   47040   47007   47043   47070       1
   47040   47064   47094   47145       1   47040   47064   47097   47151       1
   47040   47067   47100   47157       1   47040   47067   47103   47163       1
   47037   47058   47082   47121       1   47037   47058   47085   47127       1
   47037   47061   47088   47130       1   47037   47061   47091   47136       1
   47034   46995   47001   47037       1   47019   47052   47022   47055       1
   47016   46986   47019   47049       1   47016   46986   47019   47052       1
   47010   46980   47007   47040       1   47010   46980   47007   47043       1
   47007   47043   47013   47046       1   47004   46977   47001   47037       1
   46998   46974   46995   47001       1   46998   46974   46995   47034       1
   46995   47001   46977   47004       1   46989   46968   46986   47016       1
   46989   46983   47013   47046       1   46989   47022   47052   47079       1
   46986   47019   47052   47079       1   46983   46965   46980   47010       1
   46983   46989   47022   47055       1   46983   47013   47043   47070       1
   46980   47007   47043   47070       1   46977   47001   46995   47034       1
   46968   46989   47022   47055       1   46965   46983   47013   47046       1
   46962   46959   46974   46998       1   46959   46962   46977   47004       1
   46959   46974   46995   47034       1   46956   46935   46950   46971       1
   46953   46929   46950   46971       1   46950   46971   46992   47025       2
   46950   46971   46992   47028       2   46950   46971   46992   47031       2
   46947   46923   46941   46959       1   46944   46962   46977   47004       1
   46944   46965   46980   47010       1   46944   46968   46986   47016       1
   46941   46959   46974   46998       1   46938   46914   46935   46950       1
   46938   46914   46935   46956       1   46935   46950   46929   46953       1
   46932   46911   46929   46950       1   46932   46911   46929   46953       1
   46929   46950   46935   46956       1   46926   46908   46923   46941       1
   46926   46908   46923   46947       1   46920   46905   46917   46941       1
   46920   46905   46917   46944       1   46917   46941   46923   46947       1
   46914   46902   46911   46932       1   46911   46902   46914   46938       1
   46908   46899   46905   46920       1   46905   46899   46908   46926       1
   46902   46911   46929   46953       1   46902   46914   46935   46956       1
   46899   46908   46923   46947       1   46896   46899   46905   46920       1
   46896   46899   46908   46926       1   46896   46902   46911   46932       1
   46896   46902   46914   46938       1   46893   46881   46887   46896       1
   46890   46875   46887   46896       1   46884   46863   46881   46887       1
   46884   46863   46881   46893       1   46881   46887   46875   46890       1
   46878   46860   46875   46887       1   46878   46860   46875   46890       1
   46875   46887   46881   46893       1   46863   46854   46860   46878       1
   46860   46854   46863   46884       1   46854   46851   46857   46866       2
   46854   46851   46857   46869       2   46854   46851   46857   46872       2
   46854   46860   46875   46890       1   46854   46863   46881   46893       1
   46851   46854   46860   46878       1   46851   46854   46863   46884       1
   47724   47667   47718   47742       1   47721   47661   47718   47742       1
   47718   47742   47760   47808       2   47718   47742   47760   47811       2
   47718   47742   47760   47814       2   47715   47655   47709   47739       1
   47712   47649   47709   47739       1   47709   47739   47757   47799       2
   47709   47739   47757   47802       2   47709   47739   47757   47805       2
   47706   47643   47700   47736       1   47703   47637   47700   47736       1
   47700   47736   47754   47790       2   47700   47736   47754   47793       2
   47700   47736   47754   47796       2   47697   47631   47694   47733       1
   47694   47733   47751   47781       2   47694   47733   47751   47784       2
   47694   47733   47751   47787       2   47691   47625   47694   47733       1
   47688   47622   47682   47730       1   47685   47616   47682   47730       1
   47682   47730   47748   47772       2   47682   47730   47748   47775       2
   47682   47730   47748   47778       2   47679   47607   47673   47727       1
   47676   47601   47673   47727       1   47673   47727   47745   47763       2
   47673   47727   47745   47766       2   47673   47727   47745   47769       2
   47670   47598   47667   47718       1   47670   47598   47667   47724       1
   47667   47718   47661   47721       1   47664   47595   47661   47718       1
   47664   47595   47661   47721       1   47661   47718   47667   47724       1
   47658   47592   47655   47709       1   47658   47592   47655   47715       1
   47655   47709   47649   47712       1   47652   47589   47649   47709       1
   47652   47589   47649   47712       1   47649   47709   47655   47715       1
   47646   47586   47643   47700       1   47646   47586   47643   47706       1
   47643   47700   47637   47703       1   47640   47583   47637   47700       1
   47640   47583   47637   47703       1   47637   47700   47643   47706       1
   47634   47580   47631   47694       1   47634   47580   47631   47697       1
   47631   47694   47625   47691       1   47628   47577   47625   47691       1
   47628   47577   47625   47694       1   47625   47694   47631   47697       1
   47622   47682   47616   47685       1   47619   47574   47622   47682       1
   47619   47574   47622   47688       1   47616   47682   47622   47688       1
   47613   47571   47616   47682       1   47613   47571   47616   47685       1
   47610   47568   47607   47673       1   47610   47568   47607   47679       1
   47607   47673   47601   47676       1   47604   47565   47601   47673       1
   47604   47565   47601   47676       1   47601   47673   47607   47679       1
   47598   47559   47595   47664       1   47595   47559   47598   47670       1
   47592   47556   47589   47652       1   47589   47556   47592   47658       1
   47586   47550   47583   47640       1   47583   47550   47586   47646       1
   47580   47547   47577   47628       1   47577   47547   47580   47634       1
   47574   47544   47571   47613       1   47571   47544   47574   47619       1
   47568   47541   47565   47604       1   47565   47541   47568   47610       1
   47559   47595   47661   47721       1   47559   47598   47667   47724       1
   47556   47589   47649   47712       1   47556   47592   47655   47715       1
   47550   47583   47637   47703       1   47550   47586   47643   47706       1
   47547   47577   47625   47691       1   47547   47580   47631   47697       1
   47544   47571   47616   47685       1   47544   47574   47622   47688       1
   47541   47565   47601   47676       1   47541   47568   47607   47679       1
   47538   47505   47535   47562       1   47532   47502   47535   47562       1
   47532   47556   47589   47652       1   47532   47556   47592   47658       1
   47532   47559   47595   47664       1   47532   47559   47598   47670       1
   47529   47496   47526   47553       1   47523   47490   47526   47553       1
   47523   47547   47577   47628       1   47523   47547   47580   47634       1
   47523   47550   47583   47640       1   47523   47550   47586   47646       1
   47520   47541   47565   47604       1   47520   47541   47568   47610       1
   47520   47544   47571   47613       1   47520   47544   47574   47619       1
   47517   47478   47484   47520       1   47502   47535   47505   47538       1
   47499   47469   47502   47532       1   47499   47469   47502   47535       1
   47493   47463   47490   47523       1   47493   47463   47490   47526       1
   47490   47526   47496   47529       1   47487   47460   47484   47520       1
   47481   47457   47478   47484       1   47481   47457   47478   47517       1
   47478   47484   47460   47487       1   47472   47451   47469   47499       1
   47472   47466   47496   47529       1   47472   47505   47535   47562       1
   47469   47502   47535   47562       1   47466   47448   47463   47493       1
   47466   47472   47505   47538       1   47466   47496   47526   47553       1
   47463   47490   47526   47553       1   47460   47484   47478   47517       1
   47451   47472   47505   47538       1   47448   47466   47496   47529       1
   47445   47442   47457   47481       1   47442   47445   47460   47487       1
   47442   47457   47478   47517       1   47439   47418   47433   47454       1
   47436   47412   47433   47454       1   47433   47454   47475   47508       2
   47433   47454   47475   47511       2   47433   47454   47475   47514       2
   47430   47406   47424   47442       1   47427   47445   47460   47487       1
   47427   47448   47463   47493       1   47427   47451   47469   47499       1
   47424   47442   47457   47481       1   47421   47397   47418   47433       1
   47421   47397   47418   47439       1   47418   47433   47412   47436       1
   47415   47394   47412   47433       1   47415   47394   47412   47436       1
   47412   47433   47418   47439       1   47409   47391   47406   47424       1
   47409   47391   47406   47430       1   47403   47388   47400   47424       1
   47403   47388   47400   47427       1   47400   47424   47406   47430       1
   47397   47385   47394   47415       1   47394   47385   47397   47421       1
   47391   47382   47388   47403       1   47388   47382   47391   47409       1
   47385   47394   47412   47436       1   47385   47397   47418   47439       1
   47382   47391   47406   47430       1   47379   47382   47388   47403       1
   47379   47382   47391   47409       1   47379   47385   47394   47415       1
   47379   47385   47397   47421       1   47376   47364   47370   47379       1
   47373   47358   47370   47379       1   47367   47346   47364   47370       1
   47367   47346   47364   47376       1   47364   47370   47358   47373       1
   47361   47343   47358   47370       1   47361   47343   47358   47373       1
   47358   47370   47364   47376       1   47346   47337   47343   47361       1
   47343   47337   47346   47367       1   47337   47334   47340   47349       2
   47337   47334   47340   47352       2   47337   47334   47340   47355       2
   47337   47343   47358   47373       1   47337   47346   47364   47376       1
   47334   47337   47343   47361       1   47334   47337   47346   47367       1
   48207   48150   48201   48225       1   48204   48144   48201   48225       1
   48201   48225   48243   48291       2   48201   48225   48243   48294       2
   48201   48225   48243   48297       2   48198   48138   48192   48222       1
   48195   48132   48192   48222       1   48192   48222   48240   48282       2
   48192   48222   48240   48285       2   48192   48222   48240   48288       2
   48189   48126   48183   48219       1   48186   48120   48183   48219       1
   48183   48219   48237   48273       2   48183   48219   48237   48276       2
   48183   48219   48237   48279       2   48180   48114   48177   48216       1
   48177   48216   48234   48264       2   48177   48216   48234   48267       2
   48177   48216   48234   48270       2   48174   48108   48177   48216       1
   48171   48105   48165   48213       1   48168   48099   48165   48213       1
   48165   48213   48231   48255       2   48165   48213   48231   48258       2
   48165   48213   48231   48261       2   48162   48090   48156   48210       1
   48159   48084   48156   48210       1   48156   48210   48228   48246       2
   48156   48210   48228   48249       2   48156   48210   48228   48252       2
   48153   48081   48150   48201       1   48153   48081   48150   48207       1
   48150   48201   48144   48204       1   48147   48078   48144   48201       1
   48147   48078   48144   48204       1   48144   48201   48150   48207       1
   48141   48075   48138   48192       1   48141   48075   48138   48198       1
   48138   48192   48132   48195       1   48135   48072   48132   48192       1
   48135   48072   48132   48195       1   48132   48192   48138   48198       1
   48129   48069   48126   48183       1   48129   48069   48126   48189       1
   48126   48183   48120   48186       1   48123   48066   48120   48183       1
   48123   48066   48120   48186       1   48120   48183   48126   48189       1
   48117   48063   48114   48177       1   48117   48063   48114   48180       1
   48114   48177   48108   48174       1   48111   48060   48108   48174       1
   48111   48060   48108   48177       1   48108   48177   48114   48180       1
   48105   48165   48099   48168       1   48102   48057   48105   48165       1
   48102   48057   48105   48171       1   48099   48165   48105   48171       1
   48096   48054   48099   48165       1   48096   48054   48099   48168       1
   48093   48051   48090   48156       1   48093   48051   48090   48162       1
   48090   48156   48084   48159       1   48087   48048   48084   48156       1
   48087   48048   48084   48159       1   48084   48156   48090   48162       1
   48081   48042   48078   48147       1   48078   48042   48081   48153       1
   48075   48039   48072   48135       1   48072   48039   48075   48141       1
   48069   48033   48066   48123       1   48066   48033   48069   48129       1
   48063   48030   48060   48111       1   48060   48030   48063   48117       1
   48057   48027   48054   48096       1   48054   48027   48057   48102       1
   48051   48024   48048   48087       1   48048   48024   48051   48093       1
   48042   48078   48144   48204       1   48042   48081   48150   48207       1
   48039   48072   48132   48195       1   48039   48075   48138   48198       1
   48033   48066   48120   48186       1   48033   48069   48126   48189       1
   48030   48060   48108   48174       1   48030   48063   48114   48180       1
   48027   48054   48099   48168       1   48027   48057   48105   48171       1
   48024   48048   48084   48159       1   48024   48051   48090   48162       1
   48021   47988   48018   48045       1   48015   47985   48018   48045       1
   48015   48039   48072   48135       1   48015   48039   48075   48141       1
   48015   48042   48078   48147       1   48015   48042   48081   48153       1
   48012   47979   48009   48036       1   48006   47973   48009   48036       1
   48006   48030   48060   48111       1   48006   48030   48063   48117       1
   48006   48033   48066   48123       1   48006   48033   48069   48129       1
   48003   48024   48048   48087       1   48003   48024   48051   48093       1
   48003   48027   48054   48096       1   48003   48027   48057   48102       1
   48000   47961   47967   48003       1   47985   48018   47988   48021       1
   47982   47952   47985   48015       1   47982   47952   47985   48018       1
   47976   47946   47973   48006       1   47976   47946   47973   48009       1
   47973   48009   47979   48012       1   47970   47943   47967   48003       1
   47964   47940   47961   47967       1   47964   47940   47961   48000       1
   47961   47967   47943   47970       1   47955   47934   47952   47982       1
   47955   47949   47979   48012       1   47955   47988   48018   48045       1
   47952   47985   48018   48045       1   47949   47931   47946   47976       1
   47949   47955   47988   48021       1   47949   47979   48009   48036       1
   47946   47973   48009   48036       1   47943   47967   47961   48000       1
   47934   47955   47988   48021       1   47931   47949   47979   48012       1
   47928   47925   47940   47964       1   47925   47928   47943   47970       1
   47925   47940   47961   48000       1   47922   47901   47916   47937       1
   47919   47895   47916   47937       1   47916   47937   47958   47991       2
   47916   47937   47958   47994       2   47916   47937   47958   47997       2
   47913   47889   47907   47925       1   47910   47928   47943   47970       1
   47910   47931   47946   47976       1   47910   47934   47952   47982       1
   47907   47925   47940   47964       1   47904   47880   47901   47916       1
   47904   47880   47901   47922       1   47901   47916   47895   47919       1
   47898   47877   47895   47916       1   47898   47877   47895   47919       1
   47895   47916   47901   47922       1   47892   47874   47889   47907       1
   47892   47874   47889   47913       1   47886   47871   47883   47907       1
   47886   47871   47883   47910       1   47883   47907   47889   47913       1
   47880   47868   47877   47898       1   47877   47868   47880   47904       1
   47874   47865   47871   47886       1   47871   47865   47874   47892       1
   47868   47877   47895   47919       1   47868   47880   47901   47922       1
   47865   47874   47889   47913       1   47862   47865   47871   47886       1
   47862   47865   47874   47892       1   47862   47868   47877   47898       1
   47862   47868   47880   47904       1   47859   47847   47853   47862       1
   47856   47841   47853   47862       1   47850   47829   47847   47853       1
   47850   47829   47847   47859       1   47847   47853   47841   47856       1
   47844   47826   47841   47853       1   47844   47826   47841   47856       1
   47841   47853   47847   47859       1   47829   47820   47826   47844       1
   47826   47820   47829   47850       1   47820   47817   47823   47832       2
   47820   47817   47823   47835       2   47820   47817   47823   47838       2
   47820   47826   47841   47856       1   47820   47829   47847   47859       1
   47817   47820   47826   47844       1   47817   47820   47829   47850       1
   48690   48633   48684   48708       1   48687   48627   48684   48708       1
   48684   48708   48726   48774       2   48684   48708   48726   48777       2
   48684   48708   48726   48780       2   48681   48621   48675   48705       1
   48678   48615   48675   48705       1   48675   48705   48723   48765       2
   48675   48705   48723   48768       2   48675   48705   48723   48771       2
   48672   48609   48666   48702       1   48669   48603   48666   48702       1
   48666   48702   48720   48756       2   48666   48702   48720   48759       2
   48666   48702   48720   48762       2   48663   48597   48660   48699       1
   48660   48699   48717   48747       2   48660   48699   48717   48750       2
   48660   48699   48717   48753       2   48657   48591   48660   48699       1
   48654   48588   48648   48696       1   48651   48582   48648   48696       1
   48648   48696   48714   48738       2   48648   48696   48714   48741       2
   48648   48696   48714   48744       2   48645   48573   48639   48693       1
   48642   48567   48639   48693       1   48639   48693   48711   48729       2
   48639   48693   48711   48732       2   48639   48693   48711   48735       2
   48636   48564   48633   48684       1   48636   48564   48633   48690       1
   48633   48684   48627   48687       1   48630   48561   48627   48684       1
   48630   48561   48627   48687       1   48627   48684   48633   48690       1
   48624   48558   48621   48675       1   48624   48558   48621   48681       1
   48621   48675   48615   48678       1   48618   48555   48615   48675       1
   48618   48555   48615   48678       1   48615   48675   48621   48681       1
   48612   48552   48609   48666       1   48612   48552   48609   48672       1
   48609   48666   48603   48669       1   48606   48549   48603   48666       1
   48606   48549   48603   48669       1   48603   48666   48609   48672       1
   48600   48546   48597   48660       1   48600   48546   48597   48663       1
   48597   48660   48591   48657       1   48594   48543   48591   48657       1
   48594   48543   48591   48660       1   48591   48660   48597   48663       1
   48588   48648   48582   48651       1   48585   48540   48588   48648       1
   48585   48540   48588   48654       1   48582   48648   48588   48654       1
   48579   48537   48582   48648       1   48579   48537   48582   48651       1
   48576   48534   48573   48639       1   48576   48534   48573   48645       1
   48573   48639   48567   48642       1   48570   48531   48567   48639       1
   48570   48531   48567   48642       1   48567   48639   48573   48645       1
   48564   48525   48561   48630       1   48561   48525   48564   48636       1
   48558   48522   48555   48618       1   48555   48522   48558   48624       1
   48552   48516   48549   48606       1   48549   48516   48552   48612       1
   48546   48513   48543   48594       1   48543   48513   48546   48600       1
   48540   48510   48537   48579       1   48537   48510   48540   48585       1
   48534   48507   48531   48570       1   48531   48507   48534   48576       1
   48525   48561   48627   48687       1   48525   48564   48633   48690       1
   48522   48555   48615   48678       1   48522   48558   48621   48681       1
   48516   48549   48603   48669       1   48516   48552   48609   48672       1
   48513   48543   48591   48657       1   48513   48546   48597   48663       1
   48510   48537   48582   48651       1   48510   48540   48588   48654       1
   48507   48531   48567   48642       1   48507   48534   48573   48645       1
   48504   48471   48501   48528       1   48498   48468   48501   48528       1
   48498   48522   48555   48618       1   48498   48522   48558   48624       1
   48498   48525   48561   48630       1   48498   48525   48564   48636       1
   48495   48462   48492   48519       1   48489   48456   48492   48519       1
   48489   48513   48543   48594       1   48489   48513   48546   48600       1
   48489   48516   48549   48606       1   48489   48516   48552   48612       1
   48486   48507   48531   48570       1   48486   48507   48534   48576       1
   48486   48510   48537   48579       1   48486   48510   48540   48585       1
   48483   48444   48450   48486       1   48468   48501   48471   48504       1
   48465   48435   48468   48498       1   48465   48435   48468   48501       1
   48459   48429   48456   48489       1   48459   48429   48456   48492       1
   48456   48492   48462   48495       1   48453   48426   48450   48486       1
   48447   48423   48444   48450       1   48447   48423   48444   48483       1
   48444   48450   48426   48453       1   48438   48417   48435   48465       1
   48438   48432   48462   48495       1   48438   48471   48501   48528       1
   48435   48468   48501   48528       1   48432   48414   48429   48459       1
   48432   48438   48471   48504       1   48432   48462   48492   48519       1
   48429   48456   48492   48519       1   48426   48450   48444   48483       1
   48417   48438   48471   48504       1   48414   48432   48462   48495       1
   48411   48408   48423   48447       1   48408   48411   48426   48453       1
   48408   48423   48444   48483       1   48405   48384   48399   48420       1
   48402   48378   48399   48420       1   48399   48420   48441   48474       2
   48399   48420   48441   48477       2   48399   48420   48441   48480       2
   48396   48372   48390   48408       1   48393   48411   48426   48453       1
   48393   48414   48429   48459       1   48393   48417   48435   48465       1
   48390   48408   48423   48447       1   48387   48363   48384   48399       1
   48387   48363   48384   48405       1   48384   48399   48378   48402       1
   48381   48360   48378   48399       1   48381   48360   48378   48402       1
   48378   48399   48384   48405       1   48375   48357   48372   48390       1
   48375   48357   48372   48396       1   48369   48354   48366   48390       1
   48369   48354   48366   48393       1   48366   48390   48372   48396       1
   48363   48351   48360   48381       1   48360   48351   48363   48387       1
   48357   48348   48354   48369       1   48354   48348   48357   48375       1
   48351   48360   48378   48402       1   48351   48363   48384   48405       1
   48348   48357   48372   48396       1   48345   48348   48354   48369       1
   48345   48348   48357   48375       1   48345   48351   48360   48381       1
   48345   48351   48363   48387       1   48342   48330   48336   48345       1
   48339   48324   48336   48345       1   48333   48312   48330   48336       1
   48333   48312   48330   48342       1   48330   48336   48324   48339       1
   48327   48309   48324   48336       1   48327   48309   48324   48339       1
   48324   48336   48330   48342       1   48312   48303   48309   48327       1
   48309   48303   48312   48333       1   48303   48300   48306   48315       2
   48303   48300   48306   48318       2   48303   48300   48306   48321       2
   48303   48309   48324   48339       1   48303   48312   48330   48342       1
   48300   48303   48309   48327       1   48300   48303   48312   48333       1
   49173   49116   49167   49191       1   49170   49110   49167   49191       1
   49167   49191   49209   49257       2   49167   49191   49209   49260       2
   49167   49191   49209   49263       2   49164   49104   49158   49188       1
   49161   49098   49158   49188       1   49158   49188   49206   49248       2
   49158   49188   49206   49251       2   49158   49188   49206   49254       2
   49155   49092   49149   49185       1   49152   49086   49149   49185       1
   49149   49185   49203   49239       2   49149   49185   49203   49242       2
   49149   49185   49203   49245       2   49146   49080   49143   49182       1
   49143   49182   49200   49230       2   49143   49182   49200   49233       2
   49143   49182   49200   49236       2   49140   49074   49143   49182       1
   49137   49071   49131   49179       1   49134   49065   49131   49179       1
   49131   49179   49197   49221       2   49131   49179   49197   49224       2
   49131   49179   49197   49227       2   49128   49056   49122   49176       1
   49125   49050   49122   49176       1   49122   49176   49194   49212       2
   49122   49176   49194   49215       2   49122   49176   49194   49218       2
   49119   49047   49116   49167       1   49119   49047   49116   49173       1
   49116   49167   49110   49170       1   49113   49044   49110   49167       1
   49113   49044   49110   49170       1   49110   49167   49116   49173       1
   49107   49041   49104   49158       1   49107   49041   49104   49164       1
   49104   49158   49098   49161       1   49101   49038   49098   49158       1
   49101   49038   49098   49161       1   49098   49158   49104   49164       1
   49095   49035   49092   49149       1   49095   49035   49092   49155       1
   49092   49149   49086   49152       1   49089   49032   49086   49149       1
   49089   49032   49086   49152       1   49086   49149   49092   49155       1
   49083   49029   49080   49143       1   49083   49029   49080   49146       1
   49080   49143   49074   49140       1   49077   49026   49074   49140       1
   49077   49026   49074   49143       1   49074   49143   49080   49146       1
   49071   49131   49065   49134       1   49068   49023   49071   49131       1
   49068   49023   49071   49137       1   49065   49131   49071   49137       1
   49062   49020   49065   49131       1   49062   49020   49065   49134       1
   49059   49017   49056   49122       1   49059   49017   49056   49128       1
   49056   49122   49050   49125       1   49053   49014   49050   49122       1
   49053   49014   49050   49125       1   49050   49122   49056   49128       1
   49047   49008   49044   49113       1   49044   49008   49047   49119       1
   49041   49005   49038   49101       1   49038   49005   49041   49107       1
   49035   48999   49032   49089       1   49032   48999   49035   49095       1
   49029   48996   49026   49077       1   49026   48996   49029   49083       1
   49023   48993   49020   49062       1   49020   48993   49023   49068       1
   49017   48990   49014   49053       1   49014   48990   49017   49059       1
   49008   49044   49110   49170       1   49008   49047   49116   49173       1
   49005   49038   49098   49161       1   49005   49041   49104   49164       1
   48999   49032   49086   49152       1   48999   49035   49092   49155       1
   48996   49026   49074   49140       1   48996   49029   49080   49146       1
   48993   49020   49065   49134       1   48993   49023   49071   49137       1
   48990   49014   49050   49125       1   48990   49017   49056   49128       1
   48987   48954   48984   49011       1   48981   48951   48984   49011       1
   48981   49005   49038   49101       1   48981   49005   49041   49107       1
   48981   49008   49044   49113       1   48981   49008   49047   49119       1
   48978   48945   48975   49002       1   48972   48939   48975   49002       1
   48972   48996   49026   49077       1   48972   48996   49029   49083       1
   48972   48999   49032   49089       1   48972   48999   49035   49095       1
   48969   48990   49014   49053       1   48969   48990   49017   49059       1
   48969   48993   49020   49062       1   48969   48993   49023   49068       1
   48966   48927   48933   48969       1   48951   48984   48954   48987       1
   48948   48918   48951   48981       1   48948   48918   48951   48984       1
   48942   48912   48939   48972       1   48942   48912   48939   48975       1
   48939   48975   48945   48978       1   48936   48909   48933   48969       1
   48930   48906   48927   48933       1   48930   48906   48927   48966       1
   48927   48933   48909   48936       1   48921   48900   48918   48948       1
   48921   48915   48945   48978       1   48921   48954   48984   49011       1
   48918   48951   48984   49011       1   48915   48897   48912   48942       1
   48915   48921   48954   48987       1   48915   48945   48975   49002       1
   48912   48939   48975   49002       1   48909   48933   48927   48966       1
   48900   48921   48954   48987       1   48897   48915   48945   48978       1
   48894   48891   48906   48930       1   48891   48894   48909   48936       1
   48891   48906   48927   48966       1   48888   48867   48882   48903       1
   48885   48861   48882   48903       1   48882   48903   48924   48957       2
   48882   48903   48924   48960       2   48882   48903   48924   48963       2
   48879   48855   48873   48891       1   48876   48894   48909   48936       1
   48876   48897   48912   48942       1   48876   48900   48918   48948       1
   48873   48891   48906   48930       1   48870   48846   48867   48882       1
   48870   48846   48867   48888       1   48867   48882   48861   48885       1
   48864   48843   48861   48882       1   48864   48843   48861   48885       1
   48861   48882   48867   48888       1   48858   48840   48855   48873       1
   48858   48840   48855   48879       1   48852   48837   48849   48873       1
   48852   48837   48849   48876       1   48849   48873   48855   48879       1
   48846   48834   48843   48864       1   48843   48834   48846   48870       1
   48840   48831   48837   48852       1   48837   48831   48840   48858       1
   48834   48843   48861   48885       1   48834   48846   48867   48888       1
   48831   48840   48855   48879       1   48828   48831   48837   48852       1
   48828   48831   48840   48858       1   48828   48834   48843   48864       1
   48828   48834   48846   48870       1   48825   48813   48819   48828       1
   48822   48807   48819   48828       1   48816   48795   48813   48819       1
   48816   48795   48813   48825       1   48813   48819   48807   48822       1
   48810   48792   48807   48819       1   48810   48792   48807   48822       1
   48807   48819   48813   48825       1   48795   48786   48792   48810       1
   48792   48786   48795   48816       1   48786   48783   48789   48798       2
   48786   48783   48789   48801       2   48786   48783   48789   48804       2
   48786   48792   48807   48822       1   48786   48795   48813   48825       1
   48783   48786   48792   48810       1   48783   48786   48795   48816       1
   49656   49599   49650   49674       1   49653   49593   49650   49674       1
   49650   49674   49692   49740       2   49650   49674   49692   49743       2
   49650   49674   49692   49746       2   49647   49587   49641   49671       1
   49644   49581   49641   49671       1   49641   49671   49689   49731       2
   49641   49671   49689   49734       2   49641   49671   49689   49737       2
   49638   49575   49632   49668       1   49635   49569   49632   49668       1
   49632   49668   49686   49722       2   49632   49668   49686   49725       2
   49632   49668   49686   49728       2   49629   49563   49626   49665       1
   49626   49665   49683   49713       2   49626   49665   49683   49716       2
   49626   49665   49683   49719       2   49623   49557   49626   49665       1
   49620   49554   49614   49662       1   49617   49548   49614   49662       1
   49614   49662   49680   49704       2   49614   49662   49680   49707       2
   49614   49662   49680   49710       2   49611   49539   49605   49659       1
   49608   49533   49605   49659       1   49605   49659   49677   49695       2
   49605   49659   49677   49698       2   49605   49659   49677   49701       2
   49602   49530   49599   49650       1   49602   49530   49599   49656       1
   49599   49650   49593   49653       1   49596   49527   49593   49650       1
   49596   49527   49593   49653       1   49593   49650   49599   49656       1
   49590   49524   49587   49641       1   49590   49524   49587   49647       1
   49587   49641   49581   49644       1   49584   49521   49581   49641       1
   49584   49521   49581   49644       1   49581   49641   49587   49647       1
   49578   49518   49575   49632       1   49578   49518   49575   49638       1
   49575   49632   49569   49635       1   49572   49515   49569   49632       1
   49572   49515   49569   49635       1   49569   49632   49575   49638       1
   49566   49512   49563   49626       1   49566   49512   49563   49629       1
   49563   49626   49557   49623       1   49560   49509   49557   49623       1
   49560   49509   49557   49626       1   49557   49626   49563   49629       1
   49554   49614   49548   49617       1   49551   49506   49554   49614       1
   49551   49506   49554   49620       1   49548   49614   49554   49620       1
   49545   49503   49548   49614       1   49545   49503   49548   49617       1
   49542   49500   49539   49605       1   49542   49500   49539   49611       1
   49539   49605   49533   49608       1   49536   49497   49533   49605       1
   49536   49497   49533   49608       1   49533   49605   49539   49611       1
   49530   49491   49527   49596       1   49527   49491   49530   49602       1
   49524   49488   49521   49584       1   49521   49488   49524   49590       1
   49518   49482   49515   49572       1   49515   49482   49518   49578       1
   49512   49479   49509   49560       1   49509   49479   49512   49566       1
   49506   49476   49503   49545       1   49503   49476   49506   49551       1
   49500   49473   49497   49536       1   49497   49473   49500   49542       1
   49491   49527   49593   49653       1   49491   49530   49599   49656       1
   49488   49521   49581   49644       1   49488   49524   49587   49647       1
   49482   49515   49569   49635       1   49482   49518   49575   49638       1
   49479   49509   49557   49623       1   49479   49512   49563   49629       1
   49476   49503   49548   49617       1   49476   49506   49554   49620       1
   49473   49497   49533   49608       1   49473   49500   49539   49611       1
   49470   49437   49467   49494       1   49464   49434   49467   49494       1
   49464   49488   49521   49584       1   49464   49488   49524   49590       1
   49464   49491   49527   49596       1   49464   49491   49530   49602       1
   49461   49428   49458   49485       1   49455   49422   49458   49485       1
   49455   49479   49509   49560       1   49455   49479   49512   49566       1
   49455   49482   49515   49572       1   49455   49482   49518   49578       1
   49452   49473   49497   49536       1   49452   49473   49500   49542       1
   49452   49476   49503   49545       1   49452   49476   49506   49551       1
   49449   49410   49416   49452       1   49434   49467   49437   49470       1
   49431   49401   49434   49464       1   49431   49401   49434   49467       1
   49425   49395   49422   49455       1   49425   49395   49422   49458       1
   49422   49458   49428   49461       1   49419   49392   49416   49452       1
   49413   49389   49410   49416       1   49413   49389   49410   49449       1
   49410   49416   49392   49419       1   49404   49383   49401   49431       1
   49404   49398   49428   49461       1   49404   49437   49467   49494       1
   49401   49434   49467   49494       1   49398   49380   49395   49425       1
   49398   49404   49437   49470       1   49398   49428   49458   49485       1
   49395   49422   49458   49485       1   49392   49416   49410   49449       1
   49383   49404   49437   49470       1   49380   49398   49428   49461       1
   49377   49374   49389   49413       1   49374   49377   49392   49419       1
   49374   49389   49410   49449       1   49371   49350   49365   49386       1
   49368   49344   49365   49386       1   49365   49386   49407   49440       2
   49365   49386   49407   49443       2   49365   49386   49407   49446       2
   49362   49338   49356   49374       1   49359   49377   49392   49419       1
   49359   49380   49395   49425       1   49359   49383   49401   49431       1
   49356   49374   49389   49413       1   49353   49329   49350   49365       1
   49353   49329   49350   49371       1   49350   49365   49344   49368       1
   49347   49326   49344   49365       1   49347   49326   49344   49368       1
   49344   49365   49350   49371       1   49341   49323   49338   49356       1
   49341   49323   49338   49362       1   49335   49320   49332   49356       1
   49335   49320   49332   49359       1   49332   49356   49338   49362       1
   49329   49317   49326   49347       1   49326   49317   49329   49353       1
   49323   49314   49320   49335       1   49320   49314   49323   49341       1
   49317   49326   49344   49368       1   49317   49329   49350   49371       1
   49314   49323   49338   49362       1   49311   49314   49320   49335       1
   49311   49314   49323   49341       1   49311   49317   49326   49347       1
   49311   49317   49329   49353       1   49308   49296   49302   49311       1
   49305   49290   49302   49311       1   49299   49278   49296   49302       1
   49299   49278   49296   49308       1   49296   49302   49290   49305       1
   49293   49275   49290   49302       1   49293   49275   49290   49305       1
   49290   49302   49296   49308       1   49278   49269   49275   49293       1
   49275   49269   49278   49299       1   49269   49266   49272   49281       2
   49269   49266   49272   49284       2   49269   49266   49272   49287       2
   49269   49275   49290   49305       1   49269   49278   49296   49308       1
   49266   49269   49275   49293       1   49266   49269   49278   49299       1
   50139   50082   50133   50157       1   50136   50076   50133   50157       1
   50133   50157   50175   50223       2   50133   50157   50175   50226       2
   50133   50157   50175   50229       2   50130   50070   50124   50154       1
   50127   50064   50124   50154       1   50124   50154   50172   50214       2
   50124   50154   50172   50217       2   50124   50154   50172   50220       2
   50121   50058   50115   50151       1   50118   50052   50115   50151       1
   50115   50151   50169   50205       2   50115   50151   50169   50208       2
   50115   50151   50169   50211       2   50112   50046   50109   50148       1
   50109   50148   50166   50196       2   50109   50148   50166   50199       2
   50109   50148   50166   50202       2   50106   50040   50109   50148       1
   50103   50037   50097   50145       1   50100   50031   50097   50145       1
   50097   50145   50163   50187       2   50097   50145   50163   50190       2
   50097   50145   50163   50193       2   50094   50022   50088   50142       1
   50091   50016   50088   50142       1   50088   50142   50160   50178       2
   50088   50142   50160   50181       2   50088   50142   50160   50184       2
   50085   50013   50082   50133       1   50085   50013   50082   50139       1
   50082   50133   50076   50136       1   50079   50010   50076   50133       1
   50079   50010   50076   50136       1   50076   50133   50082   50139       1
   50073   50007   50070   50124       1   50073   50007   50070   50130       1
   50070   50124   50064   50127       1   50067   50004   50064   50124       1
   50067   50004   50064   50127       1   50064   50124   50070   50130       1
   50061   50001   50058   50115       1   50061   50001   50058   50121       1
   50058   50115   50052   50118       1   50055   49998   50052   50115       1
   50055   49998   50052   50118       1   50052   50115   50058   50121       1
   50049   49995   50046   50109       1   50049   49995   50046   50112       1
   50046   50109   50040   50106       1   50043   49992   50040   50106       1
   50043   49992   50040   50109       1   50040   50109   50046   50112       1
   50037   50097   50031   50100       1   50034   49989   50037   50097       1
   50034   49989   50037   50103       1   50031   50097   50037   50103       1
   50028   49986   50031   50097       1   50028   49986   50031   50100       1
   50025   49983   50022   50088       1   50025   49983   50022   50094       1
   50022   50088   50016   50091       1   50019   49980   50016   50088       1
   50019   49980   50016   50091       1   50016   50088   50022   50094       1
   50013   49974   50010   50079       1   50010   49974   50013   50085       1
   50007   49971   50004   50067       1   50004   49971   50007   50073       1
   50001   49965   49998   50055       1   49998   49965   50001   50061       1
   49995   49962   49992   50043       1   49992   49962   49995   50049       1
   49989   49959   49986   50028       1   49986   49959   49989   50034       1
   49983   49956   49980   50019       1   49980   49956   49983   50025       1
   49974   50010   50076   50136       1   49974   50013   50082   50139       1
   49971   50004   50064   50127       1   49971   50007   50070   50130       1
   49965   49998   50052   50118       1   49965   50001   50058   50121       1
   49962   49992   50040   50106       1   49962   49995   50046   50112       1
   49959   49986   50031   50100       1   49959   49989   50037   50103       1
   49956   49980   50016   50091       1   49956   49983   50022   50094       1
   49953   49920   49950   49977       1   49947   49917   49950   49977       1
   49947   49971   50004   50067       1   49947   49971   50007   50073       1
   49947   49974   50010   50079       1   49947   49974   50013   50085       1
   49944   49911   49941   49968       1   49938   49905   49941   49968       1
   49938   49962   49992   50043       1   49938   49962   49995   50049       1
   49938   49965   49998   50055       1   49938   49965   50001   50061       1
   49935   49956   49980   50019       1   49935   49956   49983   50025       1
   49935   49959   49986   50028       1   49935   49959   49989   50034       1
   49932   49893   49899   49935       1   49917   49950   49920   49953       1
   49914   49884   49917   49947       1   49914   49884   49917   49950       1
   49908   49878   49905   49938       1   49908   49878   49905   49941       1
   49905   49941   49911   49944       1   49902   49875   49899   49935       1
   49896   49872   49893   49899       1   49896   49872   49893   49932       1
   49893   49899   49875   49902       1   49887   49866   49884   49914       1
   49887   49881   49911   49944       1   49887   49920   49950   49977       1
   49884   49917   49950   49977       1   49881   49863   49878   49908       1
   49881   49887   49920   49953       1   49881   49911   49941   49968       1
   49878   49905   49941   49968       1   49875   49899   49893   49932       1
   49866   49887   49920   49953       1   49863   49881   49911   49944       1
   49860   49857   49872   49896       1   49857   49860   49875   49902       1
   49857   49872   49893   49932       1   49854   49833   49848   49869       1
   49851   49827   49848   49869       1   49848   49869   49890   49923       2
   49848   49869   49890   49926       2   49848   49869   49890   49929       2
   49845   49821   49839   49857       1   49842   49860   49875   49902       1
   49842   49863   49878   49908       1   49842   49866   49884   49914       1
   49839   49857   49872   49896       1   49836   49812   49833   49848       1
   49836   49812   49833   49854       1   49833   49848   49827   49851       1
   49830   49809   49827   49848       1   49830   49809   49827   49851       1
   49827   49848   49833   49854       1   49824   49806   49821   49839       1
   49824   49806   49821   49845       1   49818   49803   49815   49839       1
   49818   49803   49815   49842       1   49815   49839   49821   49845       1
   49812   49800   49809   49830       1   49809   49800   49812   49836       1
   49806   49797   49803   49818       1   49803   49797   49806   49824       1
   49800   49809   49827   49851       1   49800   49812   49833   49854       1
   49797   49806   49821   49845       1   49794   49797   49803   49818       1
   49794   49797   49806   49824       1   49794   49800   49809   49830       1
   49794   49800   49812   49836       1   49791   49779   49785   49794       1
   49788   49773   49785   49794       1   49782   49761   49779   49785       1
   49782   49761   49779   49791       1   49779   49785   49773   49788       1
   49776   49758   49773   49785       1   49776   49758   49773   49788       1
   49773   49785   49779   49791       1   49761   49752   49758   49776       1
   49758   49752   49761   49782       1   49752   49749   49755   49764       2
   49752   49749   49755   49767       2   49752   49749   49755   49770       2
   49752   49758   49773   49788       1   49752   49761   49779   49791       1
   49749   49752   49758   49776       1   49749   49752   49761   49782       1
   50622   50565   50616   50640       1   50619   50559   50616   50640       1
   50616   50640   50658   50706       2   50616   50640   50658   50709       2
   50616   50640   50658   50712       2   50613   50553   50607   50637       1
   50610   50547   50607   50637       1   50607   50637   50655   50697       2
   50607   50637   50655   50700       2   50607   50637   50655   50703       2
   50604   50541   50598   50634       1   50601   50535   50598   50634       1
   50598   50634   50652   50688       2   50598   50634   50652   50691       2
   50598   50634   50652   50694       2   50595   50529   50592   50631       1
   50592   50631   50649   50679       2   50592   50631   50649   50682       2
   50592   50631   50649   50685       2   50589   50523   50592   50631       1
   50586   50520   50580   50628       1   50583   50514   50580   50628       1
   50580   50628   50646   50670       2   50580   50628   50646   50673       2
   50580   50628   50646   50676       2   50577   50505   50571   50625       1
   50574   50499   50571   50625       1   50571   50625   50643   50661       2
   50571   50625   50643   50664       2   50571   50625   50643   50667       2
   50568   50496   50565   50616       1   50568   50496   50565   50622       1
   50565   50616   50559   50619       1   50562   50493   50559   50616       1
   50562   50493   50559   50619       1   50559   50616   50565   50622       1
   50556   50490   50553   50607       1   50556   50490   50553   50613       1
   50553   50607   50547   50610       1   50550   50487   50547   50607       1
   50550   50487   50547   50610       1   50547   50607   50553   50613       1
   50544   50484   50541   50598       1   50544   50484   50541   50604       1
   50541   50598   50535   50601       1   50538   50481   50535   50598       1
   50538   50481   50535   50601       1   50535   50598   50541   50604       1
   50532   50478   50529   50592       1   50532   50478   50529   50595       1
   50529   50592   50523   50589       1   50526   50475   50523   50589       1
   50526   50475   50523   50592       1   50523   50592   50529   50595       1
   50520   50580   50514   50583       1   50517   50472   50520   50580       1
   50517   50472   50520   50586       1   50514   50580   50520   50586       1
   50511   50469   50514   50580       1   50511   50469   50514   50583       1
   50508   50466   50505   50571       1   50508   50466   50505   50577       1
   50505   50571   50499   50574       1   50502   50463   50499   50571       1
   50502   50463   50499   50574       1   50499   50571   50505   50577       1
   50496   50457   50493   50562       1   50493   50457   50496   50568       1
   50490   50454   50487   50550       1   50487   50454   50490   50556       1
   50484   50448   50481   50538       1   50481   50448   50484   50544       1
   50478   50445   50475   50526       1   50475   50445   50478   50532       1
   50472   50442   50469   50511       1   50469   50442   50472   50517       1
   50466   50439   50463   50502       1   50463   50439   50466   50508       1
   50457   50493   50559   50619       1   50457   50496   50565   50622       1
   50454   50487   50547   50610       1   50454   50490   50553   50613       1
   50448   50481   50535   50601       1   50448   50484   50541   50604       1
   50445   50475   50523   50589       1   50445   50478   50529   50595       1
   50442   50469   50514   50583       1   50442   50472   50520   50586       1
   50439   50463   50499   50574       1   50439   50466   50505   50577       1
   50436   50403   50433   50460       1   50430   50400   50433   50460       1
   50430   50454   50487   50550       1   50430   50454   50490   50556       1
   50430   50457   50493   50562       1   50430   50457   50496   50568       1
   50427   50394   50424   50451       1   50421   50388   50424   50451       1
   50421   50445   50475   50526       1   50421   50445   50478   50532       1
   50421   50448   50481   50538       1   50421   50448   50484   50544       1
   50418   50439   50463   50502       1   50418   50439   50466   50508       1
   50418   50442   50469   50511       1   50418   50442   50472   50517       1
   50415   50376   50382   50418       1   50400   50433   50403   50436       1
   50397   50367   50400   50430       1   50397   50367   50400   50433       1
   50391   50361   50388   50421       1   50391   50361   50388   50424       1
   50388   50424   50394   50427       1   50385   50358   50382   50418       1
   50379   50355   50376   50382       1   50379   50355   50376   50415       1
   50376   50382   50358   50385       1   50370   50349   50367   50397       1
   50370   50364   50394   50427       1   50370   50403   50433   50460       1
   50367   50400   50433   50460       1   50364   50346   50361   50391       1
   50364   50370   50403   50436       1   50364   50394   50424   50451       1
   50361   50388   50424   50451       1   50358   50382   50376   50415       1
   50349   50370   50403   50436       1   50346   50364   50394   50427       1
   50343   50340   50355   50379       1   50340   50343   50358   50385       1
   50340   50355   50376   50415       1   50337   50316   50331   50352       1
   50334   50310   50331   50352       1   50331   50352   50373   50406       2
   50331   50352   50373   50409       2   50331   50352   50373   50412       2
   50328   50304   50322   50340       1   50325   50343   50358   50385       1
   50325   50346   50361   50391       1   50325   50349   50367   50397       1
   50322   50340   50355   50379       1   50319   50295   50316   50331       1
   50319   50295   50316   50337       1   50316   50331   50310   50334       1
   50313   50292   50310   50331       1   50313   50292   50310   50334       1
   50310   50331   50316   50337       1   50307   50289   50304   50322       1
   50307   50289   50304   50328       1   50301   50286   50298   50322       1
   50301   50286   50298   50325       1   50298   50322   50304   50328       1
   50295   50283   50292   50313       1   50292   50283   50295   50319       1
   50289   50280   50286   50301       1   50286   50280   50289   50307       1
   50283   50292   50310   50334       1   50283   50295   50316   50337       1
   50280   50289   50304   50328       1   50277   50280   50286   50301       1
   50277   50280   50289   50307       1   50277   50283   50292   50313       1
   50277   50283   50295   50319       1   50274   50262   50268   50277       1
   50271   50256   50268   50277       1   50265   50244   50262   50268       1
   50265   50244   50262   50274       1   50262   50268   50256   50271       1
   50259   50241   50256   50268       1   50259   50241   50256   50271       1
   50256   50268   50262   50274       1   50244   50235   50241   50259       1
   50241   50235   50244   50265       1   50235   50232   50238   50247       2
   50235   50232   50238   50250       2   50235   50232   50238   50253       2
   50235   50241   50256   50271       1   50235   50244   50262   50274       1
   50232   50235   50241   50259       1   50232   50235   50244   50265       1
   51105   51048   51099   51123       1   51102   51042   51099   51123       1
   51099   51123   51141   51189       2   51099   51123   51141   51192       2
   51099   51123   51141   51195       2   51096   51036   51090   51120       1
   51093   51030   51090   51120       1   51090   51120   51138   51180       2
   51090   51120   51138   51183       2   51090   51120   51138   51186       2
   51087   51024   51081   51117       1   51084   51018   51081   51117       1
   51081   51117   51135   51171       2   51081   51117   51135   51174       2
   51081   51117   51135   51177       2   51078   51012   51075   51114       1
   51075   51114   51132   51162       2   51075   51114   51132   51165       2
   51075   51114   51132   51168       2   51072   51006   51075   51114       1
   51069   51003   51063   51111       1   51066   50997   51063   51111       1
   51063   51111   51129   51153       2   51063   51111   51129   51156       2
   51063   51111   51129   51159       2   51060   50988   51054   51108       1
   51057   50982   51054   51108       1   51054   51108   51126   51144       2
   51054   51108   51126   51147       2   51054   51108   51126   51150       2
   51051   50979   51048   51099       1   51051   50979   51048   51105       1
   51048   51099   51042   51102       1   51045   50976   51042   51099       1
   51045   50976   51042   51102       1   51042   51099   51048   51105       1
   51039   50973   51036   51090       1   51039   50973   51036   51096       1
   51036   51090   51030   51093       1   51033   50970   51030   51090       1
   51033   50970   51030   51093       1   51030   51090   51036   51096       1
   51027   50967   51024   51081       1   51027   50967   51024   51087       1
   51024   51081   51018   51084       1   51021   50964   51018   51081       1
   51021   50964   51018   51084       1   51018   51081   51024   51087       1
   51015   50961   51012   51075       1   51015   50961   51012   51078       1
   51012   51075   51006   51072       1   51009   50958   51006   51072       1
   51009   50958   51006   51075       1   51006   51075   51012   51078       1
   51003   51063   50997   51066       1   51000   50955   51003   51063       1
   51000   50955   51003   51069       1   50997   51063   51003   51069       1
   50994   50952   50997   51063       1   50994   50952   50997   51066       1
   50991   50949   50988   51054       1   50991   50949   50988   51060       1
   50988   51054   50982   51057       1   50985   50946   50982   51054       1
   50985   50946   50982   51057       1   50982   51054   50988   51060       1
   50979   50940   50976   51045       1   50976   50940   50979   51051       1
   50973   50937   50970   51033       1   50970   50937   50973   51039       1
   50967   50931   50964   51021       1   50964   50931   50967   51027       1
   50961   50928   50958   51009       1   50958   50928   50961   51015       1
   50955   50925   50952   50994       1   50952   50925   50955   51000       1
   50949   50922   50946   50985       1   50946   50922   50949   50991       1
   50940   50976   51042   51102       1   50940   50979   51048   51105       1
   50937   50970   51030   51093       1   50937   50973   51036   51096       1
   50931   50964   51018   51084       1   50931   50967   51024   51087       1
   50928   50958   51006   51072       1   50928   50961   51012   51078       1
   50925   50952   50997   51066       1   50925   50955   51003   51069       1
   50922   50946   50982   51057       1   50922   50949   50988   51060       1
   50919   50886   50916   50943       1   50913   50883   50916   50943       1
   50913   50937   50970   51033       1   50913   50937   50973   51039       1
   50913   50940   50976   51045       1   50913   50940   50979   51051       1
   50910   50877   50907   50934       1   50904   50871   50907   50934       1
   50904   50928   50958   51009       1   50904   50928   50961   51015       1
   50904   50931   50964   51021       1   50904   50931   50967   51027       1
   50901   50922   50946   50985       1   50901   50922   50949   50991       1
   50901   50925   50952   50994       1   50901   50925   50955   51000       1
   50898   50859   50865   50901       1   50883   50916   50886   50919       1
   50880   50850   50883   50913       1   50880   50850   50883   50916       1
   50874   50844   50871   50904       1   50874   50844   50871   50907       1
   50871   50907   50877   50910       1   50868   50841   50865   50901       1
   50862   50838   50859   50865       1   50862   50838   50859   50898       1
   50859   50865   50841   50868       1   50853   50832   50850   50880       1
   50853   50847   50877   50910       1   50853   50886   50916   50943       1
   50850   50883   50916   50943       1   50847   50829   50844   50874       1
   50847   50853   50886   50919       1   50847   50877   50907   50934       1
   50844   50871   50907   50934       1   50841   50865   50859   50898       1
   50832   50853   50886   50919       1   50829   50847   50877   50910       1
   50826   50823   50838   50862       1   50823   50826   50841   50868       1
   50823   50838   50859   50898       1   50820   50799   50814   50835       1
   50817   50793   50814   50835       1   50814   50835   50856   50889       2
   50814   50835   50856   50892       2   50814   50835   50856   50895       2
   50811   50787   50805   50823       1   50808   50826   50841   50868       1
   50808   50829   50844   50874       1   50808   50832   50850   50880       1
   50805   50823   50838   50862       1   50802   50778   50799   50814       1
   50802   50778   50799   50820       1   50799   50814   50793   50817       1
   50796   50775   50793   50814       1   50796   50775   50793   50817       1
   50793   50814   50799   50820       1   50790   50772   50787   50805       1
   50790   50772   50787   50811       1   50784   50769   50781   50805       1
   50784   50769   50781   50808       1   50781   50805   50787   50811       1
   50778   50766   50775   50796       1   50775   50766   50778   50802       1
   50772   50763   50769   50784       1   50769   50763   50772   50790       1
   50766   50775   50793   50817       1   50766   50778   50799   50820       1
   50763   50772   50787   50811       1   50760   50763   50769   50784       1
   50760   50763   50772   50790       1   50760   50766   50775   50796       1
   50760   50766   50778   50802       1   50757   50745   50751   50760       1
   50754   50739   50751   50760       1   50748   50727   50745   50751       1
   50748   50727   50745   50757       1   50745   50751   50739   50754       1
   50742   50724   50739   50751       1   50742   50724   50739   50754       1
   50739   50751   50745   50757       1   50727   50718   50724   50742       1
   50724   50718   50727   50748       1   50718   50715   50721   50730       2
   50718   50715   50721   50733       2   50718   50715   50721   50736       2
   50718   50724   50739   50754       1   50718   50727   50745   50757       1
   50715   50718   50724   50742       1   50715   50718   50727   50748       1
   51588   51531   51582   51606       1   51585   51525   51582   51606       1
   51582   51606   51624   51672       2   51582   51606   51624   51675       2
   51582   51606   51624   51678       2   51579   51519   51573   51603       1
   51576   51513   51573   51603       1   51573   51603   51621   51663       2
   51573   51603   51621   51666       2   51573   51603   51621   51669       2
   51570   51507   51564   51600       1   51567   51501   51564   51600       1
   51564   51600   51618   51654       2   51564   51600   51618   51657       2
   51564   51600   51618   51660       2   51561   51495   51558   51597       1
   51558   51597   51615   51645       2   51558   51597   51615   51648       2
   51558   51597   51615   51651       2   51555   51489   51558   51597       1
   51552   51486   51546   51594       1   51549   51480   51546   51594       1
   51546   51594   51612   51636       2   51546   51594   51612   51639       2
   51546   51594   51612   51642       2   51543   51471   51537   51591       1
   51540   51465   51537   51591       1   51537   51591   51609   51627       2
   51537   51591   51609   51630       2   51537   51591   51609   51633       2
   51534   51462   51531   51582       1   51534   51462   51531   51588       1
   51531   51582   51525   51585       1   51528   51459   51525   51582       1
   51528   51459   51525   51585       1   51525   51582   51531   51588       1
   51522   51456   51519   51573       1   51522   51456   51519   51579       1
   51519   51573   51513   51576       1   51516   51453   51513   51573       1
   51516   51453   51513   51576       1   51513   51573   51519   51579       1
   51510   51450   51507   51564       1   51510   51450   51507   51570       1
   51507   51564   51501   51567       1   51504   51447   51501   51564       1
   51504   51447   51501   51567       1   51501   51564   51507   51570       1
   51498   51444   51495   51558       1   51498   51444   51495   51561       1
   51495   51558   51489   51555       1   51492   51441   51489   51555       1
   51492   51441   51489   51558       1   51489   51558   51495   51561       1
   51486   51546   51480   51549       1   51483   51438   51486   51546       1
   51483   51438   51486   51552       1   51480   51546   51486   51552       1
   51477   51435   51480   51546       1   51477   51435   51480   51549       1
   51474   51432   51471   51537       1   51474   51432   51471   51543       1
   51471   51537   51465   51540       1   51468   51429   51465   51537       1
   51468   51429   51465   51540       1   51465   51537   51471   51543       1
   51462   51423   51459   51528       1   51459   51423   51462   51534       1
   51456   51420   51453   51516       1   51453   51420   51456   51522       1
   51450   51414   51447   51504       1   51447   51414   51450   51510       1
   51444   51411   51441   51492       1   51441   51411   51444   51498       1
   51438   51408   51435   51477       1   51435   51408   51438   51483       1
   51432   51405   51429   51468       1   51429   51405   51432   51474       1
   51423   51459   51525   51585       1   51423   51462   51531   51588       1
   51420   51453   51513   51576       1   51420   51456   51519   51579       1
   51414   51447   51501   51567       1   51414   51450   51507   51570       1
   51411   51441   51489   51555       1   51411   51444   51495   51561       1
   51408   51435   51480   51549       1   51408   51438   51486   51552       1
   51405   51429   51465   51540       1   51405   51432   51471   51543       1
   51402   51369   51399   51426       1   51396   51366   51399   51426       1
   51396   51420   51453   51516       1   51396   51420   51456   51522       1
   51396   51423   51459   51528       1   51396   51423   51462   51534       1
   51393   51360   51390   51417       1   51387   51354   51390   51417       1
   51387   51411   51441   51492       1   51387   51411   51444   51498       1
   51387   51414   51447   51504       1   51387   51414   51450   51510       1
   51384   51405   51429   51468       1   51384   51405   51432   51474       1
   51384   51408   51435   51477       1   51384   51408   51438   51483       1
   51381   51342   51348   51384       1   51366   51399   51369   51402       1
   51363   51333   51366   51396       1   51363   51333   51366   51399       1
   51357   51327   51354   51387       1   51357   51327   51354   51390       1
   51354   51390   51360   51393       1   51351   51324   51348   51384       1
   51345   51321   51342   51348       1   51345   51321   51342   51381       1
   51342   51348   51324   51351       1   51336   51315   51333   51363       1
   51336   51330   51360   51393       1   51336   51369   51399   51426       1
   51333   51366   51399   51426       1   51330   51312   51327   51357       1
   51330   51336   51369   51402       1   51330   51360   51390   51417       1
   51327   51354   51390   51417       1   51324   51348   51342   51381       1
   51315   51336   51369   51402       1   51312   51330   51360   51393       1
   51309   51306   51321   51345       1   51306   51309   51324   51351       1
   51306   51321   51342   51381       1   51303   51282   51297   51318       1
   51300   51276   51297   51318       1   51297   51318   51339   51372       2
   51297   51318   51339   51375       2   51297   51318   51339   51378       2
   51294   51270   51288   51306       1   51291   51309   51324   51351       1
   51291   51312   51327   51357       1   51291   51315   51333   51363       1
   51288   51306   51321   51345       1   51285   51261   51282   51297       1
   51285   51261   51282   51303       1   51282   51297   51276   51300       1
   51279   51258   51276   51297       1   51279   51258   51276   51300       1
   51276   51297   51282   51303       1   51273   51255   51270   51288       1
   51273   51255   51270   51294       1   51267   51252   51264   51288       1
   51267   51252   51264   51291       1   51264   51288   51270   51294       1
   51261   51249   51258   51279       1   51258   51249   51261   51285       1
   51255   51246   51252   51267       1   51252   51246   51255   51273       1
   51249   51258   51276   51300       1   51249   51261   51282   51303       1
   51246   51255   51270   51294       1   51243   51246   51252   51267       1
   51243   51246   51255   51273       1   51243   51249   51258   51279       1
   51243   51249   51261   51285       1   51240   51228   51234   51243       1
   51237   51222   51234   51243       1   51231   51210   51228   51234       1
   51231   51210   51228   51240       1   51228   51234   51222   51237       1
   51225   51207   51222   51234       1   51225   51207   51222   51237       1
   51222   51234   51228   51240       1   51210   51201   51207   51225       1
   51207   51201   51210   51231       1   51201   51198   51204   51213       2
   51201   51198   51204   51216       2   51201   51198   51204   51219       2
   51201   51207   51222   51237       1   51201   51210   51228   51240       1
   51198   51201   51207   51225       1   51198   51201   51210   51231       1
   52071   52014   52065   52089       1   52068   52008   52065   52089       1
   52065   52089   52107   52155       2   52065   52089   52107   52158       2
   52065   52089   52107   52161       2   52062   52002   52056   52086       1
   52059   51996   52056   52086       1   52056   52086   52104   52146       2
   52056   52086   52104   52149       2   52056   52086   52104   52152       2
   52053   51990   52047   52083       1   52050   51984   52047   52083       1
   52047   52083   52101   52137       2   52047   52083   52101   52140       2
   52047   52083   52101   52143       2   52044   51978   52041   52080       1
   52041   52080   52098   52128       2   52041   52080   52098   52131       2
   52041   52080   52098   52134       2   52038   51972   52041   52080       1
   52035   51969   52029   52077       1   52032   51963   52029   52077       1
   52029   52077   52095   52119       2   52029   52077   52095   52122       2
   52029   52077   52095   52125       2   52026   51954   52020   52074       1
   52023   51948   52020   52074       1   52020   52074   52092   52110       2
   52020   52074   52092   52113       2   52020   52074   52092   52116       2
   52017   51945   52014   52065       1   52017   51945   52014   52071       1
   52014   52065   52008   52068       1   52011   51942   52008   52065       1
   52011   51942   52008   52068       1   52008   52065   52014   52071       1
   52005   51939   52002   52056       1   52005   51939   52002   52062       1
   52002   52056   51996   52059       1   51999   51936   51996   52056       1
   51999   51936   51996   52059       1   51996   52056   52002   52062       1
   51993   51933   51990   52047       1   51993   51933   51990   52053       1
   51990   52047   51984   52050       1   51987   51930   51984   52047       1
   51987   51930   51984   52050       1   51984   52047   51990   52053       1
   51981   51927   51978   52041       1   51981   51927   51978   52044       1
   51978   52041   51972   52038       1   51975   51924   51972   52038       1
   51975   51924   51972   52041       1   51972   52041   51978   52044       1
   51969   52029   51963   52032       1   51966   51921   51969   52029       1
   51966   51921   51969   52035       1   51963   52029   51969   52035       1
   51960   51918   51963   52029       1   51960   51918   51963   52032       1
   51957   51915   51954   52020       1   51957   51915   51954   52026       1
   51954   52020   51948   52023       1   51951   51912   51948   52020       1
   51951   51912   51948   52023       1   51948   52020   51954   52026       1
   51945   51906   51942   52011       1   51942   51906   51945   52017       1
   51939   51903   51936   51999       1   51936   51903   51939   52005       1
   51933   51897   51930   51987       1   51930   51897   51933   51993       1
   51927   51894   51924   51975       1   51924   51894   51927   51981       1
   51921   51891   51918   51960       1   51918   51891   51921   51966       1
   51915   51888   51912   51951       1   51912   51888   51915   51957       1
   51906   51942   52008   52068       1   51906   51945   52014   52071       1
   51903   51936   51996   52059       1   51903   51939   52002   52062       1
   51897   51930   51984   52050       1   51897   51933   51990   52053       1
   51894   51924   51972   52038       1   51894   51927   51978   52044       1
   51891   51918   51963   52032       1   51891   51921   51969   52035       1
   51888   51912   51948   52023       1   51888   51915   51954   52026       1
   51885   51852   51882   51909       1   51879   51849   51882   51909       1
   51879   51903   51936   51999       1   51879   51903   51939   52005       1
   51879   51906   51942   52011       1   51879   51906   51945   52017       1
   51876   51843   51873   51900       1   51870   51837   51873   51900       1
   51870   51894   51924   51975       1   51870   51894   51927   51981       1
   51870   51897   51930   51987       1   51870   51897   51933   51993       1
   51867   51888   51912   51951       1   51867   51888   51915   51957       1
   51867   51891   51918   51960       1   51867   51891   51921   51966       1
   51864   51825   51831   51867       1   51849   51882   51852   51885       1
   51846   51816   51849   51879       1   51846   51816   51849   51882       1
   51840   51810   51837   51870       1   51840   51810   51837   51873       1
   51837   51873   51843   51876       1   51834   51807   51831   51867       1
   51828   51804   51825   51831       1   51828   51804   51825   51864       1
   51825   51831   51807   51834       1   51819   51798   51816   51846       1
   51819   51813   51843   51876       1   51819   51852   51882   51909       1
   51816   51849   51882   51909       1   51813   51795   51810   51840       1
   51813   51819   51852   51885       1   51813   51843   51873   51900       1
   51810   51837   51873   51900       1   51807   51831   51825   51864       1
   51798   51819   51852   51885       1   51795   51813   51843   51876       1
   51792   51789   51804   51828       1   51789   51792   51807   51834       1
   51789   51804   51825   51864       1   51786   51765   51780   51801       1
   51783   51759   51780   51801       1   51780   51801   51822   51855       2
   51780   51801   51822   51858       2   51780   51801   51822   51861       2
   51777   51753   51771   51789       1   51774   51792   51807   51834       1
   51774   51795   51810   51840       1   51774   51798   51816   51846       1
   51771   51789   51804   51828       1   51768   51744   51765   51780       1
   51768   51744   51765   51786       1   51765   51780   51759   51783       1
   51762   51741   51759   51780       1   51762   51741   51759   51783       1
   51759   51780   51765   51786       1   51756   51738   51753   51771       1
   51756   51738   51753   51777       1   51750   51735   51747   51771       1
   51750   51735   51747   51774       1   51747   51771   51753   51777       1
   51744   51732   51741   51762       1   51741   51732   51744   51768       1
   51738   51729   51735   51750       1   51735   51729   51738   51756       1
   51732   51741   51759   51783       1   51732   51744   51765   51786       1
   51729   51738   51753   51777       1   51726   51729   51735   51750       1
   51726   51729   51738   51756       1   51726   51732   51741   51762       1
   51726   51732   51744   51768       1   51723   51711   51717   51726       1
   51720   51705   51717   51726       1   51714   51693   51711   51717       1
   51714   51693   51711   51723       1   51711   51717   51705   51720       1
   51708   51690   51705   51717       1   51708   51690   51705   51720       1
   51705   51717   51711   51723       1   51693   51684   51690   51708       1
   51690   51684   51693   51714       1   51684   51681   51687   51696       2
   51684   51681   51687   51699       2   51684   51681   51687   51702       2
   51684   51690   51705   51720       1   51684   51693   51711   51723       1
   51681   51684   51690   51708       1   51681   51684   51693   51714       1
   52554   52497   52548   52572       1   52551   52491   52548   52572       1
   52548   52572   52590   52638       2   52548   52572   52590   52641       2
   52548   52572   52590   52644       2   52545   52485   52539   52569       1
   52542   52479   52539   52569       1   52539   52569   52587   52629       2
   52539   52569   52587   52632       2   52539   52569   52587   52635       2
   52536   52473   52530   52566       1   52533   52467   52530   52566       1
   52530   52566   52584   52620       2   52530   52566   52584   52623       2
   52530   52566   52584   52626       2   52527   52461   52524   52563       1
   52524   52563   52581   52611       2   52524   52563   52581   52614       2
   52524   52563   52581   52617       2   52521   52455   52524   52563       1
   52518   52452   52512   52560       1   52515   52446   52512   52560       1
   52512   52560   52578   52602       2   52512   52560   52578   52605       2
   52512   52560   52578   52608       2   52509   52437   52503   52557       1
   52506   52431   52503   52557       1   52503   52557   52575   52593       2
   52503   52557   52575   52596       2   52503   52557   52575   52599       2
   52500   52428   52497   52548       1   52500   52428   52497   52554       1
   52497   52548   52491   52551       1   52494   52425   52491   52548       1
   52494   52425   52491   52551       1   52491   52548   52497   52554       1
   52488   52422   52485   52539       1   52488   52422   52485   52545       1
   52485   52539   52479   52542       1   52482   52419   52479   52539       1
   52482   52419   52479   52542       1   52479   52539   52485   52545       1
   52476   52416   52473   52530       1   52476   52416   52473   52536       1
   52473   52530   52467   52533       1   52470   52413   52467   52530       1
   52470   52413   52467   52533       1   52467   52530   52473   52536       1
   52464   52410   52461   52524       1   52464   52410   52461   52527       1
   52461   52524   52455   52521       1   52458   52407   52455   52521       1
   52458   52407   52455   52524       1   52455   52524   52461   52527       1
   52452   52512   52446   52515       1   52449   52404   52452   52512       1
   52449   52404   52452   52518       1   52446   52512   52452   52518       1
   52443   52401   52446   52512       1   52443   52401   52446   52515       1
   52440   52398   52437   52503       1   52440   52398   52437   52509       1
   52437   52503   52431   52506       1   52434   52395   52431   52503       1
   52434   52395   52431   52506       1   52431   52503   52437   52509       1
   52428   52389   52425   52494       1   52425   52389   52428   52500       1
   52422   52386   52419   52482       1   52419   52386   52422   52488       1
   52416   52380   52413   52470       1   52413   52380   52416   52476       1
   52410   52377   52407   52458       1   52407   52377   52410   52464       1
   52404   52374   52401   52443       1   52401   52374   52404   52449       1
   52398   52371   52395   52434       1   52395   52371   52398   52440       1
   52389   52425   52491   52551       1   52389   52428   52497   52554       1
   52386   52419   52479   52542       1   52386   52422   52485   52545       1
   52380   52413   52467   52533       1   52380   52416   52473   52536       1
   52377   52407   52455   52521       1   52377   52410   52461   52527       1
   52374   52401   52446   52515       1   52374   52404   52452   52518       1
   52371   52395   52431   52506       1   52371   52398   52437   52509       1
   52368   52335   52365   52392       1   52362   52332   52365   52392       1
   52362   52386   52419   52482       1   52362   52386   52422   52488       1
   52362   52389   52425   52494       1   52362   52389   52428   52500       1
   52359   52326   52356   52383       1   52353   52320   52356   52383       1
   52353   52377   52407   52458       1   52353   52377   52410   52464       1
   52353   52380   52413   52470       1   52353   52380   52416   52476       1
   52350   52371   52395   52434       1   52350   52371   52398   52440       1
   52350   52374   52401   52443       1   52350   52374   52404   52449       1
   52347   52308   52314   52350       1   52332   52365   52335   52368       1
   52329   52299   52332   52362       1   52329   52299   52332   52365       1
   52323   52293   52320   52353       1   52323   52293   52320   52356       1
   52320   52356   52326   52359       1   52317   52290   52314   52350       1
   52311   52287   52308   52314       1   52311   52287   52308   52347       1
   52308   52314   52290   52317       1   52302   52281   52299   52329       1
   52302   52296   52326   52359       1   52302   52335   52365   52392       1
   52299   52332   52365   52392       1   52296   52278   52293   52323       1
   52296   52302   52335   52368       1   52296   52326   52356   52383       1
   52293   52320   52356   52383       1   52290   52314   52308   52347       1
   52281   52302   52335   52368       1   52278   52296   52326   52359       1
   52275   52272   52287   52311       1   52272   52275   52290   52317       1
   52272   52287   52308   52347       1   52269   52248   52263   52284       1
   52266   52242   52263   52284       1   52263   52284   52305   52338       2
   52263   52284   52305   52341       2   52263   52284   52305   52344       2
   52260   52236   52254   52272       1   52257   52275   52290   52317       1
   52257   52278   52293   52323       1   52257   52281   52299   52329       1
   52254   52272   52287   52311       1   52251   52227   52248   52263       1
   52251   52227   52248   52269       1   52248   52263   52242   52266       1
   52245   52224   52242   52263       1   52245   52224   52242   52266       1
   52242   52263   52248   52269       1   52239   52221   52236   52254       1
   52239   52221   52236   52260       1   52233   52218   52230   52254       1
   52233   52218   52230   52257       1   52230   52254   52236   52260       1
   52227   52215   52224   52245       1   52224   52215   52227   52251       1
   52221   52212   52218   52233       1   52218   52212   52221   52239       1
   52215   52224   52242   52266       1   52215   52227   52248   52269       1
   52212   52221   52236   52260       1   52209   52212   52218   52233       1
   52209   52212   52221   52239       1   52209   52215   52224   52245       1
   52209   52215   52227   52251       1   52206   52194   52200   52209       1
   52203   52188   52200   52209       1   52197   52176   52194   52200       1
   52197   52176   52194   52206       1   52194   52200   52188   52203       1
   52191   52173   52188   52200       1   52191   52173   52188   52203       1
   52188   52200   52194   52206       1   52176   52167   52173   52191       1
   52173   52167   52176   52197       1   52167   52164   52170   52179       2
   52167   52164   52170   52182       2   52167   52164   52170   52185       2
   52167   52173   52188   52203       1   52167   52176   52194   52206       1
   52164   52167   52173   52191       1   52164   52167   52176   52197       1
   53037   52980   53031   53055       1   53034   52974   53031   53055       1
   53031   53055   53073   53121       2   53031   53055   53073   53124       2
   53031   53055   53073   53127       2   53028   52968   53022   53052       1
   53025   52962   53022   53052       1   53022   53052   53070   53112       2
   53022   53052   53070   53115       2   53022   53052   53070   53118       2
   53019   52956   53013   53049       1   53016   52950   53013   53049       1
   53013   53049   53067   53103       2   53013   53049   53067   53106       2
   53013   53049   53067   53109       2   53010   52944   53007   53046       1
   53007   53046   53064   53094       2   53007   53046   53064   53097       2
   53007   53046   53064   53100       2   53004   52938   53007   53046       1
   53001   52935   52995   53043       1   52998   52929   52995   53043       1
   52995   53043   53061   53085       2   52995   53043   53061   53088       2
   52995   53043   53061   53091       2   52992   52920   52986   53040       1
   52989   52914   52986   53040       1   52986   53040   53058   53076       2
   52986   53040   53058   53079       2   52986   53040   53058   53082       2
   52983   52911   52980   53031       1   52983   52911   52980   53037       1
   52980   53031   52974   53034       1   52977   52908   52974   53031       1
   52977   52908   52974   53034       1   52974   53031   52980   53037       1
   52971   52905   52968   53022       1   52971   52905   52968   53028       1
   52968   53022   52962   53025       1   52965   52902   52962   53022       1
   52965   52902   52962   53025       1   52962   53022   52968   53028       1
   52959   52899   52956   53013       1   52959   52899   52956   53019       1
   52956   53013   52950   53016       1   52953   52896   52950   53013       1
   52953   52896   52950   53016       1   52950   53013   52956   53019       1
   52947   52893   52944   53007       1   52947   52893   52944   53010       1
   52944   53007   52938   53004       1   52941   52890   52938   53004       1
   52941   52890   52938   53007       1   52938   53007   52944   53010       1
   52935   52995   52929   52998       1   52932   52887   52935   52995       1
   52932   52887   52935   53001       1   52929   52995   52935   53001       1
   52926   52884   52929   52995       1   52926   52884   52929   52998       1
   52923   52881   52920   52986       1   52923   52881   52920   52992       1
   52920   52986   52914   52989       1   52917   52878   52914   52986       1
   52917   52878   52914   52989       1   52914   52986   52920   52992       1
   52911   52872   52908   52977       1   52908   52872   52911   52983       1
   52905   52869   52902   52965       1   52902   52869   52905   52971       1
   52899   52863   52896   52953       1   52896   52863   52899   52959       1
   52893   52860   52890   52941       1   52890   52860   52893   52947       1
   52887   52857   52884   52926       1   52884   52857   52887   52932       1
   52881   52854   52878   52917       1   52878   52854   52881   52923       1
   52872   52908   52974   53034       1   52872   52911   52980   53037       1
   52869   52902   52962   53025       1   52869   52905   52968   53028       1
   52863   52896   52950   53016       1   52863   52899   52956   53019       1
   52860   52890   52938   53004       1   52860   52893   52944   53010       1
   52857   52884   52929   52998       1   52857   52887   52935   53001       1
   52854   52878   52914   52989       1   52854   52881   52920   52992       1
   52851   52818   52848   52875       1   52845   52815   52848   52875       1
   52845   52869   52902   52965       1   52845   52869   52905   52971       1
   52845   52872   52908   52977       1   52845   52872   52911   52983       1
   52842   52809   52839   52866       1   52836   52803   52839   52866       1
   52836   52860   52890   52941       1   52836   52860   52893   52947       1
   52836   52863   52896   52953       1   52836   52863   52899   52959       1
   52833   52854   52878   52917       1   52833   52854   52881   52923       1
   52833   52857   52884   52926       1   52833   52857   52887   52932       1
   52830   52791   52797   52833       1   52815   52848   52818   52851       1
   52812   52782   52815   52845       1   52812   52782   52815   52848       1
   52806   52776   52803   52836       1   52806   52776   52803   52839       1
   52803   52839   52809   52842       1   52800   52773   52797   52833       1
   52794   52770   52791   52797       1   52794   52770   52791   52830       1
   52791   52797   52773   52800       1   52785   52764   52782   52812       1
   52785   52779   52809   52842       1   52785   52818   52848   52875       1
   52782   52815   52848   52875       1   52779   52761   52776   52806       1
   52779   52785   52818   52851       1   52779   52809   52839   52866       1
   52776   52803   52839   52866       1   52773   52797   52791   52830       1
   52764   52785   52818   52851       1   52761   52779   52809   52842       1
   52758   52755   52770   52794       1   52755   52758   52773   52800       1
   52755   52770   52791   52830       1   52752   52731   52746   52767       1
   52749   52725   52746   52767       1   52746   52767   52788   52821       2
   52746   52767   52788   52824       2   52746   52767   52788   52827       2
   52743   52719   52737   52755       1   52740   52758   52773   52800       1
   52740   52761   52776   52806       1   52740   52764   52782   52812       1
   52737   52755   52770   52794       1   52734   52710   52731   52746       1
   52734   52710   52731   52752       1   52731   52746   52725   52749       1
   52728   52707   52725   52746       1   52728   52707   52725   52749       1
   52725   52746   52731   52752       1   52722   52704   52719   52737       1
   52722   52704   52719   52743       1   52716   52701   52713   52737       1
   52716   52701   52713   52740       1   52713   52737   52719   52743       1
   52710   52698   52707   52728       1   52707   52698   52710   52734       1
   52704   52695   52701   52716       1   52701   52695   52704   52722       1
   52698   52707   52725   52749       1   52698   52710   52731   52752       1
   52695   52704   52719   52743       1   52692   52695   52701   52716       1
   52692   52695   52704   52722       1   52692   52698   52707   52728       1
   52692   52698   52710   52734       1   52689   52677   52683   52692       1
   52686   52671   52683   52692       1   52680   52659   52677   52683       1
   52680   52659   52677   52689       1   52677   52683   52671   52686       1
   52674   52656   52671   52683       1   52674   52656   52671   52686       1
   52671   52683   52677   52689       1   52659   52650   52656   52674       1
   52656   52650   52659   52680       1   52650   52647   52653   52662       2
   52650   52647   52653   52665       2   52650   52647   52653   52668       2
   52650   52656   52671   52686       1   52650   52659   52677   52689       1
   52647   52650   52656   52674       1   52647   52650   52659   52680       1
   53520   53463   53514   53538       1   53517   53457   53514   53538       1
   53514   53538   53556   53604       2   53514   53538   53556   53607       2
   53514   53538   53556   53610       2   53511   53451   53505   53535       1
   53508   53445   53505   53535       1   53505   53535   53553   53595       2
   53505   53535   53553   53598       2   53505   53535   53553   53601       2
   53502   53439   53496   53532       1   53499   53433   53496   53532       1
   53496   53532   53550   53586       2   53496   53532   53550   53589       2
   53496   53532   53550   53592       2   53493   53427   53490   53529       1
   53490   53529   53547   53577       2   53490   53529   53547   53580       2
   53490   53529   53547   53583       2   53487   53421   53490   53529       1
   53484   53418   53478   53526       1   53481   53412   53478   53526       1
   53478   53526   53544   53568       2   53478   53526   53544   53571       2
   53478   53526   53544   53574       2   53475   53403   53469   53523       1
   53472   53397   53469   53523       1   53469   53523   53541   53559       2
   53469   53523   53541   53562       2   53469   53523   53541   53565       2
   53466   53394   53463   53514       1   53466   53394   53463   53520       1
   53463   53514   53457   53517       1   53460   53391   53457   53514       1
   53460   53391   53457   53517       1   53457   53514   53463   53520       1
   53454   53388   53451   53505       1   53454   53388   53451   53511       1
   53451   53505   53445   53508       1   53448   53385   53445   53505       1
   53448   53385   53445   53508       1   53445   53505   53451   53511       1
   53442   53382   53439   53496       1   53442   53382   53439   53502       1
   53439   53496   53433   53499       1   53436   53379   53433   53496       1
   53436   53379   53433   53499       1   53433   53496   53439   53502       1
   53430   53376   53427   53490       1   53430   53376   53427   53493       1
   53427   53490   53421   53487       1   53424   53373   53421   53487       1
   53424   53373   53421   53490       1   53421   53490   53427   53493       1
   53418   53478   53412   53481       1   53415   53370   53418   53478       1
   53415   53370   53418   53484       1   53412   53478   53418   53484       1
   53409   53367   53412   53478       1   53409   53367   53412   53481       1
   53406   53364   53403   53469       1   53406   53364   53403   53475       1
   53403   53469   53397   53472       1   53400   53361   53397   53469       1
   53400   53361   53397   53472       1   53397   53469   53403   53475       1
   53394   53355   53391   53460       1   53391   53355   53394   53466       1
   53388   53352   53385   53448       1   53385   53352   53388   53454       1
   53382   53346   53379   53436       1   53379   53346   53382   53442       1
   53376   53343   53373   53424       1   53373   53343   53376   53430       1
   53370   53340   53367   53409       1   53367   53340   53370   53415       1
   53364   53337   53361   53400       1   53361   53337   53364   53406       1
   53355   53391   53457   53517       1   53355   53394   53463   53520       1
   53352   53385   53445   53508       1   53352   53388   53451   53511       1
   53346   53379   53433   53499       1   53346   53382   53439   53502       1
   53343   53373   53421   53487       1   53343   53376   53427   53493       1
   53340   53367   53412   53481       1   53340   53370   53418   53484       1
   53337   53361   53397   53472       1   53337   53364   53403   53475       1
   53334   53301   53331   53358       1   53328   53298   53331   53358       1
   53328   53352   53385   53448       1   53328   53352   53388   53454       1
   53328   53355   53391   53460       1   53328   53355   53394   53466       1
   53325   53292   53322   53349       1   53319   53286   53322   53349       1
   53319   53343   53373   53424       1   53319   53343   53376   53430       1
   53319   53346   53379   53436       1   53319   53346   53382   53442       1
   53316   53337   53361   53400       1   53316   53337   53364   53406       1
   53316   53340   53367   53409       1   53316   53340   53370   53415       1
   53313   53274   53280   53316       1   53298   53331   53301   53334       1
   53295   53265   53298   53328       1   53295   53265   53298   53331       1
   53289   53259   53286   53319       1   53289   53259   53286   53322       1
   53286   53322   53292   53325       1   53283   53256   53280   53316       1
   53277   53253   53274   53280       1   53277   53253   53274   53313       1
   53274   53280   53256   53283       1   53268   53247   53265   53295       1
   53268   53262   53292   53325       1   53268   53301   53331   53358       1
   53265   53298   53331   53358       1   53262   53244   53259   53289       1
   53262   53268   53301   53334       1   53262   53292   53322   53349       1
   53259   53286   53322   53349       1   53256   53280   53274   53313       1
   53247   53268   53301   53334       1   53244   53262   53292   53325       1
   53241   53238   53253   53277       1   53238   53241   53256   53283       1
   53238   53253   53274   53313       1   53235   53214   53229   53250       1
   53232   53208   53229   53250       1   53229   53250   53271   53304       2
   53229   53250   53271   53307       2   53229   53250   53271   53310       2
   53226   53202   53220   53238       1   53223   53241   53256   53283       1
   53223   53244   53259   53289       1   53223   53247   53265   53295       1
   53220   53238   53253   53277       1   53217   53193   53214   53229       1
   53217   53193   53214   53235       1   53214   53229   53208   53232       1
   53211   53190   53208   53229       1   53211   53190   53208   53232       1
   53208   53229   53214   53235       1   53205   53187   53202   53220       1
   53205   53187   53202   53226       1   53199   53184   53196   53220       1
   53199   53184   53196   53223       1   53196   53220   53202   53226       1
   53193   53181   53190   53211       1   53190   53181   53193   53217       1
   53187   53178   53184   53199       1   53184   53178   53187   53205       1
   53181   53190   53208   53232       1   53181   53193   53214   53235       1
   53178   53187   53202   53226       1   53175   53178   53184   53199       1
   53175   53178   53187   53205       1   53175   53181   53190   53211       1
   53175   53181   53193   53217       1   53172   53160   53166   53175       1
   53169   53154   53166   53175       1   53163   53142   53160   53166       1
   53163   53142   53160   53172       1   53160   53166   53154   53169       1
   53157   53139   53154   53166       1   53157   53139   53154   53169       1
   53154   53166   53160   53172       1   53142   53133   53139   53157       1
   53139   53133   53142   53163       1   53133   53130   53136   53145       2
   53133   53130   53136   53148       2   53133   53130   53136   53151       2
   53133   53139   53154   53169       1   53133   53142   53160   53172       1
   53130   53133   53139   53157       1   53130   53133   53142   53163       1
   54003   53946   53997   54021       1   54000   53940   53997   54021       1
   53997   54021   54039   54087       2   53997   54021   54039   54090       2
   53997   54021   54039   54093       2   53994   53934   53988   54018       1
   53991   53928   53988   54018       1   53988   54018   54036   54078       2
   53988   54018   54036   54081       2   53988   54018   54036   54084       2
   53985   53922   53979   54015       1   53982   53916   53979   54015       1
   53979   54015   54033   54069       2   53979   54015   54033   54072       2
   53979   54015   54033   54075       2   53976   53910   53973   54012       1
   53973   54012   54030   54060       2   53973   54012   54030   54063       2
   53973   54012   54030   54066       2   53970   53904   53973   54012       1
   53967   53901   53961   54009       1   53964   53895   53961   54009       1
   53961   54009   54027   54051       2   53961   54009   54027   54054       2
   53961   54009   54027   54057       2   53958   53886   53952   54006       1
   53955   53880   53952   54006       1   53952   54006   54024   54042       2
   53952   54006   54024   54045       2   53952   54006   54024   54048       2
   53949   53877   53946   53997       1   53949   53877   53946   54003       1
   53946   53997   53940   54000       1   53943   53874   53940   53997       1
   53943   53874   53940   54000       1   53940   53997   53946   54003       1
   53937   53871   53934   53988       1   53937   53871   53934   53994       1
   53934   53988   53928   53991       1   53931   53868   53928   53988       1
   53931   53868   53928   53991       1   53928   53988   53934   53994       1
   53925   53865   53922   53979       1   53925   53865   53922   53985       1
   53922   53979   53916   53982       1   53919   53862   53916   53979       1
   53919   53862   53916   53982       1   53916   53979   53922   53985       1
   53913   53859   53910   53973       1   53913   53859   53910   53976       1
   53910   53973   53904   53970       1   53907   53856   53904   53970       1
   53907   53856   53904   53973       1   53904   53973   53910   53976       1
   53901   53961   53895   53964       1   53898   53853   53901   53961       1
   53898   53853   53901   53967       1   53895   53961   53901   53967       1
   53892   53850   53895   53961       1   53892   53850   53895   53964       1
   53889   53847   53886   53952       1   53889   53847   53886   53958       1
   53886   53952   53880   53955       1   53883   53844   53880   53952       1
   53883   53844   53880   53955       1   53880   53952   53886   53958       1
   53877   53838   53874   53943       1   53874   53838   53877   53949       1
   53871   53835   53868   53931       1   53868   53835   53871   53937       1
   53865   53829   53862   53919       1   53862   53829   53865   53925       1
   53859   53826   53856   53907       1   53856   53826   53859   53913       1
   53853   53823   53850   53892       1   53850   53823   53853   53898       1
   53847   53820   53844   53883       1   53844   53820   53847   53889       1
   53838   53874   53940   54000       1   53838   53877   53946   54003       1
   53835   53868   53928   53991       1   53835   53871   53934   53994       1
   53829   53862   53916   53982       1   53829   53865   53922   53985       1
   53826   53856   53904   53970       1   53826   53859   53910   53976       1
   53823   53850   53895   53964       1   53823   53853   53901   53967       1
   53820   53844   53880   53955       1   53820   53847   53886   53958       1
   53817   53784   53814   53841       1   53811   53781   53814   53841       1
   53811   53835   53868   53931       1   53811   53835   53871   53937       1
   53811   53838   53874   53943       1   53811   53838   53877   53949       1
   53808   53775   53805   53832       1   53802   53769   53805   53832       1
   53802   53826   53856   53907       1   53802   53826   53859   53913       1
   53802   53829   53862   53919       1   53802   53829   53865   53925       1
   53799   53820   53844   53883       1   53799   53820   53847   53889       1
   53799   53823   53850   53892       1   53799   53823   53853   53898       1
   53796   53757   53763   53799       1   53781   53814   53784   53817       1
   53778   53748   53781   53811       1   53778   53748   53781   53814       1
   53772   53742   53769   53802       1   53772   53742   53769   53805       1
   53769   53805   53775   53808       1   53766   53739   53763   53799       1
   53760   53736   53757   53763       1   53760   53736   53757   53796       1
   53757   53763   53739   53766       1   53751   53730   53748   53778       1
   53751   53745   53775   53808       1   53751   53784   53814   53841       1
   53748   53781   53814   53841       1   53745   53727   53742   53772       1
   53745   53751   53784   53817       1   53745   53775   53805   53832       1
   53742   53769   53805   53832       1   53739   53763   53757   53796       1
   53730   53751   53784   53817       1   53727   53745   53775   53808       1
   53724   53721   53736   53760       1   53721   53724   53739   53766       1
   53721   53736   53757   53796       1   53718   53697   53712   53733       1
   53715   53691   53712   53733       1   53712   53733   53754   53787       2
   53712   53733   53754   53790       2   53712   53733   53754   53793       2
   53709   53685   53703   53721       1   53706   53724   53739   53766       1
   53706   53727   53742   53772       1   53706   53730   53748   53778       1
   53703   53721   53736   53760       1   53700   53676   53697   53712       1
   53700   53676   53697   53718       1   53697   53712   53691   53715       1
   53694   53673   53691   53712       1   53694   53673   53691   53715       1
   53691   53712   53697   53718       1   53688   53670   53685   53703       1
   53688   53670   53685   53709       1   53682   53667   53679   53703       1
   53682   53667   53679   53706       1   53679   53703   53685   53709       1
   53676   53664   53673   53694       1   53673   53664   53676   53700       1
   53670   53661   53667   53682       1   53667   53661   53670   53688       1
   53664   53673   53691   53715       1   53664   53676   53697   53718       1
   53661   53670   53685   53709       1   53658   53661   53667   53682       1
   53658   53661   53670   53688       1   53658   53664   53673   53694       1
   53658   53664   53676   53700       1   53655   53643   53649   53658       1
   53652   53637   53649   53658       1   53646   53625   53643   53649       1
   53646   53625   53643   53655       1   53643   53649   53637   53652       1
   53640   53622   53637   53649       1   53640   53622   53637   53652       1
   53637   53649   53643   53655       1   53625   53616   53622   53640       1
   53622   53616   53625   53646       1   53616   53613   53619   53628       2
   53616   53613   53619   53631       2   53616   53613   53619   53634       2
   53616   53622   53637   53652       1   53616   53625   53643   53655       1
   53613   53616   53622   53640       1   53613   53616   53625   53646       1
   54486   54429   54480   54504       1   54483   54423   54480   54504       1
   54480   54504   54522   54570       2   54480   54504   54522   54573       2
   54480   54504   54522   54576       2   54477   54417   54471   54501       1
   54474   54411   54471   54501       1   54471   54501   54519   54561       2
   54471   54501   54519   54564       2   54471   54501   54519   54567       2
   54468   54405   54462   54498       1   54465   54399   54462   54498       1
   54462   54498   54516   54552       2   54462   54498   54516   54555       2
   54462   54498   54516   54558       2   54459   54393   54456   54495       1
   54456   54495   54513   54543       2   54456   54495   54513   54546       2
   54456   54495   54513   54549       2   54453   54387   54456   54495       1
   54450   54384   54444   54492       1   54447   54378   54444   54492       1
   54444   54492   54510   54534       2   54444   54492   54510   54537       2
   54444   54492   54510   54540       2   54441   54369   54435   54489       1
   54438   54363   54435   54489       1   54435   54489   54507   54525       2
   54435   54489   54507   54528       2   54435   54489   54507   54531       2
   54432   54360   54429   54480       1   54432   54360   54429   54486       1
   54429   54480   54423   54483       1   54426   54357   54423   54480       1
   54426   54357   54423   54483       1   54423   54480   54429   54486       1
   54420   54354   54417   54471       1   54420   54354   54417   54477       1
   54417   54471   54411   54474       1   54414   54351   54411   54471       1
   54414   54351   54411   54474       1   54411   54471   54417   54477       1
   54408   54348   54405   54462       1   54408   54348   54405   54468       1
   54405   54462   54399   54465       1   54402   54345   54399   54462       1
   54402   54345   54399   54465       1   54399   54462   54405   54468       1
   54396   54342   54393   54456       1   54396   54342   54393   54459       1
   54393   54456   54387   54453       1   54390   54339   54387   54453       1
   54390   54339   54387   54456       1   54387   54456   54393   54459       1
   54384   54444   54378   54447       1   54381   54336   54384   54444       1
   54381   54336   54384   54450       1   54378   54444   54384   54450       1
   54375   54333   54378   54444       1   54375   54333   54378   54447       1
   54372   54330   54369   54435       1   54372   54330   54369   54441       1
   54369   54435   54363   54438       1   54366   54327   54363   54435       1
   54366   54327   54363   54438       1   54363   54435   54369   54441       1
   54360   54321   54357   54426       1   54357   54321   54360   54432       1
   54354   54318   54351   54414       1   54351   54318   54354   54420       1
   54348   54312   54345   54402       1   54345   54312   54348   54408       1
   54342   54309   54339   54390       1   54339   54309   54342   54396       1
   54336   54306   54333   54375       1   54333   54306   54336   54381       1
   54330   54303   54327   54366       1   54327   54303   54330   54372       1
   54321   54357   54423   54483       1   54321   54360   54429   54486       1
   54318   54351   54411   54474       1   54318   54354   54417   54477       1
   54312   54345   54399   54465       1   54312   54348   54405   54468       1
   54309   54339   54387   54453       1   54309   54342   54393   54459       1
   54306   54333   54378   54447       1   54306   54336   54384   54450       1
   54303   54327   54363   54438       1   54303   54330   54369   54441       1
   54300   54267   54297   54324       1   54294   54264   54297   54324       1
   54294   54318   54351   54414       1   54294   54318   54354   54420       1
   54294   54321   54357   54426       1   54294   54321   54360   54432       1
   54291   54258   54288   54315       1   54285   54252   54288   54315       1
   54285   54309   54339   54390       1   54285   54309   54342   54396       1
   54285   54312   54345   54402       1   54285   54312   54348   54408       1
   54282   54303   54327   54366       1   54282   54303   54330   54372       1
   54282   54306   54333   54375       1   54282   54306   54336   54381       1
   54279   54240   54246   54282       1   54264   54297   54267   54300       1
   54261   54231   54264   54294       1   54261   54231   54264   54297       1
   54255   54225   54252   54285       1   54255   54225   54252   54288       1
   54252   54288   54258   54291       1   54249   54222   54246   54282       1
   54243   54219   54240   54246       1   54243   54219   54240   54279       1
   54240   54246   54222   54249       1   54234   54213   54231   54261       1
   54234   54228   54258   54291       1   54234   54267   54297   54324       1
   54231   54264   54297   54324       1   54228   54210   54225   54255       1
   54228   54234   54267   54300       1   54228   54258   54288   54315       1
   54225   54252   54288   54315       1   54222   54246   54240   54279       1
   54213   54234   54267   54300       1   54210   54228   54258   54291       1
   54207   54204   54219   54243       1   54204   54207   54222   54249       1
   54204   54219   54240   54279       1   54201   54180   54195   54216       1
   54198   54174   54195   54216       1   54195   54216   54237   54270       2
   54195   54216   54237   54273       2   54195   54216   54237   54276       2
   54192   54168   54186   54204       1   54189   54207   54222   54249       1
   54189   54210   54225   54255       1   54189   54213   54231   54261       1
   54186   54204   54219   54243       1   54183   54159   54180   54195       1
   54183   54159   54180   54201       1   54180   54195   54174   54198       1
   54177   54156   54174   54195       1   54177   54156   54174   54198       1
   54174   54195   54180   54201       1   54171   54153   54168   54186       1
   54171   54153   54168   54192       1   54165   54150   54162   54186       1
   54165   54150   54162   54189       1   54162   54186   54168   54192       1
   54159   54147   54156   54177       1   54156   54147   54159   54183       1
   54153   54144   54150   54165       1   54150   54144   54153   54171       1
   54147   54156   54174   54198       1   54147   54159   54180   54201       1
   54144   54153   54168   54192       1   54141   54144   54150   54165       1
   54141   54144   54153   54171       1   54141   54147   54156   54177       1
   54141   54147   54159   54183       1   54138   54126   54132   54141       1
   54135   54120   54132   54141       1   54129   54108   54126   54132       1
   54129   54108   54126   54138       1   54126   54132   54120   54135       1
   54123   54105   54120   54132       1   54123   54105   54120   54135       1
   54120   54132   54126   54138       1   54108   54099   54105   54123       1
   54105   54099   54108   54129       1   54099   54096   54102   54111       2
   54099   54096   54102   54114       2   54099   54096   54102   54117       2
   54099   54105   54120   54135       1   54099   54108   54126   54138       1
   54096   54099   54105   54123       1   54096   54099   54108   54129       1
   54969   54912   54963   54987       1   54966   54906   54963   54987       1
   54963   54987   55005   55053       2   54963   54987   55005   55056       2
   54963   54987   55005   55059       2   54960   54900   54954   54984       1
   54957   54894   54954   54984       1   54954   54984   55002   55044       2
   54954   54984   55002   55047       2   54954   54984   55002   55050       2
   54951   54888   54945   54981       1   54948   54882   54945   54981       1
   54945   54981   54999   55035       2   54945   54981   54999   55038       2
   54945   54981   54999   55041       2   54942   54876   54939   54978       1
   54939   54978   54996   55026       2   54939   54978   54996   55029       2
   54939   54978   54996   55032       2   54936   54870   54939   54978       1
   54933   54867   54927   54975       1   54930   54861   54927   54975       1
   54927   54975   54993   55017       2   54927   54975   54993   55020       2
   54927   54975   54993   55023       2   54924   54852   54918   54972       1
   54921   54846   54918   54972       1   54918   54972   54990   55008       2
   54918   54972   54990   55011       2   54918   54972   54990   55014       2
   54915   54843   54912   54963       1   54915   54843   54912   54969       1
   54912   54963   54906   54966       1   54909   54840   54906   54963       1
   54909   54840   54906   54966       1   54906   54963   54912   54969       1
   54903   54837   54900   54954       1   54903   54837   54900   54960       1
   54900   54954   54894   54957       1   54897   54834   54894   54954       1
   54897   54834   54894   54957       1   54894   54954   54900   54960       1
   54891   54831   54888   54945       1   54891   54831   54888   54951       1
   54888   54945   54882   54948       1   54885   54828   54882   54945       1
   54885   54828   54882   54948       1   54882   54945   54888   54951       1
   54879   54825   54876   54939       1   54879   54825   54876   54942       1
   54876   54939   54870   54936       1   54873   54822   54870   54936       1
   54873   54822   54870   54939       1   54870   54939   54876   54942       1
   54867   54927   54861   54930       1   54864   54819   54867   54927       1
   54864   54819   54867   54933       1   54861   54927   54867   54933       1
   54858   54816   54861   54927       1   54858   54816   54861   54930       1
   54855   54813   54852   54918       1   54855   54813   54852   54924       1
   54852   54918   54846   54921       1   54849   54810   54846   54918       1
   54849   54810   54846   54921       1   54846   54918   54852   54924       1
   54843   54804   54840   54909       1   54840   54804   54843   54915       1
   54837   54801   54834   54897       1   54834   54801   54837   54903       1
   54831   54795   54828   54885       1   54828   54795   54831   54891       1
   54825   54792   54822   54873       1   54822   54792   54825   54879       1
   54819   54789   54816   54858       1   54816   54789   54819   54864       1
   54813   54786   54810   54849       1   54810   54786   54813   54855       1
   54804   54840   54906   54966       1   54804   54843   54912   54969       1
   54801   54834   54894   54957       1   54801   54837   54900   54960       1
   54795   54828   54882   54948       1   54795   54831   54888   54951       1
   54792   54822   54870   54936       1   54792   54825   54876   54942       1
   54789   54816   54861   54930       1   54789   54819   54867   54933       1
   54786   54810   54846   54921       1   54786   54813   54852   54924       1
   54783   54750   54780   54807       1   54777   54747   54780   54807       1
   54777   54801   54834   54897       1   54777   54801   54837   54903       1
   54777   54804   54840   54909       1   54777   54804   54843   54915       1
   54774   54741   54771   54798       1   54768   54735   54771   54798       1
   54768   54792   54822   54873       1   54768   54792   54825   54879       1
   54768   54795   54828   54885       1   54768   54795   54831   54891       1
   54765   54786   54810   54849       1   54765   54786   54813   54855       1
   54765   54789   54816   54858       1   54765   54789   54819   54864       1
   54762   54723   54729   54765       1   54747   54780   54750   54783       1
   54744   54714   54747   54777       1   54744   54714   54747   54780       1
   54738   54708   54735   54768       1   54738   54708   54735   54771       1
   54735   54771   54741   54774       1   54732   54705   54729   54765       1
   54726   54702   54723   54729       1   54726   54702   54723   54762       1
   54723   54729   54705   54732       1   54717   54696   54714   54744       1
   54717   54711   54741   54774       1   54717   54750   54780   54807       1
   54714   54747   54780   54807       1   54711   54693   54708   54738       1
   54711   54717   54750   54783       1   54711   54741   54771   54798       1
   54708   54735   54771   54798       1   54705   54729   54723   54762       1
   54696   54717   54750   54783       1   54693   54711   54741   54774       1
   54690   54687   54702   54726       1   54687   54690   54705   54732       1
   54687   54702   54723   54762       1   54684   54663   54678   54699       1
   54681   54657   54678   54699       1   54678   54699   54720   54753       2
   54678   54699   54720   54756       2   54678   54699   54720   54759       2
   54675   54651   54669   54687       1   54672   54690   54705   54732       1
   54672   54693   54708   54738       1   54672   54696   54714   54744       1
   54669   54687   54702   54726       1   54666   54642   54663   54678       1
   54666   54642   54663   54684       1   54663   54678   54657   54681       1
   54660   54639   54657   54678       1   54660   54639   54657   54681       1
   54657   54678   54663   54684       1   54654   54636   54651   54669       1
   54654   54636   54651   54675       1   54648   54633   54645   54669       1
   54648   54633   54645   54672       1   54645   54669   54651   54675       1
   54642   54630   54639   54660       1   54639   54630   54642   54666       1
   54636   54627   54633   54648       1   54633   54627   54636   54654       1
   54630   54639   54657   54681       1   54630   54642   54663   54684       1
   54627   54636   54651   54675       1   54624   54627   54633   54648       1
   54624   54627   54636   54654       1   54624   54630   54639   54660       1
   54624   54630   54642   54666       1   54621   54609   54615   54624       1
   54618   54603   54615   54624       1   54612   54591   54609   54615       1
   54612   54591   54609   54621       1   54609   54615   54603   54618       1
   54606   54588   54603   54615       1   54606   54588   54603   54618       1
   54603   54615   54609   54621       1   54591   54582   54588   54606       1
   54588   54582   54591   54612       1   54582   54579   54585   54594       2
   54582   54579   54585   54597       2   54582   54579   54585   54600       2
   54582   54588   54603   54618       1   54582   54591   54609   54621       1
   54579   54582   54588   54606       1   54579   54582   54591   54612       1
   55452   55395   55446   55470       1   55449   55389   55446   55470       1
   55446   55470   55488   55536       2   55446   55470   55488   55539       2
   55446   55470   55488   55542       2   55443   55383   55437   55467       1
   55440   55377   55437   55467       1   55437   55467   55485   55527       2
   55437   55467   55485   55530       2   55437   55467   55485   55533       2
   55434   55371   55428   55464       1   55431   55365   55428   55464       1
   55428   55464   55482   55518       2   55428   55464   55482   55521       2
   55428   55464   55482   55524       2   55425   55359   55422   55461       1
   55422   55461   55479   55509       2   55422   55461   55479   55512       2
   55422   55461   55479   55515       2   55419   55353   55422   55461       1
   55416   55350   55410   55458       1   55413   55344   55410   55458       1
   55410   55458   55476   55500       2   55410   55458   55476   55503       2
   55410   55458   55476   55506       2   55407   55335   55401   55455       1
   55404   55329   55401   55455       1   55401   55455   55473   55491       2
   55401   55455   55473   55494       2   55401   55455   55473   55497       2
   55398   55326   55395   55446       1   55398   55326   55395   55452       1
   55395   55446   55389   55449       1   55392   55323   55389   55446       1
   55392   55323   55389   55449       1   55389   55446   55395   55452       1
   55386   55320   55383   55437       1   55386   55320   55383   55443       1
   55383   55437   55377   55440       1   55380   55317   55377   55437       1
   55380   55317   55377   55440       1   55377   55437   55383   55443       1
   55374   55314   55371   55428       1   55374   55314   55371   55434       1
   55371   55428   55365   55431       1   55368   55311   55365   55428       1
   55368   55311   55365   55431       1   55365   55428   55371   55434       1
   55362   55308   55359   55422       1   55362   55308   55359   55425       1
   55359   55422   55353   55419       1   55356   55305   55353   55419       1
   55356   55305   55353   55422       1   55353   55422   55359   55425       1
   55350   55410   55344   55413       1   55347   55302   55350   55410       1
   55347   55302   55350   55416       1   55344   55410   55350   55416       1
   55341   55299   55344   55410       1   55341   55299   55344   55413       1
   55338   55296   55335   55401       1   55338   55296   55335   55407       1
   55335   55401   55329   55404       1   55332   55293   55329   55401       1
   55332   55293   55329   55404       1   55329   55401   55335   55407       1
   55326   55287   55323   55392       1   55323   55287   55326   55398       1
   55320   55284   55317   55380       1   55317   55284   55320   55386       1
   55314   55278   55311   55368       1   55311   55278   55314   55374       1
   55308   55275   55305   55356       1   55305   55275   55308   55362       1
   55302   55272   55299   55341       1   55299   55272   55302   55347       1
   55296   55269   55293   55332       1   55293   55269   55296   55338       1
   55287   55323   55389   55449       1   55287   55326   55395   55452       1
   55284   55317   55377   55440       1   55284   55320   55383   55443       1
   55278   55311   55365   55431       1   55278   55314   55371   55434       1
   55275   55305   55353   55419       1   55275   55308   55359   55425       1
   55272   55299   55344   55413       1   55272   55302   55350   55416       1
   55269   55293   55329   55404       1   55269   55296   55335   55407       1
   55266   55233   55263   55290       1   55260   55230   55263   55290       1
   55260   55284   55317   55380       1   55260   55284   55320   55386       1
   55260   55287   55323   55392       1   55260   55287   55326   55398       1
   55257   55224   55254   55281       1   55251   55218   55254   55281       1
   55251   55275   55305   55356       1   55251   55275   55308   55362       1
   55251   55278   55311   55368       1   55251   55278   55314   55374       1
   55248   55269   55293   55332       1   55248   55269   55296   55338       1
   55248   55272   55299   55341       1   55248   55272   55302   55347       1
   55245   55206   55212   55248       1   55230   55263   55233   55266       1
   55227   55197   55230   55260       1   55227   55197   55230   55263       1
   55221   55191   55218   55251       1   55221   55191   55218   55254       1
   55218   55254   55224   55257       1   55215   55188   55212   55248       1
   55209   55185   55206   55212       1   55209   55185   55206   55245       1
   55206   55212   55188   55215       1   55200   55179   55197   55227       1
   55200   55194   55224   55257       1   55200   55233   55263   55290       1
   55197   55230   55263   55290       1   55194   55176   55191   55221       1
   55194   55200   55233   55266       1   55194   55224   55254   55281       1
   55191   55218   55254   55281       1   55188   55212   55206   55245       1
   55179   55200   55233   55266       1   55176   55194   55224   55257       1
   55173   55170   55185   55209       1   55170   55173   55188   55215       1
   55170   55185   55206   55245       1   55167   55146   55161   55182       1
   55164   55140   55161   55182       1   55161   55182   55203   55236       2
   55161   55182   55203   55239       2   55161   55182   55203   55242       2
   55158   55134   55152   55170       1   55155   55173   55188   55215       1
   55155   55176   55191   55221       1   55155   55179   55197   55227       1
   55152   55170   55185   55209       1   55149   55125   55146   55161       1
   55149   55125   55146   55167       1   55146   55161   55140   55164       1
   55143   55122   55140   55161       1   55143   55122   55140   55164       1
   55140   55161   55146   55167       1   55137   55119   55134   55152       1
   55137   55119   55134   55158       1   55131   55116   55128   55152       1
   55131   55116   55128   55155       1   55128   55152   55134   55158       1
   55125   55113   55122   55143       1   55122   55113   55125   55149       1
   55119   55110   55116   55131       1   55116   55110   55119   55137       1
   55113   55122   55140   55164       1   55113   55125   55146   55167       1
   55110   55119   55134   55158       1   55107   55110   55116   55131       1
   55107   55110   55119   55137       1   55107   55113   55122   55143       1
   55107   55113   55125   55149       1   55104   55092   55098   55107       1
   55101   55086   55098   55107       1   55095   55074   55092   55098       1
   55095   55074   55092   55104       1   55092   55098   55086   55101       1
   55089   55071   55086   55098       1   55089   55071   55086   55101       1
   55086   55098   55092   55104       1   55074   55065   55071   55089       1
   55071   55065   55074   55095       1   55065   55062   55068   55077       2
   55065   55062   55068   55080       2   55065   55062   55068   55083       2
   55065   55071   55086   55101       1   55065   55074   55092   55104       1
   55062   55065   55071   55089       1   55062   55065   55074   55095       1
   55935   55878   55929   55953       1   55932   55872   55929   55953       1
   55929   55953   55971   56019       2   55929   55953   55971   56022       2
   55929   55953   55971   56025       2   55926   55866   55920   55950       1
   55923   55860   55920   55950       1   55920   55950   55968   56010       2
   55920   55950   55968   56013       2   55920   55950   55968   56016       2
   55917   55854   55911   55947       1   55914   55848   55911   55947       1
   55911   55947   55965   56001       2   55911   55947   55965   56004       2
   55911   55947   55965   56007       2   55908   55842   55905   55944       1
   55905   55944   55962   55992       2   55905   55944   55962   55995       2
   55905   55944   55962   55998       2   55902   55836   55905   55944       1
   55899   55833   55893   55941       1   55896   55827   55893   55941       1
   55893   55941   55959   55983       2   55893   55941   55959   55986       2
   55893   55941   55959   55989       2   55890   55818   55884   55938       1
   55887   55812   55884   55938       1   55884   55938   55956   55974       2
   55884   55938   55956   55977       2   55884   55938   55956   55980       2
   55881   55809   55878   55929       1   55881   55809   55878   55935       1
   55878   55929   55872   55932       1   55875   55806   55872   55929       1
   55875   55806   55872   55932       1   55872   55929   55878   55935       1
   55869   55803   55866   55920       1   55869   55803   55866   55926       1
   55866   55920   55860   55923       1   55863   55800   55860   55920       1
   55863   55800   55860   55923       1   55860   55920   55866   55926       1
   55857   55797   55854   55911       1   55857   55797   55854   55917       1
   55854   55911   55848   55914       1   55851   55794   55848   55911       1
   55851   55794   55848   55914       1   55848   55911   55854   55917       1
   55845   55791   55842   55905       1   55845   55791   55842   55908       1
   55842   55905   55836   55902       1   55839   55788   55836   55902       1
   55839   55788   55836   55905       1   55836   55905   55842   55908       1
   55833   55893   55827   55896       1   55830   55785   55833   55893       1
   55830   55785   55833   55899       1   55827   55893   55833   55899       1
   55824   55782   55827   55893       1   55824   55782   55827   55896       1
   55821   55779   55818   55884       1   55821   55779   55818   55890       1
   55818   55884   55812   55887       1   55815   55776   55812   55884       1
   55815   55776   55812   55887       1   55812   55884   55818   55890       1
   55809   55770   55806   55875       1   55806   55770   55809   55881       1
   55803   55767   55800   55863       1   55800   55767   55803   55869       1
   55797   55761   55794   55851       1   55794   55761   55797   55857       1
   55791   55758   55788   55839       1   55788   55758   55791   55845       1
   55785   55755   55782   55824       1   55782   55755   55785   55830       1
   55779   55752   55776   55815       1   55776   55752   55779   55821       1
   55770   55806   55872   55932       1   55770   55809   55878   55935       1
   55767   55800   55860   55923       1   55767   55803   55866   55926       1
   55761   55794   55848   55914       1   55761   55797   55854   55917       1
   55758   55788   55836   55902       1   55758   55791   55842   55908       1
   55755   55782   55827   55896       1   55755   55785   55833   55899       1
   55752   55776   55812   55887       1   55752   55779   55818   55890       1
   55749   55716   55746   55773       1   55743   55713   55746   55773       1
   55743   55767   55800   55863       1   55743   55767   55803   55869       1
   55743   55770   55806   55875       1   55743   55770   55809   55881       1
   55740   55707   55737   55764       1   55734   55701   55737   55764       1
   55734   55758   55788   55839       1   55734   55758   55791   55845       1
   55734   55761   55794   55851       1   55734   55761   55797   55857       1
   55731   55752   55776   55815       1   55731   55752   55779   55821       1
   55731   55755   55782   55824       1   55731   55755   55785   55830       1
   55728   55689   55695   55731       1   55713   55746   55716   55749       1
   55710   55680   55713   55743       1   55710   55680   55713   55746       1
   55704   55674   55701   55734       1   55704   55674   55701   55737       1
   55701   55737   55707   55740       1   55698   55671   55695   55731       1
   55692   55668   55689   55695       1   55692   55668   55689   55728       1
   55689   55695   55671   55698       1   55683   55662   55680   55710       1
   55683   55677   55707   55740       1   55683   55716   55746   55773       1
   55680   55713   55746   55773       1   55677   55659   55674   55704       1
   55677   55683   55716   55749       1   55677   55707   55737   55764       1
   55674   55701   55737   55764       1   55671   55695   55689   55728       1
   55662   55683   55716   55749       1   55659   55677   55707   55740       1
   55656   55653   55668   55692       1   55653   55656   55671   55698       1
   55653   55668   55689   55728       1   55650   55629   55644   55665       1
   55647   55623   55644   55665       1   55644   55665   55686   55719       2
   55644   55665   55686   55722       2   55644   55665   55686   55725       2
   55641   55617   55635   55653       1   55638   55656   55671   55698       1
   55638   55659   55674   55704       1   55638   55662   55680   55710       1
   55635   55653   55668   55692       1   55632   55608   55629   55644       1
   55632   55608   55629   55650       1   55629   55644   55623   55647       1
   55626   55605   55623   55644       1   55626   55605   55623   55647       1
   55623   55644   55629   55650       1   55620   55602   55617   55635       1
   55620   55602   55617   55641       1   55614   55599   55611   55635       1
   55614   55599   55611   55638       1   55611   55635   55617   55641       1
   55608   55596   55605   55626       1   55605   55596   55608   55632       1
   55602   55593   55599   55614       1   55599   55593   55602   55620       1
   55596   55605   55623   55647       1   55596   55608   55629   55650       1
   55593   55602   55617   55641       1   55590   55593   55599   55614       1
   55590   55593   55602   55620       1   55590   55596   55605   55626       1
   55590   55596   55608   55632       1   55587   55575   55581   55590       1
   55584   55569   55581   55590       1   55578   55557   55575   55581       1
   55578   55557   55575   55587       1   55575   55581   55569   55584       1
   55572   55554   55569   55581       1   55572   55554   55569   55584       1
   55569   55581   55575   55587       1   55557   55548   55554   55572       1
   55554   55548   55557   55578       1   55548   55545   55551   55560       2
   55548   55545   55551   55563       2   55548   55545   55551   55566       2
   55548   55554   55569   55584       1   55548   55557   55575   55587       1
   55545   55548   55554   55572       1   55545   55548   55557   55578       1
   56418   56361   56412   56436       1   56415   56355   56412   56436       1
   56412   56436   56454   56502       2   56412   56436   56454   56505       2
   56412   56436   56454   56508       2   56409   56349   56403   56433       1
   56406   56343   56403   56433       1   56403   56433   56451   56493       2
   56403   56433   56451   56496       2   56403   56433   56451   56499       2
   56400   56337   56394   56430       1   56397   56331   56394   56430       1
   56394   56430   56448   56484       2   56394   56430   56448   56487       2
   56394   56430   56448   56490       2   56391   56325   56388   56427       1
   56388   56427   56445   56475       2   56388   56427   56445   56478       2
   56388   56427   56445   56481       2   56385   56319   56388   56427       1
   56382   56316   56376   56424       1   56379   56310   56376   56424       1
   56376   56424   56442   56466       2   56376   56424   56442   56469       2
   56376   56424   56442   56472       2   56373   56301   56367   56421       1
   56370   56295   56367   56421       1   56367   56421   56439   56457       2
   56367   56421   56439   56460       2   56367   56421   56439   56463       2
   56364   56292   56361   56412       1   56364   56292   56361   56418       1
   56361   56412   56355   56415       1   56358   56289   56355   56412       1
   56358   56289   56355   56415       1   56355   56412   56361   56418       1
   56352   56286   56349   56403       1   56352   56286   56349   56409       1
   56349   56403   56343   56406       1   56346   56283   56343   56403       1
   56346   56283   56343   56406       1   56343   56403   56349   56409       1
   56340   56280   56337   56394       1   56340   56280   56337   56400       1
   56337   56394   56331   56397       1   56334   56277   56331   56394       1
   56334   56277   56331   56397       1   56331   56394   56337   56400       1
   56328   56274   56325   56388       1   56328   56274   56325   56391       1
   56325   56388   56319   56385       1   56322   56271   56319   56385       1
   56322   56271   56319   56388       1   56319   56388   56325   56391       1
   56316   56376   56310   56379       1   56313   56268   56316   56376       1
   56313   56268   56316   56382       1   56310   56376   56316   56382       1
   56307   56265   56310   56376       1   56307   56265   56310   56379       1
   56304   56262   56301   56367       1   56304   56262   56301   56373       1
   56301   56367   56295   56370       1   56298   56259   56295   56367       1
   56298   56259   56295   56370       1   56295   56367   56301   56373       1
   56292   56253   56289   56358       1   56289   56253   56292   56364       1
   56286   56250   56283   56346       1   56283   56250   56286   56352       1
   56280   56244   56277   56334       1   56277   56244   56280   56340       1
   56274   56241   56271   56322       1   56271   56241   56274   56328       1
   56268   56238   56265   56307       1   56265   56238   56268   56313       1
   56262   56235   56259   56298       1   56259   56235   56262   56304       1
   56253   56289   56355   56415       1   56253   56292   56361   56418       1
   56250   56283   56343   56406       1   56250   56286   56349   56409       1
   56244   56277   56331   56397       1   56244   56280   56337   56400       1
   56241   56271   56319   56385       1   56241   56274   56325   56391       1
   56238   56265   56310   56379       1   56238   56268   56316   56382       1
   56235   56259   56295   56370       1   56235   56262   56301   56373       1
   56232   56199   56229   56256       1   56226   56196   56229   56256       1
   56226   56250   56283   56346       1   56226   56250   56286   56352       1
   56226   56253   56289   56358       1   56226   56253   56292   56364       1
   56223   56190   56220   56247       1   56217   56184   56220   56247       1
   56217   56241   56271   56322       1   56217   56241   56274   56328       1
   56217   56244   56277   56334       1   56217   56244   56280   56340       1
   56214   56235   56259   56298       1   56214   56235   56262   56304       1
   56214   56238   56265   56307       1   56214   56238   56268   56313       1
   56211   56172   56178   56214       1   56196   56229   56199   56232       1
   56193   56163   56196   56226       1   56193   56163   56196   56229       1
   56187   56157   56184   56217       1   56187   56157   56184   56220       1
   56184   56220   56190   56223       1   56181   56154   56178   56214       1
   56175   56151   56172   56178       1   56175   56151   56172   56211       1
   56172   56178   56154   56181       1   56166   56145   56163   56193       1
   56166   56160   56190   56223       1   56166   56199   56229   56256       1
   56163   56196   56229   56256       1   56160   56142   56157   56187       1
   56160   56166   56199   56232       1   56160   56190   56220   56247       1
   56157   56184   56220   56247       1   56154   56178   56172   56211       1
   56145   56166   56199   56232       1   56142   56160   56190   56223       1
   56139   56136   56151   56175       1   56136   56139   56154   56181       1
   56136   56151   56172   56211       1   56133   56112   56127   56148       1
   56130   56106   56127   56148       1   56127   56148   56169   56202       2
   56127   56148   56169   56205       2   56127   56148   56169   56208       2
   56124   56100   56118   56136       1   56121   56139   56154   56181       1
   56121   56142   56157   56187       1   56121   56145   56163   56193       1
   56118   56136   56151   56175       1   56115   56091   56112   56127       1
   56115   56091   56112   56133       1   56112   56127   56106   56130       1
   56109   56088   56106   56127       1   56109   56088   56106   56130       1
   56106   56127   56112   56133       1   56103   56085   56100   56118       1
   56103   56085   56100   56124       1   56097   56082   56094   56118       1
   56097   56082   56094   56121       1   56094   56118   56100   56124       1
   56091   56079   56088   56109       1   56088   56079   56091   56115       1
   56085   56076   56082   56097       1   56082   56076   56085   56103       1
   56079   56088   56106   56130       1   56079   56091   56112   56133       1
   56076   56085   56100   56124       1   56073   56076   56082   56097       1
   56073   56076   56085   56103       1   56073   56079   56088   56109       1
   56073   56079   56091   56115       1   56070   56058   56064   56073       1
   56067   56052   56064   56073       1   56061   56040   56058   56064       1
   56061   56040   56058   56070       1   56058   56064   56052   56067       1
   56055   56037   56052   56064       1   56055   56037   56052   56067       1
   56052   56064   56058   56070       1   56040   56031   56037   56055       1
   56037   56031   56040   56061       1   56031   56028   56034   56043       2
   56031   56028   56034   56046       2   56031   56028   56034   56049       2
   56031   56037   56052   56067       1   56031   56040   56058   56070       1
   56028   56031   56037   56055       1   56028   56031   56040   56061       1
   56901   56844   56895   56919       1   56898   56838   56895   56919       1
   56895   56919   56937   56985       2   56895   56919   56937   56988       2
   56895   56919   56937   56991       2   56892   56832   56886   56916       1
   56889   56826   56886   56916       1   56886   56916   56934   56976       2
   56886   56916   56934   56979       2   56886   56916   56934   56982       2
   56883   56820   56877   56913       1   56880   56814   56877   56913       1
   56877   56913   56931   56967       2   56877   56913   56931   56970       2
   56877   56913   56931   56973       2   56874   56808   56871   56910       1
   56871   56910   56928   56958       2   56871   56910   56928   56961       2
   56871   56910   56928   56964       2   56868   56802   56871   56910       1
   56865   56799   56859   56907       1   56862   56793   56859   56907       1
   56859   56907   56925   56949       2   56859   56907   56925   56952       2
   56859   56907   56925   56955       2   56856   56784   56850   56904       1
   56853   56778   56850   56904       1   56850   56904   56922   56940       2
   56850   56904   56922   56943       2   56850   56904   56922   56946       2
   56847   56775   56844   56895       1   56847   56775   56844   56901       1
   56844   56895   56838   56898       1   56841   56772   56838   56895       1
   56841   56772   56838   56898       1   56838   56895   56844   56901       1
   56835   56769   56832   56886       1   56835   56769   56832   56892       1
   56832   56886   56826   56889       1   56829   56766   56826   56886       1
   56829   56766   56826   56889       1   56826   56886   56832   56892       1
   56823   56763   56820   56877       1   56823   56763   56820   56883       1
   56820   56877   56814   56880       1   56817   56760   56814   56877       1
   56817   56760   56814   56880       1   56814   56877   56820   56883       1
   56811   56757   56808   56871       1   56811   56757   56808   56874       1
   56808   56871   56802   56868       1   56805   56754   56802   56868       1
   56805   56754   56802   56871       1   56802   56871   56808   56874       1
   56799   56859   56793   56862       1   56796   56751   56799   56859       1
   56796   56751   56799   56865       1   56793   56859   56799   56865       1
   56790   56748   56793   56859       1   56790   56748   56793   56862       1
   56787   56745   56784   56850       1   56787   56745   56784   56856       1
   56784   56850   56778   56853       1   56781   56742   56778   56850       1
   56781   56742   56778   56853       1   56778   56850   56784   56856       1
   56775   56736   56772   56841       1   56772   56736   56775   56847       1
   56769   56733   56766   56829       1   56766   56733   56769   56835       1
   56763   56727   56760   56817       1   56760   56727   56763   56823       1
   56757   56724   56754   56805       1   56754   56724   56757   56811       1
   56751   56721   56748   56790       1   56748   56721   56751   56796       1
   56745   56718   56742   56781       1   56742   56718   56745   56787       1
   56736   56772   56838   56898       1   56736   56775   56844   56901       1
   56733   56766   56826   56889       1   56733   56769   56832   56892       1
   56727   56760   56814   56880       1   56727   56763   56820   56883       1
   56724   56754   56802   56868       1   56724   56757   56808   56874       1
   56721   56748   56793   56862       1   56721   56751   56799   56865       1
   56718   56742   56778   56853       1   56718   56745   56784   56856       1
   56715   56682   56712   56739       1   56709   56679   56712   56739       1
   56709   56733   56766   56829       1   56709   56733   56769   56835       1
   56709   56736   56772   56841       1   56709   56736   56775   56847       1
   56706   56673   56703   56730       1   56700   56667   56703   56730       1
   56700   56724   56754   56805       1   56700   56724   56757   56811       1
   56700   56727   56760   56817       1   56700   56727   56763   56823       1
   56697   56718   56742   56781       1   56697   56718   56745   56787       1
   56697   56721   56748   56790       1   56697   56721   56751   56796       1
   56694   56655   56661   56697       1   56679   56712   56682   56715       1
   56676   56646   56679   56709       1   56676   56646   56679   56712       1
   56670   56640   56667   56700       1   56670   56640   56667   56703       1
   56667   56703   56673   56706       1   56664   56637   56661   56697       1
   56658   56634   56655   56661       1   56658   56634   56655   56694       1
   56655   56661   56637   56664       1   56649   56628   56646   56676       1
   56649   56643   56673   56706       1   56649   56682   56712   56739       1
   56646   56679   56712   56739       1   56643   56625   56640   56670       1
   56643   56649   56682   56715       1   56643   56673   56703   56730       1
   56640   56667   56703   56730       1   56637   56661   56655   56694       1
   56628   56649   56682   56715       1   56625   56643   56673   56706       1
   56622   56619   56634   56658       1   56619   56622   56637   56664       1
   56619   56634   56655   56694       1   56616   56595   56610   56631       1
   56613   56589   56610   56631       1   56610   56631   56652   56685       2
   56610   56631   56652   56688       2   56610   56631   56652   56691       2
   56607   56583   56601   56619       1   56604   56622   56637   56664       1
   56604   56625   56640   56670       1   56604   56628   56646   56676       1
   56601   56619   56634   56658       1   56598   56574   56595   56610       1
   56598   56574   56595   56616       1   56595   56610   56589   56613       1
   56592   56571   56589   56610       1   56592   56571   56589   56613       1
   56589   56610   56595   56616       1   56586   56568   56583   56601       1
   56586   56568   56583   56607       1   56580   56565   56577   56601       1
   56580   56565   56577   56604       1   56577   56601   56583   56607       1
   56574   56562   56571   56592       1   56571   56562   56574   56598       1
   56568   56559   56565   56580       1   56565   56559   56568   56586       1
   56562   56571   56589   56613       1   56562   56574   56595   56616       1
   56559   56568   56583   56607       1   56556   56559   56565   56580       1
   56556   56559   56568   56586       1   56556   56562   56571   56592       1
   56556   56562   56574   56598       1   56553   56541   56547   56556       1
   56550   56535   56547   56556       1   56544   56523   56541   56547       1
   56544   56523   56541   56553       1   56541   56547   56535   56550       1
   56538   56520   56535   56547       1   56538   56520   56535   56550       1
   56535   56547   56541   56553       1   56523   56514   56520   56538       1
   56520   56514   56523   56544       1   56514   56511   56517   56526       2
   56514   56511   56517   56529       2   56514   56511   56517   56532       2
   56514   56520   56535   56550       1   56514   56523   56541   56553       1
   56511   56514   56520   56538       1   56511   56514   56523   56544       1
   57384   57327   57378   57402       1   57381   57321   57378   57402       1
   57378   57402   57420   57468       2   57378   57402   57420   57471       2
   57378   57402   57420   57474       2   57375   57315   57369   57399       1
   57372   57309   57369   57399       1   57369   57399   57417   57459       2
   57369   57399   57417   57462       2   57369   57399   57417   57465       2
   57366   57303   57360   57396       1   57363   57297   57360   57396       1
   57360   57396   57414   57450       2   57360   57396   57414   57453       2
   57360   57396   57414   57456       2   57357   57291   57354   57393       1
   57354   57393   57411   57441       2   57354   57393   57411   57444       2
   57354   57393   57411   57447       2   57351   57285   57354   57393       1
   57348   57282   57342   57390       1   57345   57276   57342   57390       1
   57342   57390   57408   57432       2   57342   57390   57408   57435       2
   57342   57390   57408   57438       2   57339   57267   57333   57387       1
   57336   57261   57333   57387       1   57333   57387   57405   57423       2
   57333   57387   57405   57426       2   57333   57387   57405   57429       2
   57330   57258   57327   57378       1   57330   57258   57327   57384       1
   57327   57378   57321   57381       1   57324   57255   57321   57378       1
   57324   57255   57321   57381       1   57321   57378   57327   57384       1
   57318   57252   57315   57369       1   57318   57252   57315   57375       1
   57315   57369   57309   57372       1   57312   57249   57309   57369       1
   57312   57249   57309   57372       1   57309   57369   57315   57375       1
   57306   57246   57303   57360       1   57306   57246   57303   57366       1
   57303   57360   57297   57363       1   57300   57243   57297   57360       1
   57300   57243   57297   57363       1   57297   57360   57303   57366       1
   57294   57240   57291   57354       1   57294   57240   57291   57357       1
   57291   57354   57285   57351       1   57288   57237   57285   57351       1
   57288   57237   57285   57354       1   57285   57354   57291   57357       1
   57282   57342   57276   57345       1   57279   57234   57282   57342       1
   57279   57234   57282   57348       1   57276   57342   57282   57348       1
   57273   57231   57276   57342       1   57273   57231   57276   57345       1
   57270   57228   57267   57333       1   57270   57228   57267   57339       1
   57267   57333   57261   57336       1   57264   57225   57261   57333       1
   57264   57225   57261   57336       1   57261   57333   57267   57339       1
   57258   57219   57255   57324       1   57255   57219   57258   57330       1
   57252   57216   57249   57312       1   57249   57216   57252   57318       1
   57246   57210   57243   57300       1   57243   57210   57246   57306       1
   57240   57207   57237   57288       1   57237   57207   57240   57294       1
   57234   57204   57231   57273       1   57231   57204   57234   57279       1
   57228   57201   57225   57264       1   57225   57201   57228   57270       1
   57219   57255   57321   57381       1   57219   57258   57327   57384       1
   57216   57249   57309   57372       1   57216   57252   57315   57375       1
   57210   57243   57297   57363       1   57210   57246   57303   57366       1
   57207   57237   57285   57351       1   57207   57240   57291   57357       1
   57204   57231   57276   57345       1   57204   57234   57282   57348       1
   57201   57225   57261   57336       1   57201   57228   57267   57339       1
   57198   57165   57195   57222       1   57192   57162   57195   57222       1
   57192   57216   57249   57312       1   57192   57216   57252   57318       1
   57192   57219   57255   57324       1   57192   57219   57258   57330       1
   57189   57156   57186   57213       1   57183   57150   57186   57213       1
   57183   57207   57237   57288       1   57183   57207   57240   57294       1
   57183   57210   57243   57300       1   57183   57210   57246   57306       1
   57180   57201   57225   57264       1   57180   57201   57228   57270       1
   57180   57204   57231   57273       1   57180   57204   57234   57279       1
   57177   57138   57144   57180       1   57162   57195   57165   57198       1
   57159   57129   57162   57192       1   57159   57129   57162   57195       1
   57153   57123   57150   57183       1   57153   57123   57150   57186       1
   57150   57186   57156   57189       1   57147   57120   57144   57180       1
   57141   57117   57138   57144       1   57141   57117   57138   57177       1
   57138   57144   57120   57147       1   57132   57111   57129   57159       1
   57132   57126   57156   57189       1   57132   57165   57195   57222       1
   57129   57162   57195   57222       1   57126   57108   57123   57153       1
   57126   57132   57165   57198       1   57126   57156   57186   57213       1
   57123   57150   57186   57213       1   57120   57144   57138   57177       1
   57111   57132   57165   57198       1   57108   57126   57156   57189       1
   57105   57102   57117   57141       1   57102   57105   57120   57147       1
   57102   57117   57138   57177       1   57099   57078   57093   57114       1
   57096   57072   57093   57114       1   57093   57114   57135   57168       2
   57093   57114   57135   57171       2   57093   57114   57135   57174       2
   57090   57066   57084   57102       1   57087   57105   57120   57147       1
   57087   57108   57123   57153       1   57087   57111   57129   57159       1
   57084   57102   57117   57141       1   57081   57057   57078   57093       1
   57081   57057   57078   57099       1   57078   57093   57072   57096       1
   57075   57054   57072   57093       1   57075   57054   57072   57096       1
   57072   57093   57078   57099       1   57069   57051   57066   57084       1
   57069   57051   57066   57090       1   57063   57048   57060   57084       1
   57063   57048   57060   57087       1   57060   57084   57066   57090       1
   57057   57045   57054   57075       1   57054   57045   57057   57081       1
   57051   57042   57048   57063       1   57048   57042   57051   57069       1
   57045   57054   57072   57096       1   57045   57057   57078   57099       1
   57042   57051   57066   57090       1   57039   57042   57048   57063       1
   57039   57042   57051   57069       1   57039   57045   57054   57075       1
   57039   57045   57057   57081       1   57036   57024   57030   57039       1
   57033   57018   57030   57039       1   57027   57006   57024   57030       1
   57027   57006   57024   57036       1   57024   57030   57018   57033       1
   57021   57003   57018   57030       1   57021   57003   57018   57033       1
   57018   57030   57024   57036       1   57006   56997   57003   57021       1
   57003   56997   57006   57027       1   56997   56994   57000   57009       2
   56997   56994   57000   57012       2   56997   56994   57000   57015       2
   56997   57003   57018   57033       1   56997   57006   57024   57036       1
   56994   56997   57003   57021       1   56994   56997   57006   57027       1
   57867   57810   57861   57885       1   57864   57804   57861   57885       1
   57861   57885   57903   57951       2   57861   57885   57903   57954       2
   57861   57885   57903   57957       2   57858   57798   57852   57882       1
   57855   57792   57852   57882       1   57852   57882   57900   57942       2
   57852   57882   57900   57945       2   57852   57882   57900   57948       2
   57849   57786   57843   57879       1   57846   57780   57843   57879       1
   57843   57879   57897   57933       2   57843   57879   57897   57936       2
   57843   57879   57897   57939       2   57840   57774   57837   57876       1
   57837   57876   57894   57924       2   57837   57876   57894   57927       2
   57837   57876   57894   57930       2   57834   57768   57837   57876       1
   57831   57765   57825   57873       1   57828   57759   57825   57873       1
   57825   57873   57891   57915       2   57825   57873   57891   57918       2
   57825   57873   57891   57921       2   57822   57750   57816   57870       1
   57819   57744   57816   57870       1   57816   57870   57888   57906       2
   57816   57870   57888   57909       2   57816   57870   57888   57912       2
   57813   57741   57810   57861       1   57813   57741   57810   57867       1
   57810   57861   57804   57864       1   57807   57738   57804   57861       1
   57807   57738   57804   57864       1   57804   57861   57810   57867       1
   57801   57735   57798   57852       1   57801   57735   57798   57858       1
   57798   57852   57792   57855       1   57795   57732   57792   57852       1
   57795   57732   57792   57855       1   57792   57852   57798   57858       1
   57789   57729   57786   57843       1   57789   57729   57786   57849       1
   57786   57843   57780   57846       1   57783   57726   57780   57843       1
   57783   57726   57780   57846       1   57780   57843   57786   57849       1
   57777   57723   57774   57837       1   57777   57723   57774   57840       1
   57774   57837   57768   57834       1   57771   57720   57768   57834       1
   57771   57720   57768   57837       1   57768   57837   57774   57840       1
   57765   57825   57759   57828       1   57762   57717   57765   57825       1
   57762   57717   57765   57831       1   57759   57825   57765   57831       1
   57756   57714   57759   57825       1   57756   57714   57759   57828       1
   57753   57711   57750   57816       1   57753   57711   57750   57822       1
   57750   57816   57744   57819       1   57747   57708   57744   57816       1
   57747   57708   57744   57819       1   57744   57816   57750   57822       1
   57741   57702   57738   57807       1   57738   57702   57741   57813       1
   57735   57699   57732   57795       1   57732   57699   57735   57801       1
   57729   57693   57726   57783       1   57726   57693   57729   57789       1
   57723   57690   57720   57771       1   57720   57690   57723   57777       1
   57717   57687   57714   57756       1   57714   57687   57717   57762       1
   57711   57684   57708   57747       1   57708   57684   57711   57753       1
   57702   57738   57804   57864       1   57702   57741   57810   57867       1
   57699   57732   57792   57855       1   57699   57735   57798   57858       1
   57693   57726   57780   57846       1   57693   57729   57786   57849       1
   57690   57720   57768   57834       1   57690   57723   57774   57840       1
   57687   57714   57759   57828       1   57687   57717   57765   57831       1
   57684   57708   57744   57819       1   57684   57711   57750   57822       1
   57681   57648   57678   57705       1   57675   57645   57678   57705       1
   57675   57699   57732   57795       1   57675   57699   57735   57801       1
   57675   57702   57738   57807       1   57675   57702   57741   57813       1
   57672   57639   57669   57696       1   57666   57633   57669   57696       1
   57666   57690   57720   57771       1   57666   57690   57723   57777       1
   57666   57693   57726   57783       1   57666   57693   57729   57789       1
   57663   57684   57708   57747       1   57663   57684   57711   57753       1
   57663   57687   57714   57756       1   57663   57687   57717   57762       1
   57660   57621   57627   57663       1   57645   57678   57648   57681       1
   57642   57612   57645   57675       1   57642   57612   57645   57678       1
   57636   57606   57633   57666       1   57636   57606   57633   57669       1
   57633   57669   57639   57672       1   57630   57603   57627   57663       1
   57624   57600   57621   57627       1   57624   57600   57621   57660       1
   57621   57627   57603   57630       1   57615   57594   57612   57642       1
   57615   57609   57639   57672       1   57615   57648   57678   57705       1
   57612   57645   57678   57705       1   57609   57591   57606   57636       1
   57609   57615   57648   57681       1   57609   57639   57669   57696       1
   57606   57633   57669   57696       1   57603   57627   57621   57660       1
   57594   57615   57648   57681       1   57591   57609   57639   57672       1
   57588   57585   57600   57624       1   57585   57588   57603   57630       1
   57585   57600   57621   57660       1   57582   57561   57576   57597       1
   57579   57555   57576   57597       1   57576   57597   57618   57651       2
   57576   57597   57618   57654       2   57576   57597   57618   57657       2
   57573   57549   57567   57585       1   57570   57588   57603   57630       1
   57570   57591   57606   57636       1   57570   57594   57612   57642       1
   57567   57585   57600   57624       1   57564   57540   57561   57576       1
   57564   57540   57561   57582       1   57561   57576   57555   57579       1
   57558   57537   57555   57576       1   57558   57537   57555   57579       1
   57555   57576   57561   57582       1   57552   57534   57549   57567       1
   57552   57534   57549   57573       1   57546   57531   57543   57567       1
   57546   57531   57543   57570       1   57543   57567   57549   57573       1
   57540   57528   57537   57558       1   57537   57528   57540   57564       1
   57534   57525   57531   57546       1   57531   57525   57534   57552       1
   57528   57537   57555   57579       1   57528   57540   57561   57582       1
   57525   57534   57549   57573       1   57522   57525   57531   57546       1
   57522   57525   57534   57552       1   57522   57528   57537   57558       1
   57522   57528   57540   57564       1   57519   57507   57513   57522       1
   57516   57501   57513   57522       1   57510   57489   57507   57513       1
   57510   57489   57507   57519       1   57507   57513   57501   57516       1
   57504   57486   57501   57513       1   57504   57486   57501   57516       1
   57501   57513   57507   57519       1   57489   57480   57486   57504       1
   57486   57480   57489   57510       1   57480   57477   57483   57492       2
   57480   57477   57483   57495       2   57480   57477   57483   57498       2
   57480   57486   57501   57516       1   57480   57489   57507   57519       1
   57477   57480   57486   57504       1   57477   57480   57489   57510       1
   58350   58293   58344   58368       1   58347   58287   58344   58368       1
   58344   58368   58386   58434       2   58344   58368   58386   58437       2
   58344   58368   58386   58440       2   58341   58281   58335   58365       1
   58338   58275   58335   58365       1   58335   58365   58383   58425       2
   58335   58365   58383   58428       2   58335   58365   58383   58431       2
   58332   58269   58326   58362       1   58329   58263   58326   58362       1
   58326   58362   58380   58416       2   58326   58362   58380   58419       2
   58326   58362   58380   58422       2   58323   58257   58320   58359       1
   58320   58359   58377   58407       2   58320   58359   58377   58410       2
   58320   58359   58377   58413       2   58317   58251   58320   58359       1
   58314   58248   58308   58356       1   58311   58242   58308   58356       1
   58308   58356   58374   58398       2   58308   58356   58374   58401       2
   58308   58356   58374   58404       2   58305   58233   58299   58353       1
   58302   58227   58299   58353       1   58299   58353   58371   58389       2
   58299   58353   58371   58392       2   58299   58353   58371   58395       2
   58296   58224   58293   58344       1   58296   58224   58293   58350       1
   58293   58344   58287   58347       1   58290   58221   58287   58344       1
   58290   58221   58287   58347       1   58287   58344   58293   58350       1
   58284   58218   58281   58335       1   58284   58218   58281   58341       1
   58281   58335   58275   58338       1   58278   58215   58275   58335       1
   58278   58215   58275   58338       1   58275   58335   58281   58341       1
   58272   58212   58269   58326       1   58272   58212   58269   58332       1
   58269   58326   58263   58329       1   58266   58209   58263   58326       1
   58266   58209   58263   58329       1   58263   58326   58269   58332       1
   58260   58206   58257   58320       1   58260   58206   58257   58323       1
   58257   58320   58251   58317       1   58254   58203   58251   58317       1
   58254   58203   58251   58320       1   58251   58320   58257   58323       1
   58248   58308   58242   58311       1   58245   58200   58248   58308       1
   58245   58200   58248   58314       1   58242   58308   58248   58314       1
   58239   58197   58242   58308       1   58239   58197   58242   58311       1
   58236   58194   58233   58299       1   58236   58194   58233   58305       1
   58233   58299   58227   58302       1   58230   58191   58227   58299       1
   58230   58191   58227   58302       1   58227   58299   58233   58305       1
   58224   58185   58221   58290       1   58221   58185   58224   58296       1
   58218   58182   58215   58278       1   58215   58182   58218   58284       1
   58212   58176   58209   58266       1   58209   58176   58212   58272       1
   58206   58173   58203   58254       1   58203   58173   58206   58260       1
   58200   58170   58197   58239       1   58197   58170   58200   58245       1
   58194   58167   58191   58230       1   58191   58167   58194   58236       1
   58185   58221   58287   58347       1   58185   58224   58293   58350       1
   58182   58215   58275   58338       1   58182   58218   58281   58341       1
   58176   58209   58263   58329       1   58176   58212   58269   58332       1
   58173   58203   58251   58317       1   58173   58206   58257   58323       1
   58170   58197   58242   58311       1   58170   58200   58248   58314       1
   58167   58191   58227   58302       1   58167   58194   58233   58305       1
   58164   58131   58161   58188       1   58158   58128   58161   58188       1
   58158   58182   58215   58278       1   58158   58182   58218   58284       1
   58158   58185   58221   58290       1   58158   58185   58224   58296       1
   58155   58122   58152   58179       1   58149   58116   58152   58179       1
   58149   58173   58203   58254       1   58149   58173   58206   58260       1
   58149   58176   58209   58266       1   58149   58176   58212   58272       1
   58146   58167   58191   58230       1   58146   58167   58194   58236       1
   58146   58170   58197   58239       1   58146   58170   58200   58245       1
   58143   58104   58110   58146       1   58128   58161   58131   58164       1
   58125   58095   58128   58158       1   58125   58095   58128   58161       1
   58119   58089   58116   58149       1   58119   58089   58116   58152       1
   58116   58152   58122   58155       1   58113   58086   58110   58146       1
   58107   58083   58104   58110       1   58107   58083   58104   58143       1
   58104   58110   58086   58113       1   58098   58077   58095   58125       1
   58098   58092   58122   58155       1   58098   58131   58161   58188       1
   58095   58128   58161   58188       1   58092   58074   58089   58119       1
   58092   58098   58131   58164       1   58092   58122   58152   58179       1
   58089   58116   58152   58179       1   58086   58110   58104   58143       1
   58077   58098   58131   58164       1   58074   58092   58122   58155       1
   58071   58068   58083   58107       1   58068   58071   58086   58113       1
   58068   58083   58104   58143       1   58065   58044   58059   58080       1
   58062   58038   58059   58080       1   58059   58080   58101   58134       2
   58059   58080   58101   58137       2   58059   58080   58101   58140       2
   58056   58032   58050   58068       1   58053   58071   58086   58113       1
   58053   58074   58089   58119       1   58053   58077   58095   58125       1
   58050   58068   58083   58107       1   58047   58023   58044   58059       1
   58047   58023   58044   58065       1   58044   58059   58038   58062       1
   58041   58020   58038   58059       1   58041   58020   58038   58062       1
   58038   58059   58044   58065       1   58035   58017   58032   58050       1
   58035   58017   58032   58056       1   58029   58014   58026   58050       1
   58029   58014   58026   58053       1   58026   58050   58032   58056       1
   58023   58011   58020   58041       1   58020   58011   58023   58047       1
   58017   58008   58014   58029       1   58014   58008   58017   58035       1
   58011   58020   58038   58062       1   58011   58023   58044   58065       1
   58008   58017   58032   58056       1   58005   58008   58014   58029       1
   58005   58008   58017   58035       1   58005   58011   58020   58041       1
   58005   58011   58023   58047       1   58002   57990   57996   58005       1
   57999   57984   57996   58005       1   57993   57972   57990   57996       1
   57993   57972   57990   58002       1   57990   57996   57984   57999       1
   57987   57969   57984   57996       1   57987   57969   57984   57999       1
   57984   57996   57990   58002       1   57972   57963   57969   57987       1
   57969   57963   57972   57993       1   57963   57960   57966   57975       2
   57963   57960   57966   57978       2   57963   57960   57966   57981       2
   57963   57969   57984   57999       1   57963   57972   57990   58002       1
   57960   57963   57969   57987       1   57960   57963   57972   57993       1
   58833   58776   58827   58851       1   58830   58770   58827   58851       1
   58827   58851   58869   58917       2   58827   58851   58869   58920       2
   58827   58851   58869   58923       2   58824   58764   58818   58848       1
   58821   58758   58818   58848       1   58818   58848   58866   58908       2
   58818   58848   58866   58911       2   58818   58848   58866   58914       2
   58815   58752   58809   58845       1   58812   58746   58809   58845       1
   58809   58845   58863   58899       2   58809   58845   58863   58902       2
   58809   58845   58863   58905       2   58806   58740   58803   58842       1
   58803   58842   58860   58890       2   58803   58842   58860   58893       2
   58803   58842   58860   58896       2   58800   58734   58803   58842       1
   58797   58731   58791   58839       1   58794   58725   58791   58839       1
   58791   58839   58857   58881       2   58791   58839   58857   58884       2
   58791   58839   58857   58887       2   58788   58716   58782   58836       1
   58785   58710   58782   58836       1   58782   58836   58854   58872       2
   58782   58836   58854   58875       2   58782   58836   58854   58878       2
   58779   58707   58776   58827       1   58779   58707   58776   58833       1
   58776   58827   58770   58830       1   58773   58704   58770   58827       1
   58773   58704   58770   58830       1   58770   58827   58776   58833       1
   58767   58701   58764   58818       1   58767   58701   58764   58824       1
   58764   58818   58758   58821       1   58761   58698   58758   58818       1
   58761   58698   58758   58821       1   58758   58818   58764   58824       1
   58755   58695   58752   58809       1   58755   58695   58752   58815       1
   58752   58809   58746   58812       1   58749   58692   58746   58809       1
   58749   58692   58746   58812       1   58746   58809   58752   58815       1
   58743   58689   58740   58803       1   58743   58689   58740   58806       1
   58740   58803   58734   58800       1   58737   58686   58734   58800       1
   58737   58686   58734   58803       1   58734   58803   58740   58806       1
   58731   58791   58725   58794       1   58728   58683   58731   58791       1
   58728   58683   58731   58797       1   58725   58791   58731   58797       1
   58722   58680   58725   58791       1   58722   58680   58725   58794       1
   58719   58677   58716   58782       1   58719   58677   58716   58788       1
   58716   58782   58710   58785       1   58713   58674   58710   58782       1
   58713   58674   58710   58785       1   58710   58782   58716   58788       1
   58707   58668   58704   58773       1   58704   58668   58707   58779       1
   58701   58665   58698   58761       1   58698   58665   58701   58767       1
   58695   58659   58692   58749       1   58692   58659   58695   58755       1
   58689   58656   58686   58737       1   58686   58656   58689   58743       1
   58683   58653   58680   58722       1   58680   58653   58683   58728       1
   58677   58650   58674   58713       1   58674   58650   58677   58719       1
   58668   58704   58770   58830       1   58668   58707   58776   58833       1
   58665   58698   58758   58821       1   58665   58701   58764   58824       1
   58659   58692   58746   58812       1   58659   58695   58752   58815       1
   58656   58686   58734   58800       1   58656   58689   58740   58806       1
   58653   58680   58725   58794       1   58653   58683   58731   58797       1
   58650   58674   58710   58785       1   58650   58677   58716   58788       1
   58647   58614   58644   58671       1   58641   58611   58644   58671       1
   58641   58665   58698   58761       1   58641   58665   58701   58767       1
   58641   58668   58704   58773       1   58641   58668   58707   58779       1
   58638   58605   58635   58662       1   58632   58599   58635   58662       1
   58632   58656   58686   58737       1   58632   58656   58689   58743       1
   58632   58659   58692   58749       1   58632   58659   58695   58755       1
   58629   58650   58674   58713       1   58629   58650   58677   58719       1
   58629   58653   58680   58722       1   58629   58653   58683   58728       1
   58626   58587   58593   58629       1   58611   58644   58614   58647       1
   58608   58578   58611   58641       1   58608   58578   58611   58644       1
   58602   58572   58599   58632       1   58602   58572   58599   58635       1
   58599   58635   58605   58638       1   58596   58569   58593   58629       1
   58590   58566   58587   58593       1   58590   58566   58587   58626       1
   58587   58593   58569   58596       1   58581   58560   58578   58608       1
   58581   58575   58605   58638       1   58581   58614   58644   58671       1
   58578   58611   58644   58671       1   58575   58557   58572   58602       1
   58575   58581   58614   58647       1   58575   58605   58635   58662       1
   58572   58599   58635   58662       1   58569   58593   58587   58626       1
   58560   58581   58614   58647       1   58557   58575   58605   58638       1
   58554   58551   58566   58590       1   58551   58554   58569   58596       1
   58551   58566   58587   58626       1   58548   58527   58542   58563       1
   58545   58521   58542   58563       1   58542   58563   58584   58617       2
   58542   58563   58584   58620       2   58542   58563   58584   58623       2
   58539   58515   58533   58551       1   58536   58554   58569   58596       1
   58536   58557   58572   58602       1   58536   58560   58578   58608       1
   58533   58551   58566   58590       1   58530   58506   58527   58542       1
   58530   58506   58527   58548       1   58527   58542   58521   58545       1
   58524   58503   58521   58542       1   58524   58503   58521   58545       1
   58521   58542   58527   58548       1   58518   58500   58515   58533       1
   58518   58500   58515   58539       1   58512   58497   58509   58533       1
   58512   58497   58509   58536       1   58509   58533   58515   58539       1
   58506   58494   58503   58524       1   58503   58494   58506   58530       1
   58500   58491   58497   58512       1   58497   58491   58500   58518       1
   58494   58503   58521   58545       1   58494   58506   58527   58548       1
   58491   58500   58515   58539       1   58488   58491   58497   58512       1
   58488   58491   58500   58518       1   58488   58494   58503   58524       1
   58488   58494   58506   58530       1   58485   58473   58479   58488       1
   58482   58467   58479   58488       1   58476   58455   58473   58479       1
   58476   58455   58473   58485       1   58473   58479   58467   58482       1
   58470   58452   58467   58479       1   58470   58452   58467   58482       1
   58467   58479   58473   58485       1   58455   58446   58452   58470       1
   58452   58446   58455   58476       1   58446   58443   58449   58458       2
   58446   58443   58449   58461       2   58446   58443   58449   58464       2
   58446   58452   58467   58482       1   58446   58455   58473   58485       1
   58443   58446   58452   58470       1   58443   58446   58455   58476       1
   59316   59259   59310   59334       1   59313   59253   59310   59334       1
   59310   59334   59352   59400       2   59310   59334   59352   59403       2
   59310   59334   59352   59406       2   59307   59247   59301   59331       1
   59304   59241   59301   59331       1   59301   59331   59349   59391       2
   59301   59331   59349   59394       2   59301   59331   59349   59397       2
   59298   59235   59292   59328       1   59295   59229   59292   59328       1
   59292   59328   59346   59382       2   59292   59328   59346   59385       2
   59292   59328   59346   59388       2   59289   59223   59286   59325       1
   59286   59325   59343   59373       2   59286   59325   59343   59376       2
   59286   59325   59343   59379       2   59283   59217   59286   59325       1
   59280   59214   59274   59322       1   59277   59208   59274   59322       1
   59274   59322   59340   59364       2   59274   59322   59340   59367       2
   59274   59322   59340   59370       2   59271   59199   59265   59319       1
   59268   59193   59265   59319       1   59265   59319   59337   59355       2
   59265   59319   59337   59358       2   59265   59319   59337   59361       2
   59262   59190   59259   59310       1   59262   59190   59259   59316       1
   59259   59310   59253   59313       1   59256   59187   59253   59310       1
   59256   59187   59253   59313       1   59253   59310   59259   59316       1
   59250   59184   59247   59301       1   59250   59184   59247   59307       1
   59247   59301   59241   59304       1   59244   59181   59241   59301       1
   59244   59181   59241   59304       1   59241   59301   59247   59307       1
   59238   59178   59235   59292       1   59238   59178   59235   59298       1
   59235   59292   59229   59295       1   59232   59175   59229   59292       1
   59232   59175   59229   59295       1   59229   59292   59235   59298       1
   59226   59172   59223   59286       1   59226   59172   59223   59289       1
   59223   59286   59217   59283       1   59220   59169   59217   59283       1
   59220   59169   59217   59286       1   59217   59286   59223   59289       1
   59214   59274   59208   59277       1   59211   59166   59214   59274       1
   59211   59166   59214   59280       1   59208   59274   59214   59280       1
   59205   59163   59208   59274       1   59205   59163   59208   59277       1
   59202   59160   59199   59265       1   59202   59160   59199   59271       1
   59199   59265   59193   59268       1   59196   59157   59193   59265       1
   59196   59157   59193   59268       1   59193   59265   59199   59271       1
   59190   59151   59187   59256       1   59187   59151   59190   59262       1
   59184   59148   59181   59244       1   59181   59148   59184   59250       1
   59178   59142   59175   59232       1   59175   59142   59178   59238       1
   59172   59139   59169   59220       1   59169   59139   59172   59226       1
   59166   59136   59163   59205       1   59163   59136   59166   59211       1
   59160   59133   59157   59196       1   59157   59133   59160   59202       1
   59151   59187   59253   59313       1   59151   59190   59259   59316       1
   59148   59181   59241   59304       1   59148   59184   59247   59307       1
   59142   59175   59229   59295       1   59142   59178   59235   59298       1
   59139   59169   59217   59283       1   59139   59172   59223   59289       1
   59136   59163   59208   59277       1   59136   59166   59214   59280       1
   59133   59157   59193   59268       1   59133   59160   59199   59271       1
   59130   59097   59127   59154       1   59124   59094   59127   59154       1
   59124   59148   59181   59244       1   59124   59148   59184   59250       1
   59124   59151   59187   59256       1   59124   59151   59190   59262       1
   59121   59088   59118   59145       1   59115   59082   59118   59145       1
   59115   59139   59169   59220       1   59115   59139   59172   59226       1
   59115   59142   59175   59232       1   59115   59142   59178   59238       1
   59112   59133   59157   59196       1   59112   59133   59160   59202       1
   59112   59136   59163   59205       1   59112   59136   59166   59211       1
   59109   59070   59076   59112       1   59094   59127   59097   59130       1
   59091   59061   59094   59124       1   59091   59061   59094   59127       1
   59085   59055   59082   59115       1   59085   59055   59082   59118       1
   59082   59118   59088   59121       1   59079   59052   59076   59112       1
   59073   59049   59070   59076       1   59073   59049   59070   59109       1
   59070   59076   59052   59079       1   59064   59043   59061   59091       1
   59064   59058   59088   59121       1   59064   59097   59127   59154       1
   59061   59094   59127   59154       1   59058   59040   59055   59085       1
   59058   59064   59097   59130       1   59058   59088   59118   59145       1
   59055   59082   59118   59145       1   59052   59076   59070   59109       1
   59043   59064   59097   59130       1   59040   59058   59088   59121       1
   59037   59034   59049   59073       1   59034   59037   59052   59079       1
   59034   59049   59070   59109       1   59031   59010   59025   59046       1
   59028   59004   59025   59046       1   59025   59046   59067   59100       2
   59025   59046   59067   59103       2   59025   59046   59067   59106       2
   59022   58998   59016   59034       1   59019   59037   59052   59079       1
   59019   59040   59055   59085       1   59019   59043   59061   59091       1
   59016   59034   59049   59073       1   59013   58989   59010   59025       1
   59013   58989   59010   59031       1   59010   59025   59004   59028       1
   59007   58986   59004   59025       1   59007   58986   59004   59028       1
   59004   59025   59010   59031       1   59001   58983   58998   59016       1
   59001   58983   58998   59022       1   58995   58980   58992   59016       1
   58995   58980   58992   59019       1   58992   59016   58998   59022       1
   58989   58977   58986   59007       1   58986   58977   58989   59013       1
   58983   58974   58980   58995       1   58980   58974   58983   59001       1
   58977   58986   59004   59028       1   58977   58989   59010   59031       1
   58974   58983   58998   59022       1   58971   58974   58980   58995       1
   58971   58974   58983   59001       1   58971   58977   58986   59007       1
   58971   58977   58989   59013       1   58968   58956   58962   58971       1
   58965   58950   58962   58971       1   58959   58938   58956   58962       1
   58959   58938   58956   58968       1   58956   58962   58950   58965       1
   58953   58935   58950   58962       1   58953   58935   58950   58965       1
   58950   58962   58956   58968       1   58938   58929   58935   58953       1
   58935   58929   58938   58959       1   58929   58926   58932   58941       2
   58929   58926   58932   58944       2   58929   58926   58932   58947       2
   58929   58935   58950   58965       1   58929   58938   58956   58968       1
   58926   58929   58935   58953       1   58926   58929   58938   58959       1
   59799   59742   59793   59817       1   59796   59736   59793   59817       1
   59793   59817   59835   59883       2   59793   59817   59835   59886       2
   59793   59817   59835   59889       2   59790   59730   59784   59814       1
   59787   59724   59784   59814       1   59784   59814   59832   59874       2
   59784   59814   59832   59877       2   59784   59814   59832   59880       2
   59781   59718   59775   59811       1   59778   59712   59775   59811       1
   59775   59811   59829   59865       2   59775   59811   59829   59868       2
   59775   59811   59829   59871       2   59772   59706   59769   59808       1
   59769   59808   59826   59856       2   59769   59808   59826   59859       2
   59769   59808   59826   59862       2   59766   59700   59769   59808       1
   59763   59697   59757   59805       1   59760   59691   59757   59805       1
   59757   59805   59823   59847       2   59757   59805   59823   59850       2
   59757   59805   59823   59853       2   59754   59682   59748   59802       1
   59751   59676   59748   59802       1   59748   59802   59820   59838       2
   59748   59802   59820   59841       2   59748   59802   59820   59844       2
   59745   59673   59742   59793       1   59745   59673   59742   59799       1
   59742   59793   59736   59796       1   59739   59670   59736   59793       1
   59739   59670   59736   59796       1   59736   59793   59742   59799       1
   59733   59667   59730   59784       1   59733   59667   59730   59790       1
   59730   59784   59724   59787       1   59727   59664   59724   59784       1
   59727   59664   59724   59787       1   59724   59784   59730   59790       1
   59721   59661   59718   59775       1   59721   59661   59718   59781       1
   59718   59775   59712   59778       1   59715   59658   59712   59775       1
   59715   59658   59712   59778       1   59712   59775   59718   59781       1
   59709   59655   59706   59769       1   59709   59655   59706   59772       1
   59706   59769   59700   59766       1   59703   59652   59700   59766       1
   59703   59652   59700   59769       1   59700   59769   59706   59772       1
   59697   59757   59691   59760       1   59694   59649   59697   59757       1
   59694   59649   59697   59763       1   59691   59757   59697   59763       1
   59688   59646   59691   59757       1   59688   59646   59691   59760       1
   59685   59643   59682   59748       1   59685   59643   59682   59754       1
   59682   59748   59676   59751       1   59679   59640   59676   59748       1
   59679   59640   59676   59751       1   59676   59748   59682   59754       1
   59673   59634   59670   59739       1   59670   59634   59673   59745       1
   59667   59631   59664   59727       1   59664   59631   59667   59733       1
   59661   59625   59658   59715       1   59658   59625   59661   59721       1
   59655   59622   59652   59703       1   59652   59622   59655   59709       1
   59649   59619   59646   59688       1   59646   59619   59649   59694       1
   59643   59616   59640   59679       1   59640   59616   59643   59685       1
   59634   59670   59736   59796       1   59634   59673   59742   59799       1
   59631   59664   59724   59787       1   59631   59667   59730   59790       1
   59625   59658   59712   59778       1   59625   59661   59718   59781       1
   59622   59652   59700   59766       1   59622   59655   59706   59772       1
   59619   59646   59691   59760       1   59619   59649   59697   59763       1
   59616   59640   59676   59751       1   59616   59643   59682   59754       1
   59613   59580   59610   59637       1   59607   59577   59610   59637       1
   59607   59631   59664   59727       1   59607   59631   59667   59733       1
   59607   59634   59670   59739       1   59607   59634   59673   59745       1
   59604   59571   59601   59628       1   59598   59565   59601   59628       1
   59598   59622   59652   59703       1   59598   59622   59655   59709       1
   59598   59625   59658   59715       1   59598   59625   59661   59721       1
   59595   59616   59640   59679       1   59595   59616   59643   59685       1
   59595   59619   59646   59688       1   59595   59619   59649   59694       1
   59592   59553   59559   59595       1   59577   59610   59580   59613       1
   59574   59544   59577   59607       1   59574   59544   59577   59610       1
   59568   59538   59565   59598       1   59568   59538   59565   59601       1
   59565   59601   59571   59604       1   59562   59535   59559   59595       1
   59556   59532   59553   59559       1   59556   59532   59553   59592       1
   59553   59559   59535   59562       1   59547   59526   59544   59574       1
   59547   59541   59571   59604       1   59547   59580   59610   59637       1
   59544   59577   59610   59637       1   59541   59523   59538   59568       1
   59541   59547   59580   59613       1   59541   59571   59601   59628       1
   59538   59565   59601   59628       1   59535   59559   59553   59592       1
   59526   59547   59580   59613       1   59523   59541   59571   59604       1
   59520   59517   59532   59556       1   59517   59520   59535   59562       1
   59517   59532   59553   59592       1   59514   59493   59508   59529       1
   59511   59487   59508   59529       1   59508   59529   59550   59583       2
   59508   59529   59550   59586       2   59508   59529   59550   59589       2
   59505   59481   59499   59517       1   59502   59520   59535   59562       1
   59502   59523   59538   59568       1   59502   59526   59544   59574       1
   59499   59517   59532   59556       1   59496   59472   59493   59508       1
   59496   59472   59493   59514       1   59493   59508   59487   59511       1
   59490   59469   59487   59508       1   59490   59469   59487   59511       1
   59487   59508   59493   59514       1   59484   59466   59481   59499       1
   59484   59466   59481   59505       1   59478   59463   59475   59499       1
   59478   59463   59475   59502       1   59475   59499   59481   59505       1
   59472   59460   59469   59490       1   59469   59460   59472   59496       1
   59466   59457   59463   59478       1   59463   59457   59466   59484       1
   59460   59469   59487   59511       1   59460   59472   59493   59514       1
   59457   59466   59481   59505       1   59454   59457   59463   59478       1
   59454   59457   59466   59484       1   59454   59460   59469   59490       1
   59454   59460   59472   59496       1   59451   59439   59445   59454       1
   59448   59433   59445   59454       1   59442   59421   59439   59445       1
   59442   59421   59439   59451       1   59439   59445   59433   59448       1
   59436   59418   59433   59445       1   59436   59418   59433   59448       1
   59433   59445   59439   59451       1   59421   59412   59418   59436       1
   59418   59412   59421   59442       1   59412   59409   59415   59424       2
   59412   59409   59415   59427       2   59412   59409   59415   59430       2
   59412   59418   59433   59448       1   59412   59421   59439   59451       1
   59409   59412   59418   59436       1   59409   59412   59421   59442       1
   60282   60225   60276   60300       1   60279   60219   60276   60300       1
   60276   60300   60318   60366       2   60276   60300   60318   60369       2
   60276   60300   60318   60372       2   60273   60213   60267   60297       1
   60270   60207   60267   60297       1   60267   60297   60315   60357       2
   60267   60297   60315   60360       2   60267   60297   60315   60363       2
   60264   60201   60258   60294       1   60261   60195   60258   60294       1
   60258   60294   60312   60348       2   60258   60294   60312   60351       2
   60258   60294   60312   60354       2   60255   60189   60252   60291       1
   60252   60291   60309   60339       2   60252   60291   60309   60342       2
   60252   60291   60309   60345       2   60249   60183   60252   60291       1
   60246   60180   60240   60288       1   60243   60174   60240   60288       1
   60240   60288   60306   60330       2   60240   60288   60306   60333       2
   60240   60288   60306   60336       2   60237   60165   60231   60285       1
   60234   60159   60231   60285       1   60231   60285   60303   60321       2
   60231   60285   60303   60324       2   60231   60285   60303   60327       2
   60228   60156   60225   60276       1   60228   60156   60225   60282       1
   60225   60276   60219   60279       1   60222   60153   60219   60276       1
   60222   60153   60219   60279       1   60219   60276   60225   60282       1
   60216   60150   60213   60267       1   60216   60150   60213   60273       1
   60213   60267   60207   60270       1   60210   60147   60207   60267       1
   60210   60147   60207   60270       1   60207   60267   60213   60273       1
   60204   60144   60201   60258       1   60204   60144   60201   60264       1
   60201   60258   60195   60261       1   60198   60141   60195   60258       1
   60198   60141   60195   60261       1   60195   60258   60201   60264       1
   60192   60138   60189   60252       1   60192   60138   60189   60255       1
   60189   60252   60183   60249       1   60186   60135   60183   60249       1
   60186   60135   60183   60252       1   60183   60252   60189   60255       1
   60180   60240   60174   60243       1   60177   60132   60180   60240       1
   60177   60132   60180   60246       1   60174   60240   60180   60246       1
   60171   60129   60174   60240       1   60171   60129   60174   60243       1
   60168   60126   60165   60231       1   60168   60126   60165   60237       1
   60165   60231   60159   60234       1   60162   60123   60159   60231       1
   60162   60123   60159   60234       1   60159   60231   60165   60237       1
   60156   60117   60153   60222       1   60153   60117   60156   60228       1
   60150   60114   60147   60210       1   60147   60114   60150   60216       1
   60144   60108   60141   60198       1   60141   60108   60144   60204       1
   60138   60105   60135   60186       1   60135   60105   60138   60192       1
   60132   60102   60129   60171       1   60129   60102   60132   60177       1
   60126   60099   60123   60162       1   60123   60099   60126   60168       1
   60117   60153   60219   60279       1   60117   60156   60225   60282       1
   60114   60147   60207   60270       1   60114   60150   60213   60273       1
   60108   60141   60195   60261       1   60108   60144   60201   60264       1
   60105   60135   60183   60249       1   60105   60138   60189   60255       1
   60102   60129   60174   60243       1   60102   60132   60180   60246       1
   60099   60123   60159   60234       1   60099   60126   60165   60237       1
   60096   60063   60093   60120       1   60090   60060   60093   60120       1
   60090   60114   60147   60210       1   60090   60114   60150   60216       1
   60090   60117   60153   60222       1   60090   60117   60156   60228       1
   60087   60054   60084   60111       1   60081   60048   60084   60111       1
   60081   60105   60135   60186       1   60081   60105   60138   60192       1
   60081   60108   60141   60198       1   60081   60108   60144   60204       1
   60078   60099   60123   60162       1   60078   60099   60126   60168       1
   60078   60102   60129   60171       1   60078   60102   60132   60177       1
   60075   60036   60042   60078       1   60060   60093   60063   60096       1
   60057   60027   60060   60090       1   60057   60027   60060   60093       1
   60051   60021   60048   60081       1   60051   60021   60048   60084       1
   60048   60084   60054   60087       1   60045   60018   60042   60078       1
   60039   60015   60036   60042       1   60039   60015   60036   60075       1
   60036   60042   60018   60045       1   60030   60009   60027   60057       1
   60030   60024   60054   60087       1   60030   60063   60093   60120       1
   60027   60060   60093   60120       1   60024   60006   60021   60051       1
   60024   60030   60063   60096       1   60024   60054   60084   60111       1
   60021   60048   60084   60111       1   60018   60042   60036   60075       1
   60009   60030   60063   60096       1   60006   60024   60054   60087       1
   60003   60000   60015   60039       1   60000   60003   60018   60045       1
   60000   60015   60036   60075       1   59997   59976   59991   60012       1
   59994   59970   59991   60012       1   59991   60012   60033   60066       2
   59991   60012   60033   60069       2   59991   60012   60033   60072       2
   59988   59964   59982   60000       1   59985   60003   60018   60045       1
   59985   60006   60021   60051       1   59985   60009   60027   60057       1
   59982   60000   60015   60039       1   59979   59955   59976   59991       1
   59979   59955   59976   59997       1   59976   59991   59970   59994       1
   59973   59952   59970   59991       1   59973   59952   59970   59994       1
   59970   59991   59976   59997       1   59967   59949   59964   59982       1
   59967   59949   59964   59988       1   59961   59946   59958   59982       1
   59961   59946   59958   59985       1   59958   59982   59964   59988       1
   59955   59943   59952   59973       1   59952   59943   59955   59979       1
   59949   59940   59946   59961       1   59946   59940   59949   59967       1
   59943   59952   59970   59994       1   59943   59955   59976   59997       1
   59940   59949   59964   59988       1   59937   59940   59946   59961       1
   59937   59940   59949   59967       1   59937   59943   59952   59973       1
   59937   59943   59955   59979       1   59934   59922   59928   59937       1
   59931   59916   59928   59937       1   59925   59904   59922   59928       1
   59925   59904   59922   59934       1   59922   59928   59916   59931       1
   59919   59901   59916   59928       1   59919   59901   59916   59931       1
   59916   59928   59922   59934       1   59904   59895   59901   59919       1
   59901   59895   59904   59925       1   59895   59892   59898   59907       2
   59895   59892   59898   59910       2   59895   59892   59898   59913       2
   59895   59901   59916   59931       1   59895   59904   59922   59934       1
   59892   59895   59901   59919       1   59892   59895   59904   59925       1
   60765   60708   60759   60783       1   60762   60702   60759   60783       1
   60759   60783   60801   60849       2   60759   60783   60801   60852       2
   60759   60783   60801   60855       2   60756   60696   60750   60780       1
   60753   60690   60750   60780       1   60750   60780   60798   60840       2
   60750   60780   60798   60843       2   60750   60780   60798   60846       2
   60747   60684   60741   60777       1   60744   60678   60741   60777       1
   60741   60777   60795   60831       2   60741   60777   60795   60834       2
   60741   60777   60795   60837       2   60738   60672   60735   60774       1
   60735   60774   60792   60822       2   60735   60774   60792   60825       2
   60735   60774   60792   60828       2   60732   60666   60735   60774       1
   60729   60663   60723   60771       1   60726   60657   60723   60771       1
   60723   60771   60789   60813       2   60723   60771   60789   60816       2
   60723   60771   60789   60819       2   60720   60648   60714   60768       1
   60717   60642   60714   60768       1   60714   60768   60786   60804       2
   60714   60768   60786   60807       2   60714   60768   60786   60810       2
   60711   60639   60708   60759       1   60711   60639   60708   60765       1
   60708   60759   60702   60762       1   60705   60636   60702   60759       1
   60705   60636   60702   60762       1   60702   60759   60708   60765       1
   60699   60633   60696   60750       1   60699   60633   60696   60756       1
   60696   60750   60690   60753       1   60693   60630   60690   60750       1
   60693   60630   60690   60753       1   60690   60750   60696   60756       1
   60687   60627   60684   60741       1   60687   60627   60684   60747       1
   60684   60741   60678   60744       1   60681   60624   60678   60741       1
   60681   60624   60678   60744       1   60678   60741   60684   60747       1
   60675   60621   60672   60735       1   60675   60621   60672   60738       1
   60672   60735   60666   60732       1   60669   60618   60666   60732       1
   60669   60618   60666   60735       1   60666   60735   60672   60738       1
   60663   60723   60657   60726       1   60660   60615   60663   60723       1
   60660   60615   60663   60729       1   60657   60723   60663   60729       1
   60654   60612   60657   60723       1   60654   60612   60657   60726       1
   60651   60609   60648   60714       1   60651   60609   60648   60720       1
   60648   60714   60642   60717       1   60645   60606   60642   60714       1
   60645   60606   60642   60717       1   60642   60714   60648   60720       1
   60639   60600   60636   60705       1   60636   60600   60639   60711       1
   60633   60597   60630   60693       1   60630   60597   60633   60699       1
   60627   60591   60624   60681       1   60624   60591   60627   60687       1
   60621   60588   60618   60669       1   60618   60588   60621   60675       1
   60615   60585   60612   60654       1   60612   60585   60615   60660       1
   60609   60582   60606   60645       1   60606   60582   60609   60651       1
   60600   60636   60702   60762       1   60600   60639   60708   60765       1
   60597   60630   60690   60753       1   60597   60633   60696   60756       1
   60591   60624   60678   60744       1   60591   60627   60684   60747       1
   60588   60618   60666   60732       1   60588   60621   60672   60738       1
   60585   60612   60657   60726       1   60585   60615   60663   60729       1
   60582   60606   60642   60717       1   60582   60609   60648   60720       1
   60579   60546   60576   60603       1   60573   60543   60576   60603       1
   60573   60597   60630   60693       1   60573   60597   60633   60699       1
   60573   60600   60636   60705       1   60573   60600   60639   60711       1
   60570   60537   60567   60594       1   60564   60531   60567   60594       1
   60564   60588   60618   60669       1   60564   60588   60621   60675       1
   60564   60591   60624   60681       1   60564   60591   60627   60687       1
   60561   60582   60606   60645       1   60561   60582   60609   60651       1
   60561   60585   60612   60654       1   60561   60585   60615   60660       1
   60558   60519   60525   60561       1   60543   60576   60546   60579       1
   60540   60510   60543   60573       1   60540   60510   60543   60576       1
   60534   60504   60531   60564       1   60534   60504   60531   60567       1
   60531   60567   60537   60570       1   60528   60501   60525   60561       1
   60522   60498   60519   60525       1   60522   60498   60519   60558       1
   60519   60525   60501   60528       1   60513   60492   60510   60540       1
   60513   60507   60537   60570       1   60513   60546   60576   60603       1
   60510   60543   60576   60603       1   60507   60489   60504   60534       1
   60507   60513   60546   60579       1   60507   60537   60567   60594       1
   60504   60531   60567   60594       1   60501   60525   60519   60558       1
   60492   60513   60546   60579       1   60489   60507   60537   60570       1
   60486   60483   60498   60522       1   60483   60486   60501   60528       1
   60483   60498   60519   60558       1   60480   60459   60474   60495       1
   60477   60453   60474   60495       1   60474   60495   60516   60549       2
   60474   60495   60516   60552       2   60474   60495   60516   60555       2
   60471   60447   60465   60483       1   60468   60486   60501   60528       1
   60468   60489   60504   60534       1   60468   60492   60510   60540       1
   60465   60483   60498   60522       1   60462   60438   60459   60474       1
   60462   60438   60459   60480       1   60459   60474   60453   60477       1
   60456   60435   60453   60474       1   60456   60435   60453   60477       1
   60453   60474   60459   60480       1   60450   60432   60447   60465       1
   60450   60432   60447   60471       1   60444   60429   60441   60465       1
   60444   60429   60441   60468       1   60441   60465   60447   60471       1
   60438   60426   60435   60456       1   60435   60426   60438   60462       1
   60432   60423   60429   60444       1   60429   60423   60432   60450       1
   60426   60435   60453   60477       1   60426   60438   60459   60480       1
   60423   60432   60447   60471       1   60420   60423   60429   60444       1
   60420   60423   60432   60450       1   60420   60426   60435   60456       1
   60420   60426   60438   60462       1   60417   60405   60411   60420       1
   60414   60399   60411   60420       1   60408   60387   60405   60411       1
   60408   60387   60405   60417       1   60405   60411   60399   60414       1
   60402   60384   60399   60411       1   60402   60384   60399   60414       1
   60399   60411   60405   60417       1   60387   60378   60384   60402       1
   60384   60378   60387   60408       1   60378   60375   60381   60390       2
   60378   60375   60381   60393       2   60378   60375   60381   60396       2
   60378   60384   60399   60414       1   60378   60387   60405   60417       1
   60375   60378   60384   60402       1   60375   60378   60387   60408       1
   61248   61191   61242   61266       1   61245   61185   61242   61266       1
   61242   61266   61284   61332       2   61242   61266   61284   61335       2
   61242   61266   61284   61338       2   61239   61179   61233   61263       1
   61236   61173   61233   61263       1   61233   61263   61281   61323       2
   61233   61263   61281   61326       2   61233   61263   61281   61329       2
   61230   61167   61224   61260       1   61227   61161   61224   61260       1
   61224   61260   61278   61314       2   61224   61260   61278   61317       2
   61224   61260   61278   61320       2   61221   61155   61218   61257       1
   61218   61257   61275   61305       2   61218   61257   61275   61308       2
   61218   61257   61275   61311       2   61215   61149   61218   61257       1
   61212   61146   61206   61254       1   61209   61140   61206   61254       1
   61206   61254   61272   61296       2   61206   61254   61272   61299       2
   61206   61254   61272   61302       2   61203   61131   61197   61251       1
   61200   61125   61197   61251       1   61197   61251   61269   61287       2
   61197   61251   61269   61290       2   61197   61251   61269   61293       2
   61194   61122   61191   61242       1   61194   61122   61191   61248       1
   61191   61242   61185   61245       1   61188   61119   61185   61242       1
   61188   61119   61185   61245       1   61185   61242   61191   61248       1
   61182   61116   61179   61233       1   61182   61116   61179   61239       1
   61179   61233   61173   61236       1   61176   61113   61173   61233       1
   61176   61113   61173   61236       1   61173   61233   61179   61239       1
   61170   61110   61167   61224       1   61170   61110   61167   61230       1
   61167   61224   61161   61227       1   61164   61107   61161   61224       1
   61164   61107   61161   61227       1   61161   61224   61167   61230       1
   61158   61104   61155   61218       1   61158   61104   61155   61221       1
   61155   61218   61149   61215       1   61152   61101   61149   61215       1
   61152   61101   61149   61218       1   61149   61218   61155   61221       1
   61146   61206   61140   61209       1   61143   61098   61146   61206       1
   61143   61098   61146   61212       1   61140   61206   61146   61212       1
   61137   61095   61140   61206       1   61137   61095   61140   61209       1
   61134   61092   61131   61197       1   61134   61092   61131   61203       1
   61131   61197   61125   61200       1   61128   61089   61125   61197       1
   61128   61089   61125   61200       1   61125   61197   61131   61203       1
   61122   61083   61119   61188       1   61119   61083   61122   61194       1
   61116   61080   61113   61176       1   61113   61080   61116   61182       1
   61110   61074   61107   61164       1   61107   61074   61110   61170       1
   61104   61071   61101   61152       1   61101   61071   61104   61158       1
   61098   61068   61095   61137       1   61095   61068   61098   61143       1
   61092   61065   61089   61128       1   61089   61065   61092   61134       1
   61083   61119   61185   61245       1   61083   61122   61191   61248       1
   61080   61113   61173   61236       1   61080   61116   61179   61239       1
   61074   61107   61161   61227       1   61074   61110   61167   61230       1
   61071   61101   61149   61215       1   61071   61104   61155   61221       1
   61068   61095   61140   61209       1   61068   61098   61146   61212       1
   61065   61089   61125   61200       1   61065   61092   61131   61203       1
   61062   61029   61059   61086       1   61056   61026   61059   61086       1
   61056   61080   61113   61176       1   61056   61080   61116   61182       1
   61056   61083   61119   61188       1   61056   61083   61122   61194       1
   61053   61020   61050   61077       1   61047   61014   61050   61077       1
   61047   61071   61101   61152       1   61047   61071   61104   61158       1
   61047   61074   61107   61164       1   61047   61074   61110   61170       1
   61044   61065   61089   61128       1   61044   61065   61092   61134       1
   61044   61068   61095   61137       1   61044   61068   61098   61143       1
   61041   61002   61008   61044       1   61026   61059   61029   61062       1
   61023   60993   61026   61056       1   61023   60993   61026   61059       1
   61017   60987   61014   61047       1   61017   60987   61014   61050       1
   61014   61050   61020   61053       1   61011   60984   61008   61044       1
   61005   60981   61002   61008       1   61005   60981   61002   61041       1
   61002   61008   60984   61011       1   60996   60975   60993   61023       1
   60996   60990   61020   61053       1   60996   61029   61059   61086       1
   60993   61026   61059   61086       1   60990   60972   60987   61017       1
   60990   60996   61029   61062       1   60990   61020   61050   61077       1
   60987   61014   61050   61077       1   60984   61008   61002   61041       1
   60975   60996   61029   61062       1   60972   60990   61020   61053       1
   60969   60966   60981   61005       1   60966   60969   60984   61011       1
   60966   60981   61002   61041       1   60963   60942   60957   60978       1
   60960   60936   60957   60978       1   60957   60978   60999   61032       2
   60957   60978   60999   61035       2   60957   60978   60999   61038       2
   60954   60930   60948   60966       1   60951   60969   60984   61011       1
   60951   60972   60987   61017       1   60951   60975   60993   61023       1
   60948   60966   60981   61005       1   60945   60921   60942   60957       1
   60945   60921   60942   60963       1   60942   60957   60936   60960       1
   60939   60918   60936   60957       1   60939   60918   60936   60960       1
   60936   60957   60942   60963       1   60933   60915   60930   60948       1
   60933   60915   60930   60954       1   60927   60912   60924   60948       1
   60927   60912   60924   60951       1   60924   60948   60930   60954       1
   60921   60909   60918   60939       1   60918   60909   60921   60945       1
   60915   60906   60912   60927       1   60912   60906   60915   60933       1
   60909   60918   60936   60960       1   60909   60921   60942   60963       1
   60906   60915   60930   60954       1   60903   60906   60912   60927       1
   60903   60906   60915   60933       1   60903   60909   60918   60939       1
   60903   60909   60921   60945       1   60900   60888   60894   60903       1
   60897   60882   60894   60903       1   60891   60870   60888   60894       1
   60891   60870   60888   60900       1   60888   60894   60882   60897       1
   60885   60867   60882   60894       1   60885   60867   60882   60897       1
   60882   60894   60888   60900       1   60870   60861   60867   60885       1
   60867   60861   60870   60891       1   60861   60858   60864   60873       2
   60861   60858   60864   60876       2   60861   60858   60864   60879       2
   60861   60867   60882   60897       1   60861   60870   60888   60900       1
   60858   60861   60867   60885       1   60858   60861   60870   60891       1
   61731   61674   61725   61749       1   61728   61668   61725   61749       1
   61725   61749   61767   61815       2   61725   61749   61767   61818       2
   61725   61749   61767   61821       2   61722   61662   61716   61746       1
   61719   61656   61716   61746       1   61716   61746   61764   61806       2
   61716   61746   61764   61809       2   61716   61746   61764   61812       2
   61713   61650   61707   61743       1   61710   61644   61707   61743       1
   61707   61743   61761   61797       2   61707   61743   61761   61800       2
   61707   61743   61761   61803       2   61704   61638   61701   61740       1
   61701   61740   61758   61788       2   61701   61740   61758   61791       2
   61701   61740   61758   61794       2   61698   61632   61701   61740       1
   61695   61629   61689   61737       1   61692   61623   61689   61737       1
   61689   61737   61755   61779       2   61689   61737   61755   61782       2
   61689   61737   61755   61785       2   61686   61614   61680   61734       1
   61683   61608   61680   61734       1   61680   61734   61752   61770       2
   61680   61734   61752   61773       2   61680   61734   61752   61776       2
   61677   61605   61674   61725       1   61677   61605   61674   61731       1
   61674   61725   61668   61728       1   61671   61602   61668   61725       1
   61671   61602   61668   61728       1   61668   61725   61674   61731       1
   61665   61599   61662   61716       1   61665   61599   61662   61722       1
   61662   61716   61656   61719       1   61659   61596   61656   61716       1
   61659   61596   61656   61719       1   61656   61716   61662   61722       1
   61653   61593   61650   61707       1   61653   61593   61650   61713       1
   61650   61707   61644   61710       1   61647   61590   61644   61707       1
   61647   61590   61644   61710       1   61644   61707   61650   61713       1
   61641   61587   61638   61701       1   61641   61587   61638   61704       1
   61638   61701   61632   61698       1   61635   61584   61632   61698       1
   61635   61584   61632   61701       1   61632   61701   61638   61704       1
   61629   61689   61623   61692       1   61626   61581   61629   61689       1
   61626   61581   61629   61695       1   61623   61689   61629   61695       1
   61620   61578   61623   61689       1   61620   61578   61623   61692       1
   61617   61575   61614   61680       1   61617   61575   61614   61686       1
   61614   61680   61608   61683       1   61611   61572   61608   61680       1
   61611   61572   61608   61683       1   61608   61680   61614   61686       1
   61605   61566   61602   61671       1   61602   61566   61605   61677       1
   61599   61563   61596   61659       1   61596   61563   61599   61665       1
   61593   61557   61590   61647       1   61590   61557   61593   61653       1
   61587   61554   61584   61635       1   61584   61554   61587   61641       1
   61581   61551   61578   61620       1   61578   61551   61581   61626       1
   61575   61548   61572   61611       1   61572   61548   61575   61617       1
   61566   61602   61668   61728       1   61566   61605   61674   61731       1
   61563   61596   61656   61719       1   61563   61599   61662   61722       1
   61557   61590   61644   61710       1   61557   61593   61650   61713       1
   61554   61584   61632   61698       1   61554   61587   61638   61704       1
   61551   61578   61623   61692       1   61551   61581   61629   61695       1
   61548   61572   61608   61683       1   61548   61575   61614   61686       1
   61545   61512   61542   61569       1   61539   61509   61542   61569       1
   61539   61563   61596   61659       1   61539   61563   61599   61665       1
   61539   61566   61602   61671       1   61539   61566   61605   61677       1
   61536   61503   61533   61560       1   61530   61497   61533   61560       1
   61530   61554   61584   61635       1   61530   61554   61587   61641       1
   61530   61557   61590   61647       1   61530   61557   61593   61653       1
   61527   61548   61572   61611       1   61527   61548   61575   61617       1
   61527   61551   61578   61620       1   61527   61551   61581   61626       1
   61524   61485   61491   61527       1   61509   61542   61512   61545       1
   61506   61476   61509   61539       1   61506   61476   61509   61542       1
   61500   61470   61497   61530       1   61500   61470   61497   61533       1
   61497   61533   61503   61536       1   61494   61467   61491   61527       1
   61488   61464   61485   61491       1   61488   61464   61485   61524       1
   61485   61491   61467   61494       1   61479   61458   61476   61506       1
   61479   61473   61503   61536       1   61479   61512   61542   61569       1
   61476   61509   61542   61569       1   61473   61455   61470   61500       1
   61473   61479   61512   61545       1   61473   61503   61533   61560       1
   61470   61497   61533   61560       1   61467   61491   61485   61524       1
   61458   61479   61512   61545       1   61455   61473   61503   61536       1
   61452   61449   61464   61488       1   61449   61452   61467   61494       1
   61449   61464   61485   61524       1   61446   61425   61440   61461       1
   61443   61419   61440   61461       1   61440   61461   61482   61515       2
   61440   61461   61482   61518       2   61440   61461   61482   61521       2
   61437   61413   61431   61449       1   61434   61452   61467   61494       1
   61434   61455   61470   61500       1   61434   61458   61476   61506       1
   61431   61449   61464   61488       1   61428   61404   61425   61440       1
   61428   61404   61425   61446       1   61425   61440   61419   61443       1
   61422   61401   61419   61440       1   61422   61401   61419   61443       1
   61419   61440   61425   61446       1   61416   61398   61413   61431       1
   61416   61398   61413   61437       1   61410   61395   61407   61431       1
   61410   61395   61407   61434       1   61407   61431   61413   61437       1
   61404   61392   61401   61422       1   61401   61392   61404   61428       1
   61398   61389   61395   61410       1   61395   61389   61398   61416       1
   61392   61401   61419   61443       1   61392   61404   61425   61446       1
   61389   61398   61413   61437       1   61386   61389   61395   61410       1
   61386   61389   61398   61416       1   61386   61392   61401   61422       1
   61386   61392   61404   61428       1   61383   61371   61377   61386       1
   61380   61365   61377   61386       1   61374   61353   61371   61377       1
   61374   61353   61371   61383       1   61371   61377   61365   61380       1
   61368   61350   61365   61377       1   61368   61350   61365   61380       1
   61365   61377   61371   61383       1   61353   61344   61350   61368       1
   61350   61344   61353   61374       1   61344   61341   61347   61356       2
   61344   61341   61347   61359       2   61344   61341   61347   61362       2
   61344   61350   61365   61380       1   61344   61353   61371   61383       1
   61341   61344   61350   61368       1   61341   61344   61353   61374       1
   62214   62157   62208   62232       1   62211   62151   62208   62232       1
   62208   62232   62250   62298       2   62208   62232   62250   62301       2
   62208   62232   62250   62304       2   62205   62145   62199   62229       1
   62202   62139   62199   62229       1   62199   62229   62247   62289       2
   62199   62229   62247   62292       2   62199   62229   62247   62295       2
   62196   62133   62190   62226       1   62193   62127   62190   62226       1
   62190   62226   62244   62280       2   62190   62226   62244   62283       2
   62190   62226   62244   62286       2   62187   62121   62184   62223       1
   62184   62223   62241   62271       2   62184   62223   62241   62274       2
   62184   62223   62241   62277       2   62181   62115   62184   62223       1
   62178   62112   62172   62220       1   62175   62106   62172   62220       1
   62172   62220   62238   62262       2   62172   62220   62238   62265       2
   62172   62220   62238   62268       2   62169   62097   62163   62217       1
   62166   62091   62163   62217       1   62163   62217   62235   62253       2
   62163   62217   62235   62256       2   62163   62217   62235   62259       2
   62160   62088   62157   62208       1   62160   62088   62157   62214       1
   62157   62208   62151   62211       1   62154   62085   62151   62208       1
   62154   62085   62151   62211       1   62151   62208   62157   62214       1
   62148   62082   62145   62199       1   62148   62082   62145   62205       1
   62145   62199   62139   62202       1   62142   62079   62139   62199       1
   62142   62079   62139   62202       1   62139   62199   62145   62205       1
   62136   62076   62133   62190       1   62136   62076   62133   62196       1
   62133   62190   62127   62193       1   62130   62073   62127   62190       1
   62130   62073   62127   62193       1   62127   62190   62133   62196       1
   62124   62070   62121   62184       1   62124   62070   62121   62187       1
   62121   62184   62115   62181       1   62118   62067   62115   62181       1
   62118   62067   62115   62184       1   62115   62184   62121   62187       1
   62112   62172   62106   62175       1   62109   62064   62112   62172       1
   62109   62064   62112   62178       1   62106   62172   62112   62178       1
   62103   62061   62106   62172       1   62103   62061   62106   62175       1
   62100   62058   62097   62163       1   62100   62058   62097   62169       1
   62097   62163   62091   62166       1   62094   62055   62091   62163       1
   62094   62055   62091   62166       1   62091   62163   62097   62169       1
   62088   62049   62085   62154       1   62085   62049   62088   62160       1
   62082   62046   62079   62142       1   62079   62046   62082   62148       1
   62076   62040   62073   62130       1   62073   62040   62076   62136       1
   62070   62037   62067   62118       1   62067   62037   62070   62124       1
   62064   62034   62061   62103       1   62061   62034   62064   62109       1
   62058   62031   62055   62094       1   62055   62031   62058   62100       1
   62049   62085   62151   62211       1   62049   62088   62157   62214       1
   62046   62079   62139   62202       1   62046   62082   62145   62205       1
   62040   62073   62127   62193       1   62040   62076   62133   62196       1
   62037   62067   62115   62181       1   62037   62070   62121   62187       1
   62034   62061   62106   62175       1   62034   62064   62112   62178       1
   62031   62055   62091   62166       1   62031   62058   62097   62169       1
   62028   61995   62025   62052       1   62022   61992   62025   62052       1
   62022   62046   62079   62142       1   62022   62046   62082   62148       1
   62022   62049   62085   62154       1   62022   62049   62088   62160       1
   62019   61986   62016   62043       1   62013   61980   62016   62043       1
   62013   62037   62067   62118       1   62013   62037   62070   62124       1
   62013   62040   62073   62130       1   62013   62040   62076   62136       1
   62010   62031   62055   62094       1   62010   62031   62058   62100       1
   62010   62034   62061   62103       1   62010   62034   62064   62109       1
   62007   61968   61974   62010       1   61992   62025   61995   62028       1
   61989   61959   61992   62022       1   61989   61959   61992   62025       1
   61983   61953   61980   62013       1   61983   61953   61980   62016       1
   61980   62016   61986   62019       1   61977   61950   61974   62010       1
   61971   61947   61968   61974       1   61971   61947   61968   62007       1
   61968   61974   61950   61977       1   61962   61941   61959   61989       1
   61962   61956   61986   62019       1   61962   61995   62025   62052       1
   61959   61992   62025   62052       1   61956   61938   61953   61983       1
   61956   61962   61995   62028       1   61956   61986   62016   62043       1
   61953   61980   62016   62043       1   61950   61974   61968   62007       1
   61941   61962   61995   62028       1   61938   61956   61986   62019       1
   61935   61932   61947   61971       1   61932   61935   61950   61977       1
   61932   61947   61968   62007       1   61929   61908   61923   61944       1
   61926   61902   61923   61944       1   61923   61944   61965   61998       2
   61923   61944   61965   62001       2   61923   61944   61965   62004       2
   61920   61896   61914   61932       1   61917   61935   61950   61977       1
   61917   61938   61953   61983       1   61917   61941   61959   61989       1
   61914   61932   61947   61971       1   61911   61887   61908   61923       1
   61911   61887   61908   61929       1   61908   61923   61902   61926       1
   61905   61884   61902   61923       1   61905   61884   61902   61926       1
   61902   61923   61908   61929       1   61899   61881   61896   61914       1
   61899   61881   61896   61920       1   61893   61878   61890   61914       1
   61893   61878   61890   61917       1   61890   61914   61896   61920       1
   61887   61875   61884   61905       1   61884   61875   61887   61911       1
   61881   61872   61878   61893       1   61878   61872   61881   61899       1
   61875   61884   61902   61926       1   61875   61887   61908   61929       1
   61872   61881   61896   61920       1   61869   61872   61878   61893       1
   61869   61872   61881   61899       1   61869   61875   61884   61905       1
   61869   61875   61887   61911       1   61866   61854   61860   61869       1
   61863   61848   61860   61869       1   61857   61836   61854   61860       1
   61857   61836   61854   61866       1   61854   61860   61848   61863       1
   61851   61833   61848   61860       1   61851   61833   61848   61863       1
   61848   61860   61854   61866       1   61836   61827   61833   61851       1
   61833   61827   61836   61857       1   61827   61824   61830   61839       2
   61827   61824   61830   61842       2   61827   61824   61830   61845       2
   61827   61833   61848   61863       1   61827   61836   61854   61866       1
   61824   61827   61833   61851       1   61824   61827   61836   61857       1
   62697   62640   62691   62715       1   62694   62634   62691   62715       1
   62691   62715   62733   62781       2   62691   62715   62733   62784       2
   62691   62715   62733   62787       2   62688   62628   62682   62712       1
   62685   62622   62682   62712       1   62682   62712   62730   62772       2
   62682   62712   62730   62775       2   62682   62712   62730   62778       2
   62679   62616   62673   62709       1   62676   62610   62673   62709       1
   62673   62709   62727   62763       2   62673   62709   62727   62766       2
   62673   62709   62727   62769       2   62670   62604   62667   62706       1
   62667   62706   62724   62754       2   62667   62706   62724   62757       2
   62667   62706   62724   62760       2   62664   62598   62667   62706       1
   62661   62595   62655   62703       1   62658   62589   62655   62703       1
   62655   62703   62721   62745       2   62655   62703   62721   62748       2
   62655   62703   62721   62751       2   62652   62580   62646   62700       1
   62649   62574   62646   62700       1   62646   62700   62718   62736       2
   62646   62700   62718   62739       2   62646   62700   62718   62742       2
   62643   62571   62640   62691       1   62643   62571   62640   62697       1
   62640   62691   62634   62694       1   62637   62568   62634   62691       1
   62637   62568   62634   62694       1   62634   62691   62640   62697       1
   62631   62565   62628   62682       1   62631   62565   62628   62688       1
   62628   62682   62622   62685       1   62625   62562   62622   62682       1
   62625   62562   62622   62685       1   62622   62682   62628   62688       1
   62619   62559   62616   62673       1   62619   62559   62616   62679       1
   62616   62673   62610   62676       1   62613   62556   62610   62673       1
   62613   62556   62610   62676       1   62610   62673   62616   62679       1
   62607   62553   62604   62667       1   62607   62553   62604   62670       1
   62604   62667   62598   62664       1   62601   62550   62598   62664       1
   62601   62550   62598   62667       1   62598   62667   62604   62670       1
   62595   62655   62589   62658       1   62592   62547   62595   62655       1
   62592   62547   62595   62661       1   62589   62655   62595   62661       1
   62586   62544   62589   62655       1   62586   62544   62589   62658       1
   62583   62541   62580   62646       1   62583   62541   62580   62652       1
   62580   62646   62574   62649       1   62577   62538   62574   62646       1
   62577   62538   62574   62649       1   62574   62646   62580   62652       1
   62571   62532   62568   62637       1   62568   62532   62571   62643       1
   62565   62529   62562   62625       1   62562   62529   62565   62631       1
   62559   62523   62556   62613       1   62556   62523   62559   62619       1
   62553   62520   62550   62601       1   62550   62520   62553   62607       1
   62547   62517   62544   62586       1   62544   62517   62547   62592       1
   62541   62514   62538   62577       1   62538   62514   62541   62583       1
   62532   62568   62634   62694       1   62532   62571   62640   62697       1
   62529   62562   62622   62685       1   62529   62565   62628   62688       1
   62523   62556   62610   62676       1   62523   62559   62616   62679       1
   62520   62550   62598   62664       1   62520   62553   62604   62670       1
   62517   62544   62589   62658       1   62517   62547   62595   62661       1
   62514   62538   62574   62649       1   62514   62541   62580   62652       1
   62511   62478   62508   62535       1   62505   62475   62508   62535       1
   62505   62529   62562   62625       1   62505   62529   62565   62631       1
   62505   62532   62568   62637       1   62505   62532   62571   62643       1
   62502   62469   62499   62526       1   62496   62463   62499   62526       1
   62496   62520   62550   62601       1   62496   62520   62553   62607       1
   62496   62523   62556   62613       1   62496   62523   62559   62619       1
   62493   62514   62538   62577       1   62493   62514   62541   62583       1
   62493   62517   62544   62586       1   62493   62517   62547   62592       1
   62490   62451   62457   62493       1   62475   62508   62478   62511       1
   62472   62442   62475   62505       1   62472   62442   62475   62508       1
   62466   62436   62463   62496       1   62466   62436   62463   62499       1
   62463   62499   62469   62502       1   62460   62433   62457   62493       1
   62454   62430   62451   62457       1   62454   62430   62451   62490       1
   62451   62457   62433   62460       1   62445   62424   62442   62472       1
   62445   62439   62469   62502       1   62445   62478   62508   62535       1
   62442   62475   62508   62535       1   62439   62421   62436   62466       1
   62439   62445   62478   62511       1   62439   62469   62499   62526       1
   62436   62463   62499   62526       1   62433   62457   62451   62490       1
   62424   62445   62478   62511       1   62421   62439   62469   62502       1
   62418   62415   62430   62454       1   62415   62418   62433   62460       1
   62415   62430   62451   62490       1   62412   62391   62406   62427       1
   62409   62385   62406   62427       1   62406   62427   62448   62481       2
   62406   62427   62448   62484       2   62406   62427   62448   62487       2
   62403   62379   62397   62415       1   62400   62418   62433   62460       1
   62400   62421   62436   62466       1   62400   62424   62442   62472       1
   62397   62415   62430   62454       1   62394   62370   62391   62406       1
   62394   62370   62391   62412       1   62391   62406   62385   62409       1
   62388   62367   62385   62406       1   62388   62367   62385   62409       1
   62385   62406   62391   62412       1   62382   62364   62379   62397       1
   62382   62364   62379   62403       1   62376   62361   62373   62397       1
   62376   62361   62373   62400       1   62373   62397   62379   62403       1
   62370   62358   62367   62388       1   62367   62358   62370   62394       1
   62364   62355   62361   62376       1   62361   62355   62364   62382       1
   62358   62367   62385   62409       1   62358   62370   62391   62412       1
   62355   62364   62379   62403       1   62352   62355   62361   62376       1
   62352   62355   62364   62382       1   62352   62358   62367   62388       1
   62352   62358   62370   62394       1   62349   62337   62343   62352       1
   62346   62331   62343   62352       1   62340   62319   62337   62343       1
   62340   62319   62337   62349       1   62337   62343   62331   62346       1
   62334   62316   62331   62343       1   62334   62316   62331   62346       1
   62331   62343   62337   62349       1   62319   62310   62316   62334       1
   62316   62310   62319   62340       1   62310   62307   62313   62322       2
   62310   62307   62313   62325       2   62310   62307   62313   62328       2
   62310   62316   62331   62346       1   62310   62319   62337   62349       1
   62307   62310   62316   62334       1   62307   62310   62319   62340       1
   63180   63123   63174   63198       1   63177   63117   63174   63198       1
   63174   63198   63216   63264       2   63174   63198   63216   63267       2
   63174   63198   63216   63270       2   63171   63111   63165   63195       1
   63168   63105   63165   63195       1   63165   63195   63213   63255       2
   63165   63195   63213   63258       2   63165   63195   63213   63261       2
   63162   63099   63156   63192       1   63159   63093   63156   63192       1
   63156   63192   63210   63246       2   63156   63192   63210   63249       2
   63156   63192   63210   63252       2   63153   63087   63150   63189       1
   63150   63189   63207   63237       2   63150   63189   63207   63240       2
   63150   63189   63207   63243       2   63147   63081   63150   63189       1
   63144   63078   63138   63186       1   63141   63072   63138   63186       1
   63138   63186   63204   63228       2   63138   63186   63204   63231       2
   63138   63186   63204   63234       2   63135   63063   63129   63183       1
   63132   63057   63129   63183       1   63129   63183   63201   63219       2
   63129   63183   63201   63222       2   63129   63183   63201   63225       2
   63126   63054   63123   63174       1   63126   63054   63123   63180       1
   63123   63174   63117   63177       1   63120   63051   63117   63174       1
   63120   63051   63117   63177       1   63117   63174   63123   63180       1
   63114   63048   63111   63165       1   63114   63048   63111   63171       1
   63111   63165   63105   63168       1   63108   63045   63105   63165       1
   63108   63045   63105   63168       1   63105   63165   63111   63171       1
   63102   63042   63099   63156       1   63102   63042   63099   63162       1
   63099   63156   63093   63159       1   63096   63039   63093   63156       1
   63096   63039   63093   63159       1   63093   63156   63099   63162       1
   63090   63036   63087   63150       1   63090   63036   63087   63153       1
   63087   63150   63081   63147       1   63084   63033   63081   63147       1
   63084   63033   63081   63150       1   63081   63150   63087   63153       1
   63078   63138   63072   63141       1   63075   63030   63078   63138       1
   63075   63030   63078   63144       1   63072   63138   63078   63144       1
   63069   63027   63072   63138       1   63069   63027   63072   63141       1
   63066   63024   63063   63129       1   63066   63024   63063   63135       1
   63063   63129   63057   63132       1   63060   63021   63057   63129       1
   63060   63021   63057   63132       1   63057   63129   63063   63135       1
   63054   63015   63051   63120       1   63051   63015   63054   63126       1
   63048   63012   63045   63108       1   63045   63012   63048   63114       1
   63042   63006   63039   63096       1   63039   63006   63042   63102       1
   63036   63003   63033   63084       1   63033   63003   63036   63090       1
   63030   63000   63027   63069       1   63027   63000   63030   63075       1
   63024   62997   63021   63060       1   63021   62997   63024   63066       1
   63015   63051   63117   63177       1   63015   63054   63123   63180       1
   63012   63045   63105   63168       1   63012   63048   63111   63171       1
   63006   63039   63093   63159       1   63006   63042   63099   63162       1
   63003   63033   63081   63147       1   63003   63036   63087   63153       1
   63000   63027   63072   63141       1   63000   63030   63078   63144       1
   62997   63021   63057   63132       1   62997   63024   63063   63135       1
   62994   62961   62991   63018       1   62988   62958   62991   63018       1
   62988   63012   63045   63108       1   62988   63012   63048   63114       1
   62988   63015   63051   63120       1   62988   63015   63054   63126       1
   62985   62952   62982   63009       1   62979   62946   62982   63009       1
   62979   63003   63033   63084       1   62979   63003   63036   63090       1
   62979   63006   63039   63096       1   62979   63006   63042   63102       1
   62976   62997   63021   63060       1   62976   62997   63024   63066       1
   62976   63000   63027   63069       1   62976   63000   63030   63075       1
   62973   62934   62940   62976       1   62958   62991   62961   62994       1
   62955   62925   62958   62988       1   62955   62925   62958   62991       1
   62949   62919   62946   62979       1   62949   62919   62946   62982       1
   62946   62982   62952   62985       1   62943   62916   62940   62976       1
   62937   62913   62934   62940       1   62937   62913   62934   62973       1
   62934   62940   62916   62943       1   62928   62907   62925   62955       1
   62928   62922   62952   62985       1   62928   62961   62991   63018       1
   62925   62958   62991   63018       1   62922   62904   62919   62949       1
   62922   62928   62961   62994       1   62922   62952   62982   63009       1
   62919   62946   62982   63009       1   62916   62940   62934   62973       1
   62907   62928   62961   62994       1   62904   62922   62952   62985       1
   62901   62898   62913   62937       1   62898   62901   62916   62943       1
   62898   62913   62934   62973       1   62895   62874   62889   62910       1
   62892   62868   62889   62910       1   62889   62910   62931   62964       2
   62889   62910   62931   62967       2   62889   62910   62931   62970       2
   62886   62862   62880   62898       1   62883   62901   62916   62943       1
   62883   62904   62919   62949       1   62883   62907   62925   62955       1
   62880   62898   62913   62937       1   62877   62853   62874   62889       1
   62877   62853   62874   62895       1   62874   62889   62868   62892       1
   62871   62850   62868   62889       1   62871   62850   62868   62892       1
   62868   62889   62874   62895       1   62865   62847   62862   62880       1
   62865   62847   62862   62886       1   62859   62844   62856   62880       1
   62859   62844   62856   62883       1   62856   62880   62862   62886       1
   62853   62841   62850   62871       1   62850   62841   62853   62877       1
   62847   62838   62844   62859       1   62844   62838   62847   62865       1
   62841   62850   62868   62892       1   62841   62853   62874   62895       1
   62838   62847   62862   62886       1   62835   62838   62844   62859       1
   62835   62838   62847   62865       1   62835   62841   62850   62871       1
   62835   62841   62853   62877       1   62832   62820   62826   62835       1
   62829   62814   62826   62835       1   62823   62802   62820   62826       1
   62823   62802   62820   62832       1   62820   62826   62814   62829       1
   62817   62799   62814   62826       1   62817   62799   62814   62829       1
   62814   62826   62820   62832       1   62802   62793   62799   62817       1
   62799   62793   62802   62823       1   62793   62790   62796   62805       2
   62793   62790   62796   62808       2   62793   62790   62796   62811       2
   62793   62799   62814   62829       1   62793   62802   62820   62832       1
   62790   62793   62799   62817       1   62790   62793   62802   62823       1
   63663   63606   63657   63681       1   63660   63600   63657   63681       1
   63657   63681   63699   63747       2   63657   63681   63699   63750       2
   63657   63681   63699   63753       2   63654   63594   63648   63678       1
   63651   63588   63648   63678       1   63648   63678   63696   63738       2
   63648   63678   63696   63741       2   63648   63678   63696   63744       2
   63645   63582   63639   63675       1   63642   63576   63639   63675       1
   63639   63675   63693   63729       2   63639   63675   63693   63732       2
   63639   63675   63693   63735       2   63636   63570   63633   63672       1
   63633   63672   63690   63720       2   63633   63672   63690   63723       2
   63633   63672   63690   63726       2   63630   63564   63633   63672       1
   63627   63561   63621   63669       1   63624   63555   63621   63669       1
   63621   63669   63687   63711       2   63621   63669   63687   63714       2
   63621   63669   63687   63717       2   63618   63546   63612   63666       1
   63615   63540   63612   63666       1   63612   63666   63684   63702       2
   63612   63666   63684   63705       2   63612   63666   63684   63708       2
   63609   63537   63606   63657       1   63609   63537   63606   63663       1
   63606   63657   63600   63660       1   63603   63534   63600   63657       1
   63603   63534   63600   63660       1   63600   63657   63606   63663       1
   63597   63531   63594   63648       1   63597   63531   63594   63654       1
   63594   63648   63588   63651       1   63591   63528   63588   63648       1
   63591   63528   63588   63651       1   63588   63648   63594   63654       1
   63585   63525   63582   63639       1   63585   63525   63582   63645       1
   63582   63639   63576   63642       1   63579   63522   63576   63639       1
   63579   63522   63576   63642       1   63576   63639   63582   63645       1
   63573   63519   63570   63633       1   63573   63519   63570   63636       1
   63570   63633   63564   63630       1   63567   63516   63564   63630       1
   63567   63516   63564   63633       1   63564   63633   63570   63636       1
   63561   63621   63555   63624       1   63558   63513   63561   63621       1
   63558   63513   63561   63627       1   63555   63621   63561   63627       1
   63552   63510   63555   63621       1   63552   63510   63555   63624       1
   63549   63507   63546   63612       1   63549   63507   63546   63618       1
   63546   63612   63540   63615       1   63543   63504   63540   63612       1
   63543   63504   63540   63615       1   63540   63612   63546   63618       1
   63537   63498   63534   63603       1   63534   63498   63537   63609       1
   63531   63495   63528   63591       1   63528   63495   63531   63597       1
   63525   63489   63522   63579       1   63522   63489   63525   63585       1
   63519   63486   63516   63567       1   63516   63486   63519   63573       1
   63513   63483   63510   63552       1   63510   63483   63513   63558       1
   63507   63480   63504   63543       1   63504   63480   63507   63549       1
   63498   63534   63600   63660       1   63498   63537   63606   63663       1
   63495   63528   63588   63651       1   63495   63531   63594   63654       1
   63489   63522   63576   63642       1   63489   63525   63582   63645       1
   63486   63516   63564   63630       1   63486   63519   63570   63636       1
   63483   63510   63555   63624       1   63483   63513   63561   63627       1
   63480   63504   63540   63615       1   63480   63507   63546   63618       1
   63477   63444   63474   63501       1   63471   63441   63474   63501       1
   63471   63495   63528   63591       1   63471   63495   63531   63597       1
   63471   63498   63534   63603       1   63471   63498   63537   63609       1
   63468   63435   63465   63492       1   63462   63429   63465   63492       1
   63462   63486   63516   63567       1   63462   63486   63519   63573       1
   63462   63489   63522   63579       1   63462   63489   63525   63585       1
   63459   63480   63504   63543       1   63459   63480   63507   63549       1
   63459   63483   63510   63552       1   63459   63483   63513   63558       1
   63456   63417   63423   63459       1   63441   63474   63444   63477       1
   63438   63408   63441   63471       1   63438   63408   63441   63474       1
   63432   63402   63429   63462       1   63432   63402   63429   63465       1
   63429   63465   63435   63468       1   63426   63399   63423   63459       1
   63420   63396   63417   63423       1   63420   63396   63417   63456       1
   63417   63423   63399   63426       1   63411   63390   63408   63438       1
   63411   63405   63435   63468       1   63411   63444   63474   63501       1
   63408   63441   63474   63501       1   63405   63387   63402   63432       1
   63405   63411   63444   63477       1   63405   63435   63465   63492       1
   63402   63429   63465   63492       1   63399   63423   63417   63456       1
   63390   63411   63444   63477       1   63387   63405   63435   63468       1
   63384   63381   63396   63420       1   63381   63384   63399   63426       1
   63381   63396   63417   63456       1   63378   63357   63372   63393       1
   63375   63351   63372   63393       1   63372   63393   63414   63447       2
   63372   63393   63414   63450       2   63372   63393   63414   63453       2
   63369   63345   63363   63381       1   63366   63384   63399   63426       1
   63366   63387   63402   63432       1   63366   63390   63408   63438       1
   63363   63381   63396   63420       1   63360   63336   63357   63372       1
   63360   63336   63357   63378       1   63357   63372   63351   63375       1
   63354   63333   63351   63372       1   63354   63333   63351   63375       1
   63351   63372   63357   63378       1   63348   63330   63345   63363       1
   63348   63330   63345   63369       1   63342   63327   63339   63363       1
   63342   63327   63339   63366       1   63339   63363   63345   63369       1
   63336   63324   63333   63354       1   63333   63324   63336   63360       1
   63330   63321   63327   63342       1   63327   63321   63330   63348       1
   63324   63333   63351   63375       1   63324   63336   63357   63378       1
   63321   63330   63345   63369       1   63318   63321   63327   63342       1
   63318   63321   63330   63348       1   63318   63324   63333   63354       1
   63318   63324   63336   63360       1   63315   63303   63309   63318       1
   63312   63297   63309   63318       1   63306   63285   63303   63309       1
   63306   63285   63303   63315       1   63303   63309   63297   63312       1
   63300   63282   63297   63309       1   63300   63282   63297   63312       1
   63297   63309   63303   63315       1   63285   63276   63282   63300       1
   63282   63276   63285   63306       1   63276   63273   63279   63288       2
   63276   63273   63279   63291       2   63276   63273   63279   63294       2
   63276   63282   63297   63312       1   63276   63285   63303   63315       1
   63273   63276   63282   63300       1   63273   63276   63285   63306       1
   64146   64089   64140   64164       1   64143   64083   64140   64164       1
   64140   64164   64182   64230       2   64140   64164   64182   64233       2
   64140   64164   64182   64236       2   64137   64077   64131   64161       1
   64134   64071   64131   64161       1   64131   64161   64179   64221       2
   64131   64161   64179   64224       2   64131   64161   64179   64227       2
   64128   64065   64122   64158       1   64125   64059   64122   64158       1
   64122   64158   64176   64212       2   64122   64158   64176   64215       2
   64122   64158   64176   64218       2   64119   64053   64116   64155       1
   64116   64155   64173   64203       2   64116   64155   64173   64206       2
   64116   64155   64173   64209       2   64113   64047   64116   64155       1
   64110   64044   64104   64152       1   64107   64038   64104   64152       1
   64104   64152   64170   64194       2   64104   64152   64170   64197       2
   64104   64152   64170   64200       2   64101   64029   64095   64149       1
   64098   64023   64095   64149       1   64095   64149   64167   64185       2
   64095   64149   64167   64188       2   64095   64149   64167   64191       2
   64092   64020   64089   64140       1   64092   64020   64089   64146       1
   64089   64140   64083   64143       1   64086   64017   64083   64140       1
   64086   64017   64083   64143       1   64083   64140   64089   64146       1
   64080   64014   64077   64131       1   64080   64014   64077   64137       1
   64077   64131   64071   64134       1   64074   64011   64071   64131       1
   64074   64011   64071   64134       1   64071   64131   64077   64137       1
   64068   64008   64065   64122       1   64068   64008   64065   64128       1
   64065   64122   64059   64125       1   64062   64005   64059   64122       1
   64062   64005   64059   64125       1   64059   64122   64065   64128       1
   64056   64002   64053   64116       1   64056   64002   64053   64119       1
   64053   64116   64047   64113       1   64050   63999   64047   64113       1
   64050   63999   64047   64116       1   64047   64116   64053   64119       1
   64044   64104   64038   64107       1   64041   63996   64044   64104       1
   64041   63996   64044   64110       1   64038   64104   64044   64110       1
   64035   63993   64038   64104       1   64035   63993   64038   64107       1
   64032   63990   64029   64095       1   64032   63990   64029   64101       1
   64029   64095   64023   64098       1   64026   63987   64023   64095       1
   64026   63987   64023   64098       1   64023   64095   64029   64101       1
   64020   63981   64017   64086       1   64017   63981   64020   64092       1
   64014   63978   64011   64074       1   64011   63978   64014   64080       1
   64008   63972   64005   64062       1   64005   63972   64008   64068       1
   64002   63969   63999   64050       1   63999   63969   64002   64056       1
   63996   63966   63993   64035       1   63993   63966   63996   64041       1
   63990   63963   63987   64026       1   63987   63963   63990   64032       1
   63981   64017   64083   64143       1   63981   64020   64089   64146       1
   63978   64011   64071   64134       1   63978   64014   64077   64137       1
   63972   64005   64059   64125       1   63972   64008   64065   64128       1
   63969   63999   64047   64113       1   63969   64002   64053   64119       1
   63966   63993   64038   64107       1   63966   63996   64044   64110       1
   63963   63987   64023   64098       1   63963   63990   64029   64101       1
   63960   63927   63957   63984       1   63954   63924   63957   63984       1
   63954   63978   64011   64074       1   63954   63978   64014   64080       1
   63954   63981   64017   64086       1   63954   63981   64020   64092       1
   63951   63918   63948   63975       1   63945   63912   63948   63975       1
   63945   63969   63999   64050       1   63945   63969   64002   64056       1
   63945   63972   64005   64062       1   63945   63972   64008   64068       1
   63942   63963   63987   64026       1   63942   63963   63990   64032       1
   63942   63966   63993   64035       1   63942   63966   63996   64041       1
   63939   63900   63906   63942       1   63924   63957   63927   63960       1
   63921   63891   63924   63954       1   63921   63891   63924   63957       1
   63915   63885   63912   63945       1   63915   63885   63912   63948       1
   63912   63948   63918   63951       1   63909   63882   63906   63942       1
   63903   63879   63900   63906       1   63903   63879   63900   63939       1
   63900   63906   63882   63909       1   63894   63873   63891   63921       1
   63894   63888   63918   63951       1   63894   63927   63957   63984       1
   63891   63924   63957   63984       1   63888   63870   63885   63915       1
   63888   63894   63927   63960       1   63888   63918   63948   63975       1
   63885   63912   63948   63975       1   63882   63906   63900   63939       1
   63873   63894   63927   63960       1   63870   63888   63918   63951       1
   63867   63864   63879   63903       1   63864   63867   63882   63909       1
   63864   63879   63900   63939       1   63861   63840   63855   63876       1
   63858   63834   63855   63876       1   63855   63876   63897   63930       2
   63855   63876   63897   63933       2   63855   63876   63897   63936       2
   63852   63828   63846   63864       1   63849   63867   63882   63909       1
   63849   63870   63885   63915       1   63849   63873   63891   63921       1
   63846   63864   63879   63903       1   63843   63819   63840   63855       1
   63843   63819   63840   63861       1   63840   63855   63834   63858       1
   63837   63816   63834   63855       1   63837   63816   63834   63858       1
   63834   63855   63840   63861       1   63831   63813   63828   63846       1
   63831   63813   63828   63852       1   63825   63810   63822   63846       1
   63825   63810   63822   63849       1   63822   63846   63828   63852       1
   63819   63807   63816   63837       1   63816   63807   63819   63843       1
   63813   63804   63810   63825       1   63810   63804   63813   63831       1
   63807   63816   63834   63858       1   63807   63819   63840   63861       1
   63804   63813   63828   63852       1   63801   63804   63810   63825       1
   63801   63804   63813   63831       1   63801   63807   63816   63837       1
   63801   63807   63819   63843       1   63798   63786   63792   63801       1
   63795   63780   63792   63801       1   63789   63768   63786   63792       1
   63789   63768   63786   63798       1   63786   63792   63780   63795       1
   63783   63765   63780   63792       1   63783   63765   63780   63795       1
   63780   63792   63786   63798       1   63768   63759   63765   63783       1
   63765   63759   63768   63789       1   63759   63756   63762   63771       2
   63759   63756   63762   63774       2   63759   63756   63762   63777       2
   63759   63765   63780   63795       1   63759   63768   63786   63798       1
   63756   63759   63765   63783       1   63756   63759   63768   63789       1
   64629   64572   64623   64647       1   64626   64566   64623   64647       1
   64623   64647   64665   64713       2   64623   64647   64665   64716       2
   64623   64647   64665   64719       2   64620   64560   64614   64644       1
   64617   64554   64614   64644       1   64614   64644   64662   64704       2
   64614   64644   64662   64707       2   64614   64644   64662   64710       2
   64611   64548   64605   64641       1   64608   64542   64605   64641       1
   64605   64641   64659   64695       2   64605   64641   64659   64698       2
   64605   64641   64659   64701       2   64602   64536   64599   64638       1
   64599   64638   64656   64686       2   64599   64638   64656   64689       2
   64599   64638   64656   64692       2   64596   64530   64599   64638       1
   64593   64527   64587   64635       1   64590   64521   64587   64635       1
   64587   64635   64653   64677       2   64587   64635   64653   64680       2
   64587   64635   64653   64683       2   64584   64512   64578   64632       1
   64581   64506   64578   64632       1   64578   64632   64650   64668       2
   64578   64632   64650   64671       2   64578   64632   64650   64674       2
   64575   64503   64572   64623       1   64575   64503   64572   64629       1
   64572   64623   64566   64626       1   64569   64500   64566   64623       1
   64569   64500   64566   64626       1   64566   64623   64572   64629       1
   64563   64497   64560   64614       1   64563   64497   64560   64620       1
   64560   64614   64554   64617       1   64557   64494   64554   64614       1
   64557   64494   64554   64617       1   64554   64614   64560   64620       1
   64551   64491   64548   64605       1   64551   64491   64548   64611       1
   64548   64605   64542   64608       1   64545   64488   64542   64605       1
   64545   64488   64542   64608       1   64542   64605   64548   64611       1
   64539   64485   64536   64599       1   64539   64485   64536   64602       1
   64536   64599   64530   64596       1   64533   64482   64530   64596       1
   64533   64482   64530   64599       1   64530   64599   64536   64602       1
   64527   64587   64521   64590       1   64524   64479   64527   64587       1
   64524   64479   64527   64593       1   64521   64587   64527   64593       1
   64518   64476   64521   64587       1   64518   64476   64521   64590       1
   64515   64473   64512   64578       1   64515   64473   64512   64584       1
   64512   64578   64506   64581       1   64509   64470   64506   64578       1
   64509   64470   64506   64581       1   64506   64578   64512   64584       1
   64503   64464   64500   64569       1   64500   64464   64503   64575       1
   64497   64461   64494   64557       1   64494   64461   64497   64563       1
   64491   64455   64488   64545       1   64488   64455   64491   64551       1
   64485   64452   64482   64533       1   64482   64452   64485   64539       1
   64479   64449   64476   64518       1   64476   64449   64479   64524       1
   64473   64446   64470   64509       1   64470   64446   64473   64515       1
   64464   64500   64566   64626       1   64464   64503   64572   64629       1
   64461   64494   64554   64617       1   64461   64497   64560   64620       1
   64455   64488   64542   64608       1   64455   64491   64548   64611       1
   64452   64482   64530   64596       1   64452   64485   64536   64602       1
   64449   64476   64521   64590       1   64449   64479   64527   64593       1
   64446   64470   64506   64581       1   64446   64473   64512   64584       1
   64443   64410   64440   64467       1   64437   64407   64440   64467       1
   64437   64461   64494   64557       1   64437   64461   64497   64563       1
   64437   64464   64500   64569       1   64437   64464   64503   64575       1
   64434   64401   64431   64458       1   64428   64395   64431   64458       1
   64428   64452   64482   64533       1   64428   64452   64485   64539       1
   64428   64455   64488   64545       1   64428   64455   64491   64551       1
   64425   64446   64470   64509       1   64425   64446   64473   64515       1
   64425   64449   64476   64518       1   64425   64449   64479   64524       1
   64422   64383   64389   64425       1   64407   64440   64410   64443       1
   64404   64374   64407   64437       1   64404   64374   64407   64440       1
   64398   64368   64395   64428       1   64398   64368   64395   64431       1
   64395   64431   64401   64434       1   64392   64365   64389   64425       1
   64386   64362   64383   64389       1   64386   64362   64383   64422       1
   64383   64389   64365   64392       1   64377   64356   64374   64404       1
   64377   64371   64401   64434       1   64377   64410   64440   64467       1
   64374   64407   64440   64467       1   64371   64353   64368   64398       1
   64371   64377   64410   64443       1   64371   64401   64431   64458       1
   64368   64395   64431   64458       1   64365   64389   64383   64422       1
   64356   64377   64410   64443       1   64353   64371   64401   64434       1
   64350   64347   64362   64386       1   64347   64350   64365   64392       1
   64347   64362   64383   64422       1   64344   64323   64338   64359       1
   64341   64317   64338   64359       1   64338   64359   64380   64413       2
   64338   64359   64380   64416       2   64338   64359   64380   64419       2
   64335   64311   64329   64347       1   64332   64350   64365   64392       1
   64332   64353   64368   64398       1   64332   64356   64374   64404       1
   64329   64347   64362   64386       1   64326   64302   64323   64338       1
   64326   64302   64323   64344       1   64323   64338   64317   64341       1
   64320   64299   64317   64338       1   64320   64299   64317   64341       1
   64317   64338   64323   64344       1   64314   64296   64311   64329       1
   64314   64296   64311   64335       1   64308   64293   64305   64329       1
   64308   64293   64305   64332       1   64305   64329   64311   64335       1
   64302   64290   64299   64320       1   64299   64290   64302   64326       1
   64296   64287   64293   64308       1   64293   64287   64296   64314       1
   64290   64299   64317   64341       1   64290   64302   64323   64344       1
   64287   64296   64311   64335       1   64284   64287   64293   64308       1
   64284   64287   64296   64314       1   64284   64290   64299   64320       1
   64284   64290   64302   64326       1   64281   64269   64275   64284       1
   64278   64263   64275   64284       1   64272   64251   64269   64275       1
   64272   64251   64269   64281       1   64269   64275   64263   64278       1
   64266   64248   64263   64275       1   64266   64248   64263   64278       1
   64263   64275   64269   64281       1   64251   64242   64248   64266       1
   64248   64242   64251   64272       1   64242   64239   64245   64254       2
   64242   64239   64245   64257       2   64242   64239   64245   64260       2
   64242   64248   64263   64278       1   64242   64251   64269   64281       1
   64239   64242   64248   64266       1   64239   64242   64251   64272       1
   65112   65055   65106   65130       1   65109   65049   65106   65130       1
   65106   65130   65148   65196       2   65106   65130   65148   65199       2
   65106   65130   65148   65202       2   65103   65043   65097   65127       1
   65100   65037   65097   65127       1   65097   65127   65145   65187       2
   65097   65127   65145   65190       2   65097   65127   65145   65193       2
   65094   65031   65088   65124       1   65091   65025   65088   65124       1
   65088   65124   65142   65178       2   65088   65124   65142   65181       2
   65088   65124   65142   65184       2   65085   65019   65082   65121       1
   65082   65121   65139   65169       2   65082   65121   65139   65172       2
   65082   65121   65139   65175       2   65079   65013   65082   65121       1
   65076   65010   65070   65118       1   65073   65004   65070   65118       1
   65070   65118   65136   65160       2   65070   65118   65136   65163       2
   65070   65118   65136   65166       2   65067   64995   65061   65115       1
   65064   64989   65061   65115       1   65061   65115   65133   65151       2
   65061   65115   65133   65154       2   65061   65115   65133   65157       2
   65058   64986   65055   65106       1   65058   64986   65055   65112       1
   65055   65106   65049   65109       1   65052   64983   65049   65106       1
   65052   64983   65049   65109       1   65049   65106   65055   65112       1
   65046   64980   65043   65097       1   65046   64980   65043   65103       1
   65043   65097   65037   65100       1   65040   64977   65037   65097       1
   65040   64977   65037   65100       1   65037   65097   65043   65103       1
   65034   64974   65031   65088       1   65034   64974   65031   65094       1
   65031   65088   65025   65091       1   65028   64971   65025   65088       1
   65028   64971   65025   65091       1   65025   65088   65031   65094       1
   65022   64968   65019   65082       1   65022   64968   65019   65085       1
   65019   65082   65013   65079       1   65016   64965   65013   65079       1
   65016   64965   65013   65082       1   65013   65082   65019   65085       1
   65010   65070   65004   65073       1   65007   64962   65010   65070       1
   65007   64962   65010   65076       1   65004   65070   65010   65076       1
   65001   64959   65004   65070       1   65001   64959   65004   65073       1
   64998   64956   64995   65061       1   64998   64956   64995   65067       1
   64995   65061   64989   65064       1   64992   64953   64989   65061       1
   64992   64953   64989   65064       1   64989   65061   64995   65067       1
   64986   64947   64983   65052       1   64983   64947   64986   65058       1
   64980   64944   64977   65040       1   64977   64944   64980   65046       1
   64974   64938   64971   65028       1   64971   64938   64974   65034       1
   64968   64935   64965   65016       1   64965   64935   64968   65022       1
   64962   64932   64959   65001       1   64959   64932   64962   65007       1
   64956   64929   64953   64992       1   64953   64929   64956   64998       1
   64947   64983   65049   65109       1   64947   64986   65055   65112       1
   64944   64977   65037   65100       1   64944   64980   65043   65103       1
   64938   64971   65025   65091       1   64938   64974   65031   65094       1
   64935   64965   65013   65079       1   64935   64968   65019   65085       1
   64932   64959   65004   65073       1   64932   64962   65010   65076       1
   64929   64953   64989   65064       1   64929   64956   64995   65067       1
   64926   64893   64923   64950       1   64920   64890   64923   64950       1
   64920   64944   64977   65040       1   64920   64944   64980   65046       1
   64920   64947   64983   65052       1   64920   64947   64986   65058       1
   64917   64884   64914   64941       1   64911   64878   64914   64941       1
   64911   64935   64965   65016       1   64911   64935   64968   65022       1
   64911   64938   64971   65028       1   64911   64938   64974   65034       1
   64908   64929   64953   64992       1   64908   64929   64956   64998       1
   64908   64932   64959   65001       1   64908   64932   64962   65007       1
   64905   64866   64872   64908       1   64890   64923   64893   64926       1
   64887   64857   64890   64920       1   64887   64857   64890   64923       1
   64881   64851   64878   64911       1   64881   64851   64878   64914       1
   64878   64914   64884   64917       1   64875   64848   64872   64908       1
   64869   64845   64866   64872       1   64869   64845   64866   64905       1
   64866   64872   64848   64875       1   64860   64839   64857   64887       1
   64860   64854   64884   64917       1   64860   64893   64923   64950       1
   64857   64890   64923   64950       1   64854   64836   64851   64881       1
   64854   64860   64893   64926       1   64854   64884   64914   64941       1
   64851   64878   64914   64941       1   64848   64872   64866   64905       1
   64839   64860   64893   64926       1   64836   64854   64884   64917       1
   64833   64830   64845   64869       1   64830   64833   64848   64875       1
   64830   64845   64866   64905       1   64827   64806   64821   64842       1
   64824   64800   64821   64842       1   64821   64842   64863   64896       2
   64821   64842   64863   64899       2   64821   64842   64863   64902       2
   64818   64794   64812   64830       1   64815   64833   64848   64875       1
   64815   64836   64851   64881       1   64815   64839   64857   64887       1
   64812   64830   64845   64869       1   64809   64785   64806   64821       1
   64809   64785   64806   64827       1   64806   64821   64800   64824       1
   64803   64782   64800   64821       1   64803   64782   64800   64824       1
   64800   64821   64806   64827       1   64797   64779   64794   64812       1
   64797   64779   64794   64818       1   64791   64776   64788   64812       1
   64791   64776   64788   64815       1   64788   64812   64794   64818       1
   64785   64773   64782   64803       1   64782   64773   64785   64809       1
   64779   64770   64776   64791       1   64776   64770   64779   64797       1
   64773   64782   64800   64824       1   64773   64785   64806   64827       1
   64770   64779   64794   64818       1   64767   64770   64776   64791       1
   64767   64770   64779   64797       1   64767   64773   64782   64803       1
   64767   64773   64785   64809       1   64764   64752   64758   64767       1
   64761   64746   64758   64767       1   64755   64734   64752   64758       1
   64755   64734   64752   64764       1   64752   64758   64746   64761       1
   64749   64731   64746   64758       1   64749   64731   64746   64761       1
   64746   64758   64752   64764       1   64734   64725   64731   64749       1
   64731   64725   64734   64755       1   64725   64722   64728   64737       2
   64725   64722   64728   64740       2   64725   64722   64728   64743       2
   64725   64731   64746   64761       1   64725   64734   64752   64764       1
   64722   64725   64731   64749       1   64722   64725   64734   64755       1
   65595   65538   65589   65613       1   65592   65532   65589   65613       1
   65589   65613   65631   65679       2   65589   65613   65631   65682       2
   65589   65613   65631   65685       2   65586   65526   65580   65610       1
   65583   65520   65580   65610       1   65580   65610   65628   65670       2
   65580   65610   65628   65673       2   65580   65610   65628   65676       2
   65577   65514   65571   65607       1   65574   65508   65571   65607       1
   65571   65607   65625   65661       2   65571   65607   65625   65664       2
   65571   65607   65625   65667       2   65568   65502   65565   65604       1
   65565   65604   65622   65652       2   65565   65604   65622   65655       2
   65565   65604   65622   65658       2   65562   65496   65565   65604       1
   65559   65493   65553   65601       1   65556   65487   65553   65601       1
   65553   65601   65619   65643       2   65553   65601   65619   65646       2
   65553   65601   65619   65649       2   65550   65478   65544   65598       1
   65547   65472   65544   65598       1   65544   65598   65616   65634       2
   65544   65598   65616   65637       2   65544   65598   65616   65640       2
   65541   65469   65538   65589       1   65541   65469   65538   65595       1
   65538   65589   65532   65592       1   65535   65466   65532   65589       1
   65535   65466   65532   65592       1   65532   65589   65538   65595       1
   65529   65463   65526   65580       1   65529   65463   65526   65586       1
   65526   65580   65520   65583       1   65523   65460   65520   65580       1
   65523   65460   65520   65583       1   65520   65580   65526   65586       1
   65517   65457   65514   65571       1   65517   65457   65514   65577       1
   65514   65571   65508   65574       1   65511   65454   65508   65571       1
   65511   65454   65508   65574       1   65508   65571   65514   65577       1
   65505   65451   65502   65565       1   65505   65451   65502   65568       1
   65502   65565   65496   65562       1   65499   65448   65496   65562       1
   65499   65448   65496   65565       1   65496   65565   65502   65568       1
   65493   65553   65487   65556       1   65490   65445   65493   65553       1
   65490   65445   65493   65559       1   65487   65553   65493   65559       1
   65484   65442   65487   65553       1   65484   65442   65487   65556       1
   65481   65439   65478   65544       1   65481   65439   65478   65550       1
   65478   65544   65472   65547       1   65475   65436   65472   65544       1
   65475   65436   65472   65547       1   65472   65544   65478   65550       1
   65469   65430   65466   65535       1   65466   65430   65469   65541       1
   65463   65427   65460   65523       1   65460   65427   65463   65529       1
   65457   65421   65454   65511       1   65454   65421   65457   65517       1
   65451   65418   65448   65499       1   65448   65418   65451   65505       1
   65445   65415   65442   65484       1   65442   65415   65445   65490       1
   65439   65412   65436   65475       1   65436   65412   65439   65481       1
   65430   65466   65532   65592       1   65430   65469   65538   65595       1
   65427   65460   65520   65583       1   65427   65463   65526   65586       1
   65421   65454   65508   65574       1   65421   65457   65514   65577       1
   65418   65448   65496   65562       1   65418   65451   65502   65568       1
   65415   65442   65487   65556       1   65415   65445   65493   65559       1
   65412   65436   65472   65547       1   65412   65439   65478   65550       1
   65409   65376   65406   65433       1   65403   65373   65406   65433       1
   65403   65427   65460   65523       1   65403   65427   65463   65529       1
   65403   65430   65466   65535       1   65403   65430   65469   65541       1
   65400   65367   65397   65424       1   65394   65361   65397   65424       1
   65394   65418   65448   65499       1   65394   65418   65451   65505       1
   65394   65421   65454   65511       1   65394   65421   65457   65517       1
   65391   65412   65436   65475       1   65391   65412   65439   65481       1
   65391   65415   65442   65484       1   65391   65415   65445   65490       1
   65388   65349   65355   65391       1   65373   65406   65376   65409       1
   65370   65340   65373   65403       1   65370   65340   65373   65406       1
   65364   65334   65361   65394       1   65364   65334   65361   65397       1
   65361   65397   65367   65400       1   65358   65331   65355   65391       1
   65352   65328   65349   65355       1   65352   65328   65349   65388       1
   65349   65355   65331   65358       1   65343   65322   65340   65370       1
   65343   65337   65367   65400       1   65343   65376   65406   65433       1
   65340   65373   65406   65433       1   65337   65319   65334   65364       1
   65337   65343   65376   65409       1   65337   65367   65397   65424       1
   65334   65361   65397   65424       1   65331   65355   65349   65388       1
   65322   65343   65376   65409       1   65319   65337   65367   65400       1
   65316   65313   65328   65352       1   65313   65316   65331   65358       1
   65313   65328   65349   65388       1   65310   65289   65304   65325       1
   65307   65283   65304   65325       1   65304   65325   65346   65379       2
   65304   65325   65346   65382       2   65304   65325   65346   65385       2
   65301   65277   65295   65313       1   65298   65316   65331   65358       1
   65298   65319   65334   65364       1   65298   65322   65340   65370       1
   65295   65313   65328   65352       1   65292   65268   65289   65304       1
   65292   65268   65289   65310       1   65289   65304   65283   65307       1
   65286   65265   65283   65304       1   65286   65265   65283   65307       1
   65283   65304   65289   65310       1   65280   65262   65277   65295       1
   65280   65262   65277   65301       1   65274   65259   65271   65295       1
   65274   65259   65271   65298       1   65271   65295   65277   65301       1
   65268   65256   65265   65286       1   65265   65256   65268   65292       1
   65262   65253   65259   65274       1   65259   65253   65262   65280       1
   65256   65265   65283   65307       1   65256   65268   65289   65310       1
   65253   65262   65277   65301       1   65250   65253   65259   65274       1
   65250   65253   65262   65280       1   65250   65256   65265   65286       1
   65250   65256   65268   65292       1   65247   65235   65241   65250       1
   65244   65229   65241   65250       1   65238   65217   65235   65241       1
   65238   65217   65235   65247       1   65235   65241   65229   65244       1
   65232   65214   65229   65241       1   65232   65214   65229   65244       1
   65229   65241   65235   65247       1   65217   65208   65214   65232       1
   65214   65208   65217   65238       1   65208   65205   65211   65220       2
   65208   65205   65211   65223       2   65208   65205   65211   65226       2
   65208   65214   65229   65244       1   65208   65217   65235   65247       1
   65205   65208   65214   65232       1   65205   65208   65217   65238       1
   66078   66021   66072   66096       1   66075   66015   66072   66096       1
   66072   66096   66114   66162       2   66072   66096   66114   66165       2
   66072   66096   66114   66168       2   66069   66009   66063   66093       1
   66066   66003   66063   66093       1   66063   66093   66111   66153       2
   66063   66093   66111   66156       2   66063   66093   66111   66159       2
   66060   65997   66054   66090       1   66057   65991   66054   66090       1
   66054   66090   66108   66144       2   66054   66090   66108   66147       2
   66054   66090   66108   66150       2   66051   65985   66048   66087       1
   66048   66087   66105   66135       2   66048   66087   66105   66138       2
   66048   66087   66105   66141       2   66045   65979   66048   66087       1
   66042   65976   66036   66084       1   66039   65970   66036   66084       1
   66036   66084   66102   66126       2   66036   66084   66102   66129       2
   66036   66084   66102   66132       2   66033   65961   66027   66081       1
   66030   65955   66027   66081       1   66027   66081   66099   66117       2
   66027   66081   66099   66120       2   66027   66081   66099   66123       2
   66024   65952   66021   66072       1   66024   65952   66021   66078       1
   66021   66072   66015   66075       1   66018   65949   66015   66072       1
   66018   65949   66015   66075       1   66015   66072   66021   66078       1
   66012   65946   66009   66063       1   66012   65946   66009   66069       1
   66009   66063   66003   66066       1   66006   65943   66003   66063       1
   66006   65943   66003   66066       1   66003   66063   66009   66069       1
   66000   65940   65997   66054       1   66000   65940   65997   66060       1
   65997   66054   65991   66057       1   65994   65937   65991   66054       1
   65994   65937   65991   66057       1   65991   66054   65997   66060       1
   65988   65934   65985   66048       1   65988   65934   65985   66051       1
   65985   66048   65979   66045       1   65982   65931   65979   66045       1
   65982   65931   65979   66048       1   65979   66048   65985   66051       1
   65976   66036   65970   66039       1   65973   65928   65976   66036       1
   65973   65928   65976   66042       1   65970   66036   65976   66042       1
   65967   65925   65970   66036       1   65967   65925   65970   66039       1
   65964   65922   65961   66027       1   65964   65922   65961   66033       1
   65961   66027   65955   66030       1   65958   65919   65955   66027       1
   65958   65919   65955   66030       1   65955   66027   65961   66033       1
   65952   65913   65949   66018       1   65949   65913   65952   66024       1
   65946   65910   65943   66006       1   65943   65910   65946   66012       1
   65940   65904   65937   65994       1   65937   65904   65940   66000       1
   65934   65901   65931   65982       1   65931   65901   65934   65988       1
   65928   65898   65925   65967       1   65925   65898   65928   65973       1
   65922   65895   65919   65958       1   65919   65895   65922   65964       1
   65913   65949   66015   66075       1   65913   65952   66021   66078       1
   65910   65943   66003   66066       1   65910   65946   66009   66069       1
   65904   65937   65991   66057       1   65904   65940   65997   66060       1
   65901   65931   65979   66045       1   65901   65934   65985   66051       1
   65898   65925   65970   66039       1   65898   65928   65976   66042       1
   65895   65919   65955   66030       1   65895   65922   65961   66033       1
   65892   65859   65889   65916       1   65886   65856   65889   65916       1
   65886   65910   65943   66006       1   65886   65910   65946   66012       1
   65886   65913   65949   66018       1   65886   65913   65952   66024       1
   65883   65850   65880   65907       1   65877   65844   65880   65907       1
   65877   65901   65931   65982       1   65877   65901   65934   65988       1
   65877   65904   65937   65994       1   65877   65904   65940   66000       1
   65874   65895   65919   65958       1   65874   65895   65922   65964       1
   65874   65898   65925   65967       1   65874   65898   65928   65973       1
   65871   65832   65838   65874       1   65856   65889   65859   65892       1
   65853   65823   65856   65886       1   65853   65823   65856   65889       1
   65847   65817   65844   65877       1   65847   65817   65844   65880       1
   65844   65880   65850   65883       1   65841   65814   65838   65874       1
   65835   65811   65832   65838       1   65835   65811   65832   65871       1
   65832   65838   65814   65841       1   65826   65805   65823   65853       1
   65826   65820   65850   65883       1   65826   65859   65889   65916       1
   65823   65856   65889   65916       1   65820   65802   65817   65847       1
   65820   65826   65859   65892       1   65820   65850   65880   65907       1
   65817   65844   65880   65907       1   65814   65838   65832   65871       1
   65805   65826   65859   65892       1   65802   65820   65850   65883       1
   65799   65796   65811   65835       1   65796   65799   65814   65841       1
   65796   65811   65832   65871       1   65793   65772   65787   65808       1
   65790   65766   65787   65808       1   65787   65808   65829   65862       2
   65787   65808   65829   65865       2   65787   65808   65829   65868       2
   65784   65760   65778   65796       1   65781   65799   65814   65841       1
   65781   65802   65817   65847       1   65781   65805   65823   65853       1
   65778   65796   65811   65835       1   65775   65751   65772   65787       1
   65775   65751   65772   65793       1   65772   65787   65766   65790       1
   65769   65748   65766   65787       1   65769   65748   65766   65790       1
   65766   65787   65772   65793       1   65763   65745   65760   65778       1
   65763   65745   65760   65784       1   65757   65742   65754   65778       1
   65757   65742   65754   65781       1   65754   65778   65760   65784       1
   65751   65739   65748   65769       1   65748   65739   65751   65775       1
   65745   65736   65742   65757       1   65742   65736   65745   65763       1
   65739   65748   65766   65790       1   65739   65751   65772   65793       1
   65736   65745   65760   65784       1   65733   65736   65742   65757       1
   65733   65736   65745   65763       1   65733   65739   65748   65769       1
   65733   65739   65751   65775       1   65730   65718   65724   65733       1
   65727   65712   65724   65733       1   65721   65700   65718   65724       1
   65721   65700   65718   65730       1   65718   65724   65712   65727       1
   65715   65697   65712   65724       1   65715   65697   65712   65727       1
   65712   65724   65718   65730       1   65700   65691   65697   65715       1
   65697   65691   65700   65721       1   65691   65688   65694   65703       2
   65691   65688   65694   65706       2   65691   65688   65694   65709       2
   65691   65697   65712   65727       1   65691   65700   65718   65730       1
   65688   65691   65697   65715       1   65688   65691   65700   65721       1
   66561   66504   66555   66579       1   66558   66498   66555   66579       1
   66555   66579   66597   66645       2   66555   66579   66597   66648       2
   66555   66579   66597   66651       2   66552   66492   66546   66576       1
   66549   66486   66546   66576       1   66546   66576   66594   66636       2
   66546   66576   66594   66639       2   66546   66576   66594   66642       2
   66543   66480   66537   66573       1   66540   66474   66537   66573       1
   66537   66573   66591   66627       2   66537   66573   66591   66630       2
   66537   66573   66591   66633       2   66534   66468   66531   66570       1
   66531   66570   66588   66618       2   66531   66570   66588   66621       2
   66531   66570   66588   66624       2   66528   66462   66531   66570       1
   66525   66459   66519   66567       1   66522   66453   66519   66567       1
   66519   66567   66585   66609       2   66519   66567   66585   66612       2
   66519   66567   66585   66615       2   66516   66444   66510   66564       1
   66513   66438   66510   66564       1   66510   66564   66582   66600       2
   66510   66564   66582   66603       2   66510   66564   66582   66606       2
   66507   66435   66504   66555       1   66507   66435   66504   66561       1
   66504   66555   66498   66558       1   66501   66432   66498   66555       1
   66501   66432   66498   66558       1   66498   66555   66504   66561       1
   66495   66429   66492   66546       1   66495   66429   66492   66552       1
   66492   66546   66486   66549       1   66489   66426   66486   66546       1
   66489   66426   66486   66549       1   66486   66546   66492   66552       1
   66483   66423   66480   66537       1   66483   66423   66480   66543       1
   66480   66537   66474   66540       1   66477   66420   66474   66537       1
   66477   66420   66474   66540       1   66474   66537   66480   66543       1
   66471   66417   66468   66531       1   66471   66417   66468   66534       1
   66468   66531   66462   66528       1   66465   66414   66462   66528       1
   66465   66414   66462   66531       1   66462   66531   66468   66534       1
   66459   66519   66453   66522       1   66456   66411   66459   66519       1
   66456   66411   66459   66525       1   66453   66519   66459   66525       1
   66450   66408   66453   66519       1   66450   66408   66453   66522       1
   66447   66405   66444   66510       1   66447   66405   66444   66516       1
   66444   66510   66438   66513       1   66441   66402   66438   66510       1
   66441   66402   66438   66513       1   66438   66510   66444   66516       1
   66435   66396   66432   66501       1   66432   66396   66435   66507       1
   66429   66393   66426   66489       1   66426   66393   66429   66495       1
   66423   66387   66420   66477       1   66420   66387   66423   66483       1
   66417   66384   66414   66465       1   66414   66384   66417   66471       1
   66411   66381   66408   66450       1   66408   66381   66411   66456       1
   66405   66378   66402   66441       1   66402   66378   66405   66447       1
   66396   66432   66498   66558       1   66396   66435   66504   66561       1
   66393   66426   66486   66549       1   66393   66429   66492   66552       1
   66387   66420   66474   66540       1   66387   66423   66480   66543       1
   66384   66414   66462   66528       1   66384   66417   66468   66534       1
   66381   66408   66453   66522       1   66381   66411   66459   66525       1
   66378   66402   66438   66513       1   66378   66405   66444   66516       1
   66375   66342   66372   66399       1   66369   66339   66372   66399       1
   66369   66393   66426   66489       1   66369   66393   66429   66495       1
   66369   66396   66432   66501       1   66369   66396   66435   66507       1
   66366   66333   66363   66390       1   66360   66327   66363   66390       1
   66360   66384   66414   66465       1   66360   66384   66417   66471       1
   66360   66387   66420   66477       1   66360   66387   66423   66483       1
   66357   66378   66402   66441       1   66357   66378   66405   66447       1
   66357   66381   66408   66450       1   66357   66381   66411   66456       1
   66354   66315   66321   66357       1   66339   66372   66342   66375       1
   66336   66306   66339   66369       1   66336   66306   66339   66372       1
   66330   66300   66327   66360       1   66330   66300   66327   66363       1
   66327   66363   66333   66366       1   66324   66297   66321   66357       1
   66318   66294   66315   66321       1   66318   66294   66315   66354       1
   66315   66321   66297   66324       1   66309   66288   66306   66336       1
   66309   66303   66333   66366       1   66309   66342   66372   66399       1
   66306   66339   66372   66399       1   66303   66285   66300   66330       1
   66303   66309   66342   66375       1   66303   66333   66363   66390       1
   66300   66327   66363   66390       1   66297   66321   66315   66354       1
   66288   66309   66342   66375       1   66285   66303   66333   66366       1
   66282   66279   66294   66318       1   66279   66282   66297   66324       1
   66279   66294   66315   66354       1   66276   66255   66270   66291       1
   66273   66249   66270   66291       1   66270   66291   66312   66345       2
   66270   66291   66312   66348       2   66270   66291   66312   66351       2
   66267   66243   66261   66279       1   66264   66282   66297   66324       1
   66264   66285   66300   66330       1   66264   66288   66306   66336       1
   66261   66279   66294   66318       1   66258   66234   66255   66270       1
   66258   66234   66255   66276       1   66255   66270   66249   66273       1
   66252   66231   66249   66270       1   66252   66231   66249   66273       1
   66249   66270   66255   66276       1   66246   66228   66243   66261       1
   66246   66228   66243   66267       1   66240   66225   66237   66261       1
   66240   66225   66237   66264       1   66237   66261   66243   66267       1
   66234   66222   66231   66252       1   66231   66222   66234   66258       1
   66228   66219   66225   66240       1   66225   66219   66228   66246       1
   66222   66231   66249   66273       1   66222   66234   66255   66276       1
   66219   66228   66243   66267       1   66216   66219   66225   66240       1
   66216   66219   66228   66246       1   66216   66222   66231   66252       1
   66216   66222   66234   66258       1   66213   66201   66207   66216       1
   66210   66195   66207   66216       1   66204   66183   66201   66207       1
   66204   66183   66201   66213       1   66201   66207   66195   66210       1
   66198   66180   66195   66207       1   66198   66180   66195   66210       1
   66195   66207   66201   66213       1   66183   66174   66180   66198       1
   66180   66174   66183   66204       1   66174   66171   66177   66186       2
   66174   66171   66177   66189       2   66174   66171   66177   66192       2
   66174   66180   66195   66210       1   66174   66183   66201   66213       1
   66171   66174   66180   66198       1   66171   66174   66183   66204       1
   67044   66987   67038   67062       1   67041   66981   67038   67062       1
   67038   67062   67080   67128       2   67038   67062   67080   67131       2
   67038   67062   67080   67134       2   67035   66975   67029   67059       1
   67032   66969   67029   67059       1   67029   67059   67077   67119       2
   67029   67059   67077   67122       2   67029   67059   67077   67125       2
   67026   66963   67020   67056       1   67023   66957   67020   67056       1
   67020   67056   67074   67110       2   67020   67056   67074   67113       2
   67020   67056   67074   67116       2   67017   66951   67014   67053       1
   67014   67053   67071   67101       2   67014   67053   67071   67104       2
   67014   67053   67071   67107       2   67011   66945   67014   67053       1
   67008   66942   67002   67050       1   67005   66936   67002   67050       1
   67002   67050   67068   67092       2   67002   67050   67068   67095       2
   67002   67050   67068   67098       2   66999   66927   66993   67047       1
   66996   66921   66993   67047       1   66993   67047   67065   67083       2
   66993   67047   67065   67086       2   66993   67047   67065   67089       2
   66990   66918   66987   67038       1   66990   66918   66987   67044       1
   66987   67038   66981   67041       1   66984   66915   66981   67038       1
   66984   66915   66981   67041       1   66981   67038   66987   67044       1
   66978   66912   66975   67029       1   66978   66912   66975   67035       1
   66975   67029   66969   67032       1   66972   66909   66969   67029       1
   66972   66909   66969   67032       1   66969   67029   66975   67035       1
   66966   66906   66963   67020       1   66966   66906   66963   67026       1
   66963   67020   66957   67023       1   66960   66903   66957   67020       1
   66960   66903   66957   67023       1   66957   67020   66963   67026       1
   66954   66900   66951   67014       1   66954   66900   66951   67017       1
   66951   67014   66945   67011       1   66948   66897   66945   67011       1
   66948   66897   66945   67014       1   66945   67014   66951   67017       1
   66942   67002   66936   67005       1   66939   66894   66942   67002       1
   66939   66894   66942   67008       1   66936   67002   66942   67008       1
   66933   66891   66936   67002       1   66933   66891   66936   67005       1
   66930   66888   66927   66993       1   66930   66888   66927   66999       1
   66927   66993   66921   66996       1   66924   66885   66921   66993       1
   66924   66885   66921   66996       1   66921   66993   66927   66999       1
   66918   66879   66915   66984       1   66915   66879   66918   66990       1
   66912   66876   66909   66972       1   66909   66876   66912   66978       1
   66906   66870   66903   66960       1   66903   66870   66906   66966       1
   66900   66867   66897   66948       1   66897   66867   66900   66954       1
   66894   66864   66891   66933       1   66891   66864   66894   66939       1
   66888   66861   66885   66924       1   66885   66861   66888   66930       1
   66879   66915   66981   67041       1   66879   66918   66987   67044       1
   66876   66909   66969   67032       1   66876   66912   66975   67035       1
   66870   66903   66957   67023       1   66870   66906   66963   67026       1
   66867   66897   66945   67011       1   66867   66900   66951   67017       1
   66864   66891   66936   67005       1   66864   66894   66942   67008       1
   66861   66885   66921   66996       1   66861   66888   66927   66999       1
   66858   66825   66855   66882       1   66852   66822   66855   66882       1
   66852   66876   66909   66972       1   66852   66876   66912   66978       1
   66852   66879   66915   66984       1   66852   66879   66918   66990       1
   66849   66816   66846   66873       1   66843   66810   66846   66873       1
   66843   66867   66897   66948       1   66843   66867   66900   66954       1
   66843   66870   66903   66960       1   66843   66870   66906   66966       1
   66840   66861   66885   66924       1   66840   66861   66888   66930       1
   66840   66864   66891   66933       1   66840   66864   66894   66939       1
   66837   66798   66804   66840       1   66822   66855   66825   66858       1
   66819   66789   66822   66852       1   66819   66789   66822   66855       1
   66813   66783   66810   66843       1   66813   66783   66810   66846       1
   66810   66846   66816   66849       1   66807   66780   66804   66840       1
   66801   66777   66798   66804       1   66801   66777   66798   66837       1
   66798   66804   66780   66807       1   66792   66771   66789   66819       1
   66792   66786   66816   66849       1   66792   66825   66855   66882       1
   66789   66822   66855   66882       1   66786   66768   66783   66813       1
   66786   66792   66825   66858       1   66786   66816   66846   66873       1
   66783   66810   66846   66873       1   66780   66804   66798   66837       1
   66771   66792   66825   66858       1   66768   66786   66816   66849       1
   66765   66762   66777   66801       1   66762   66765   66780   66807       1
   66762   66777   66798   66837       1   66759   66738   66753   66774       1
   66756   66732   66753   66774       1   66753   66774   66795   66828       2
   66753   66774   66795   66831       2   66753   66774   66795   66834       2
   66750   66726   66744   66762       1   66747   66765   66780   66807       1
   66747   66768   66783   66813       1   66747   66771   66789   66819       1
   66744   66762   66777   66801       1   66741   66717   66738   66753       1
   66741   66717   66738   66759       1   66738   66753   66732   66756       1
   66735   66714   66732   66753       1   66735   66714   66732   66756       1
   66732   66753   66738   66759       1   66729   66711   66726   66744       1
   66729   66711   66726   66750       1   66723   66708   66720   66744       1
   66723   66708   66720   66747       1   66720   66744   66726   66750       1
   66717   66705   66714   66735       1   66714   66705   66717   66741       1
   66711   66702   66708   66723       1   66708   66702   66711   66729       1
   66705   66714   66732   66756       1   66705   66717   66738   66759       1
   66702   66711   66726   66750       1   66699   66702   66708   66723       1
   66699   66702   66711   66729       1   66699   66705   66714   66735       1
   66699   66705   66717   66741       1   66696   66684   66690   66699       1
   66693   66678   66690   66699       1   66687   66666   66684   66690       1
   66687   66666   66684   66696       1   66684   66690   66678   66693       1
   66681   66663   66678   66690       1   66681   66663   66678   66693       1
   66678   66690   66684   66696       1   66666   66657   66663   66681       1
   66663   66657   66666   66687       1   66657   66654   66660   66669       2
   66657   66654   66660   66672       2   66657   66654   66660   66675       2
   66657   66663   66678   66693       1   66657   66666   66684   66696       1
   66654   66657   66663   66681       1   66654   66657   66666   66687       1
   67527   67470   67521   67545       1   67524   67464   67521   67545       1
   67521   67545   67563   67611       2   67521   67545   67563   67614       2
   67521   67545   67563   67617       2   67518   67458   67512   67542       1
   67515   67452   67512   67542       1   67512   67542   67560   67602       2
   67512   67542   67560   67605       2   67512   67542   67560   67608       2
   67509   67446   67503   67539       1   67506   67440   67503   67539       1
   67503   67539   67557   67593       2   67503   67539   67557   67596       2
   67503   67539   67557   67599       2   67500   67434   67497   67536       1
   67497   67536   67554   67584       2   67497   67536   67554   67587       2
   67497   67536   67554   67590       2   67494   67428   67497   67536       1
   67491   67425   67485   67533       1   67488   67419   67485   67533       1
   67485   67533   67551   67575       2   67485   67533   67551   67578       2
   67485   67533   67551   67581       2   67482   67410   67476   67530       1
   67479   67404   67476   67530       1   67476   67530   67548   67566       2
   67476   67530   67548   67569       2   67476   67530   67548   67572       2
   67473   67401   67470   67521       1   67473   67401   67470   67527       1
   67470   67521   67464   67524       1   67467   67398   67464   67521       1
   67467   67398   67464   67524       1   67464   67521   67470   67527       1
   67461   67395   67458   67512       1   67461   67395   67458   67518       1
   67458   67512   67452   67515       1   67455   67392   67452   67512       1
   67455   67392   67452   67515       1   67452   67512   67458   67518       1
   67449   67389   67446   67503       1   67449   67389   67446   67509       1
   67446   67503   67440   67506       1   67443   67386   67440   67503       1
   67443   67386   67440   67506       1   67440   67503   67446   67509       1
   67437   67383   67434   67497       1   67437   67383   67434   67500       1
   67434   67497   67428   67494       1   67431   67380   67428   67494       1
   67431   67380   67428   67497       1   67428   67497   67434   67500       1
   67425   67485   67419   67488       1   67422   67377   67425   67485       1
   67422   67377   67425   67491       1   67419   67485   67425   67491       1
   67416   67374   67419   67485       1   67416   67374   67419   67488       1
   67413   67371   67410   67476       1   67413   67371   67410   67482       1
   67410   67476   67404   67479       1   67407   67368   67404   67476       1
   67407   67368   67404   67479       1   67404   67476   67410   67482       1
   67401   67362   67398   67467       1   67398   67362   67401   67473       1
   67395   67359   67392   67455       1   67392   67359   67395   67461       1
   67389   67353   67386   67443       1   67386   67353   67389   67449       1
   67383   67350   67380   67431       1   67380   67350   67383   67437       1
   67377   67347   67374   67416       1   67374   67347   67377   67422       1
   67371   67344   67368   67407       1   67368   67344   67371   67413       1
   67362   67398   67464   67524       1   67362   67401   67470   67527       1
   67359   67392   67452   67515       1   67359   67395   67458   67518       1
   67353   67386   67440   67506       1   67353   67389   67446   67509       1
   67350   67380   67428   67494       1   67350   67383   67434   67500       1
   67347   67374   67419   67488       1   67347   67377   67425   67491       1
   67344   67368   67404   67479       1   67344   67371   67410   67482       1
   67341   67308   67338   67365       1   67335   67305   67338   67365       1
   67335   67359   67392   67455       1   67335   67359   67395   67461       1
   67335   67362   67398   67467       1   67335   67362   67401   67473       1
   67332   67299   67329   67356       1   67326   67293   67329   67356       1
   67326   67350   67380   67431       1   67326   67350   67383   67437       1
   67326   67353   67386   67443       1   67326   67353   67389   67449       1
   67323   67344   67368   67407       1   67323   67344   67371   67413       1
   67323   67347   67374   67416       1   67323   67347   67377   67422       1
   67320   67281   67287   67323       1   67305   67338   67308   67341       1
   67302   67272   67305   67335       1   67302   67272   67305   67338       1
   67296   67266   67293   67326       1   67296   67266   67293   67329       1
   67293   67329   67299   67332       1   67290   67263   67287   67323       1
   67284   67260   67281   67287       1   67284   67260   67281   67320       1
   67281   67287   67263   67290       1   67275   67254   67272   67302       1
   67275   67269   67299   67332       1   67275   67308   67338   67365       1
   67272   67305   67338   67365       1   67269   67251   67266   67296       1
   67269   67275   67308   67341       1   67269   67299   67329   67356       1
   67266   67293   67329   67356       1   67263   67287   67281   67320       1
   67254   67275   67308   67341       1   67251   67269   67299   67332       1
   67248   67245   67260   67284       1   67245   67248   67263   67290       1
   67245   67260   67281   67320       1   67242   67221   67236   67257       1
   67239   67215   67236   67257       1   67236   67257   67278   67311       2
   67236   67257   67278   67314       2   67236   67257   67278   67317       2
   67233   67209   67227   67245       1   67230   67248   67263   67290       1
   67230   67251   67266   67296       1   67230   67254   67272   67302       1
   67227   67245   67260   67284       1   67224   67200   67221   67236       1
   67224   67200   67221   67242       1   67221   67236   67215   67239       1
   67218   67197   67215   67236       1   67218   67197   67215   67239       1
   67215   67236   67221   67242       1   67212   67194   67209   67227       1
   67212   67194   67209   67233       1   67206   67191   67203   67227       1
   67206   67191   67203   67230       1   67203   67227   67209   67233       1
   67200   67188   67197   67218       1   67197   67188   67200   67224       1
   67194   67185   67191   67206       1   67191   67185   67194   67212       1
   67188   67197   67215   67239       1   67188   67200   67221   67242       1
   67185   67194   67209   67233       1   67182   67185   67191   67206       1
   67182   67185   67194   67212       1   67182   67188   67197   67218       1
   67182   67188   67200   67224       1   67179   67167   67173   67182       1
   67176   67161   67173   67182       1   67170   67149   67167   67173       1
   67170   67149   67167   67179       1   67167   67173   67161   67176       1
   67164   67146   67161   67173       1   67164   67146   67161   67176       1
   67161   67173   67167   67179       1   67149   67140   67146   67164       1
   67146   67140   67149   67170       1   67140   67137   67143   67152       2
   67140   67137   67143   67155       2   67140   67137   67143   67158       2
   67140   67146   67161   67176       1   67140   67149   67167   67179       1
   67137   67140   67146   67164       1   67137   67140   67149   67170       1
   68010   67953   68004   68028       1   68007   67947   68004   68028       1
   68004   68028   68046   68094       2   68004   68028   68046   68097       2
   68004   68028   68046   68100       2   68001   67941   67995   68025       1
   67998   67935   67995   68025       1   67995   68025   68043   68085       2
   67995   68025   68043   68088       2   67995   68025   68043   68091       2
   67992   67929   67986   68022       1   67989   67923   67986   68022       1
   67986   68022   68040   68076       2   67986   68022   68040   68079       2
   67986   68022   68040   68082       2   67983   67917   67980   68019       1
   67980   68019   68037   68067       2   67980   68019   68037   68070       2
   67980   68019   68037   68073       2   67977   67911   67980   68019       1
   67974   67908   67968   68016       1   67971   67902   67968   68016       1
   67968   68016   68034   68058       2   67968   68016   68034   68061       2
   67968   68016   68034   68064       2   67965   67893   67959   68013       1
   67962   67887   67959   68013       1   67959   68013   68031   68049       2
   67959   68013   68031   68052       2   67959   68013   68031   68055       2
   67956   67884   67953   68004       1   67956   67884   67953   68010       1
   67953   68004   67947   68007       1   67950   67881   67947   68004       1
   67950   67881   67947   68007       1   67947   68004   67953   68010       1
   67944   67878   67941   67995       1   67944   67878   67941   68001       1
   67941   67995   67935   67998       1   67938   67875   67935   67995       1
   67938   67875   67935   67998       1   67935   67995   67941   68001       1
   67932   67872   67929   67986       1   67932   67872   67929   67992       1
   67929   67986   67923   67989       1   67926   67869   67923   67986       1
   67926   67869   67923   67989       1   67923   67986   67929   67992       1
   67920   67866   67917   67980       1   67920   67866   67917   67983       1
   67917   67980   67911   67977       1   67914   67863   67911   67977       1
   67914   67863   67911   67980       1   67911   67980   67917   67983       1
   67908   67968   67902   67971       1   67905   67860   67908   67968       1
   67905   67860   67908   67974       1   67902   67968   67908   67974       1
   67899   67857   67902   67968       1   67899   67857   67902   67971       1
   67896   67854   67893   67959       1   67896   67854   67893   67965       1
   67893   67959   67887   67962       1   67890   67851   67887   67959       1
   67890   67851   67887   67962       1   67887   67959   67893   67965       1
   67884   67845   67881   67950       1   67881   67845   67884   67956       1
   67878   67842   67875   67938       1   67875   67842   67878   67944       1
   67872   67836   67869   67926       1   67869   67836   67872   67932       1
   67866   67833   67863   67914       1   67863   67833   67866   67920       1
   67860   67830   67857   67899       1   67857   67830   67860   67905       1
   67854   67827   67851   67890       1   67851   67827   67854   67896       1
   67845   67881   67947   68007       1   67845   67884   67953   68010       1
   67842   67875   67935   67998       1   67842   67878   67941   68001       1
   67836   67869   67923   67989       1   67836   67872   67929   67992       1
   67833   67863   67911   67977       1   67833   67866   67917   67983       1
   67830   67857   67902   67971       1   67830   67860   67908   67974       1
   67827   67851   67887   67962       1   67827   67854   67893   67965       1
   67824   67791   67821   67848       1   67818   67788   67821   67848       1
   67818   67842   67875   67938       1   67818   67842   67878   67944       1
   67818   67845   67881   67950       1   67818   67845   67884   67956       1
   67815   67782   67812   67839       1   67809   67776   67812   67839       1
   67809   67833   67863   67914       1   67809   67833   67866   67920       1
   67809   67836   67869   67926       1   67809   67836   67872   67932       1
   67806   67827   67851   67890       1   67806   67827   67854   67896       1
   67806   67830   67857   67899       1   67806   67830   67860   67905       1
   67803   67764   67770   67806       1   67788   67821   67791   67824       1
   67785   67755   67788   67818       1   67785   67755   67788   67821       1
   67779   67749   67776   67809       1   67779   67749   67776   67812       1
   67776   67812   67782   67815       1   67773   67746   67770   67806       1
   67767   67743   67764   67770       1   67767   67743   67764   67803       1
   67764   67770   67746   67773       1   67758   67737   67755   67785       1
   67758   67752   67782   67815       1   67758   67791   67821   67848       1
   67755   67788   67821   67848       1   67752   67734   67749   67779       1
   67752   67758   67791   67824       1   67752   67782   67812   67839       1
   67749   67776   67812   67839       1   67746   67770   67764   67803       1
   67737   67758   67791   67824       1   67734   67752   67782   67815       1
   67731   67728   67743   67767       1   67728   67731   67746   67773       1
   67728   67743   67764   67803       1   67725   67704   67719   67740       1
   67722   67698   67719   67740       1   67719   67740   67761   67794       2
   67719   67740   67761   67797       2   67719   67740   67761   67800       2
   67716   67692   67710   67728       1   67713   67731   67746   67773       1
   67713   67734   67749   67779       1   67713   67737   67755   67785       1
   67710   67728   67743   67767       1   67707   67683   67704   67719       1
   67707   67683   67704   67725       1   67704   67719   67698   67722       1
   67701   67680   67698   67719       1   67701   67680   67698   67722       1
   67698   67719   67704   67725       1   67695   67677   67692   67710       1
   67695   67677   67692   67716       1   67689   67674   67686   67710       1
   67689   67674   67686   67713       1   67686   67710   67692   67716       1
   67683   67671   67680   67701       1   67680   67671   67683   67707       1
   67677   67668   67674   67689       1   67674   67668   67677   67695       1
   67671   67680   67698   67722       1   67671   67683   67704   67725       1
   67668   67677   67692   67716       1   67665   67668   67674   67689       1
   67665   67668   67677   67695       1   67665   67671   67680   67701       1
   67665   67671   67683   67707       1   67662   67650   67656   67665       1
   67659   67644   67656   67665       1   67653   67632   67650   67656       1
   67653   67632   67650   67662       1   67650   67656   67644   67659       1
   67647   67629   67644   67656       1   67647   67629   67644   67659       1
   67644   67656   67650   67662       1   67632   67623   67629   67647       1
   67629   67623   67632   67653       1   67623   67620   67626   67635       2
   67623   67620   67626   67638       2   67623   67620   67626   67641       2
   67623   67629   67644   67659       1   67623   67632   67650   67662       1
   67620   67623   67629   67647       1   67620   67623   67632   67653       1
   68493   68436   68487   68511       1   68490   68430   68487   68511       1
   68487   68511   68529   68577       2   68487   68511   68529   68580       2
   68487   68511   68529   68583       2   68484   68424   68478   68508       1
   68481   68418   68478   68508       1   68478   68508   68526   68568       2
   68478   68508   68526   68571       2   68478   68508   68526   68574       2
   68475   68412   68469   68505       1   68472   68406   68469   68505       1
   68469   68505   68523   68559       2   68469   68505   68523   68562       2
   68469   68505   68523   68565       2   68466   68400   68463   68502       1
   68463   68502   68520   68550       2   68463   68502   68520   68553       2
   68463   68502   68520   68556       2   68460   68394   68463   68502       1
   68457   68391   68451   68499       1   68454   68385   68451   68499       1
   68451   68499   68517   68541       2   68451   68499   68517   68544       2
   68451   68499   68517   68547       2   68448   68376   68442   68496       1
   68445   68370   68442   68496       1   68442   68496   68514   68532       2
   68442   68496   68514   68535       2   68442   68496   68514   68538       2
   68439   68367   68436   68487       1   68439   68367   68436   68493       1
   68436   68487   68430   68490       1   68433   68364   68430   68487       1
   68433   68364   68430   68490       1   68430   68487   68436   68493       1
   68427   68361   68424   68478       1   68427   68361   68424   68484       1
   68424   68478   68418   68481       1   68421   68358   68418   68478       1
   68421   68358   68418   68481       1   68418   68478   68424   68484       1
   68415   68355   68412   68469       1   68415   68355   68412   68475       1
   68412   68469   68406   68472       1   68409   68352   68406   68469       1
   68409   68352   68406   68472       1   68406   68469   68412   68475       1
   68403   68349   68400   68463       1   68403   68349   68400   68466       1
   68400   68463   68394   68460       1   68397   68346   68394   68460       1
   68397   68346   68394   68463       1   68394   68463   68400   68466       1
   68391   68451   68385   68454       1   68388   68343   68391   68451       1
   68388   68343   68391   68457       1   68385   68451   68391   68457       1
   68382   68340   68385   68451       1   68382   68340   68385   68454       1
   68379   68337   68376   68442       1   68379   68337   68376   68448       1
   68376   68442   68370   68445       1   68373   68334   68370   68442       1
   68373   68334   68370   68445       1   68370   68442   68376   68448       1
   68367   68328   68364   68433       1   68364   68328   68367   68439       1
   68361   68325   68358   68421       1   68358   68325   68361   68427       1
   68355   68319   68352   68409       1   68352   68319   68355   68415       1
   68349   68316   68346   68397       1   68346   68316   68349   68403       1
   68343   68313   68340   68382       1   68340   68313   68343   68388       1
   68337   68310   68334   68373       1   68334   68310   68337   68379       1
   68328   68364   68430   68490       1   68328   68367   68436   68493       1
   68325   68358   68418   68481       1   68325   68361   68424   68484       1
   68319   68352   68406   68472       1   68319   68355   68412   68475       1
   68316   68346   68394   68460       1   68316   68349   68400   68466       1
   68313   68340   68385   68454       1   68313   68343   68391   68457       1
   68310   68334   68370   68445       1   68310   68337   68376   68448       1
   68307   68274   68304   68331       1   68301   68271   68304   68331       1
   68301   68325   68358   68421       1   68301   68325   68361   68427       1
   68301   68328   68364   68433       1   68301   68328   68367   68439       1
   68298   68265   68295   68322       1   68292   68259   68295   68322       1
   68292   68316   68346   68397       1   68292   68316   68349   68403       1
   68292   68319   68352   68409       1   68292   68319   68355   68415       1
   68289   68310   68334   68373       1   68289   68310   68337   68379       1
   68289   68313   68340   68382       1   68289   68313   68343   68388       1
   68286   68247   68253   68289       1   68271   68304   68274   68307       1
   68268   68238   68271   68301       1   68268   68238   68271   68304       1
   68262   68232   68259   68292       1   68262   68232   68259   68295       1
   68259   68295   68265   68298       1   68256   68229   68253   68289       1
   68250   68226   68247   68253       1   68250   68226   68247   68286       1
   68247   68253   68229   68256       1   68241   68220   68238   68268       1
   68241   68235   68265   68298       1   68241   68274   68304   68331       1
   68238   68271   68304   68331       1   68235   68217   68232   68262       1
   68235   68241   68274   68307       1   68235   68265   68295   68322       1
   68232   68259   68295   68322       1   68229   68253   68247   68286       1
   68220   68241   68274   68307       1   68217   68235   68265   68298       1
   68214   68211   68226   68250       1   68211   68214   68229   68256       1
   68211   68226   68247   68286       1   68208   68187   68202   68223       1
   68205   68181   68202   68223       1   68202   68223   68244   68277       2
   68202   68223   68244   68280       2   68202   68223   68244   68283       2
   68199   68175   68193   68211       1   68196   68214   68229   68256       1
   68196   68217   68232   68262       1   68196   68220   68238   68268       1
   68193   68211   68226   68250       1   68190   68166   68187   68202       1
   68190   68166   68187   68208       1   68187   68202   68181   68205       1
   68184   68163   68181   68202       1   68184   68163   68181   68205       1
   68181   68202   68187   68208       1   68178   68160   68175   68193       1
   68178   68160   68175   68199       1   68172   68157   68169   68193       1
   68172   68157   68169   68196       1   68169   68193   68175   68199       1
   68166   68154   68163   68184       1   68163   68154   68166   68190       1
   68160   68151   68157   68172       1   68157   68151   68160   68178       1
   68154   68163   68181   68205       1   68154   68166   68187   68208       1
   68151   68160   68175   68199       1   68148   68151   68157   68172       1
   68148   68151   68160   68178       1   68148   68154   68163   68184       1
   68148   68154   68166   68190       1   68145   68133   68139   68148       1
   68142   68127   68139   68148       1   68136   68115   68133   68139       1
   68136   68115   68133   68145       1   68133   68139   68127   68142       1
   68130   68112   68127   68139       1   68130   68112   68127   68142       1
   68127   68139   68133   68145       1   68115   68106   68112   68130       1
   68112   68106   68115   68136       1   68106   68103   68109   68118       2
   68106   68103   68109   68121       2   68106   68103   68109   68124       2
   68106   68112   68127   68142       1   68106   68115   68133   68145       1
   68103   68106   68112   68130       1   68103   68106   68115   68136       1
   68976   68919   68970   68994       1   68973   68913   68970   68994       1
   68970   68994   69012   69060       2   68970   68994   69012   69063       2
   68970   68994   69012   69066       2   68967   68907   68961   68991       1
   68964   68901   68961   68991       1   68961   68991   69009   69051       2
   68961   68991   69009   69054       2   68961   68991   69009   69057       2
   68958   68895   68952   68988       1   68955   68889   68952   68988       1
   68952   68988   69006   69042       2   68952   68988   69006   69045       2
   68952   68988   69006   69048       2   68949   68883   68946   68985       1
   68946   68985   69003   69033       2   68946   68985   69003   69036       2
   68946   68985   69003   69039       2   68943   68877   68946   68985       1
   68940   68874   68934   68982       1   68937   68868   68934   68982       1
   68934   68982   69000   69024       2   68934   68982   69000   69027       2
   68934   68982   69000   69030       2   68931   68859   68925   68979       1
   68928   68853   68925   68979       1   68925   68979   68997   69015       2
   68925   68979   68997   69018       2   68925   68979   68997   69021       2
   68922   68850   68919   68970       1   68922   68850   68919   68976       1
   68919   68970   68913   68973       1   68916   68847   68913   68970       1
   68916   68847   68913   68973       1   68913   68970   68919   68976       1
   68910   68844   68907   68961       1   68910   68844   68907   68967       1
   68907   68961   68901   68964       1   68904   68841   68901   68961       1
   68904   68841   68901   68964       1   68901   68961   68907   68967       1
   68898   68838   68895   68952       1   68898   68838   68895   68958       1
   68895   68952   68889   68955       1   68892   68835   68889   68952       1
   68892   68835   68889   68955       1   68889   68952   68895   68958       1
   68886   68832   68883   68946       1   68886   68832   68883   68949       1
   68883   68946   68877   68943       1   68880   68829   68877   68943       1
   68880   68829   68877   68946       1   68877   68946   68883   68949       1
   68874   68934   68868   68937       1   68871   68826   68874   68934       1
   68871   68826   68874   68940       1   68868   68934   68874   68940       1
   68865   68823   68868   68934       1   68865   68823   68868   68937       1
   68862   68820   68859   68925       1   68862   68820   68859   68931       1
   68859   68925   68853   68928       1   68856   68817   68853   68925       1
   68856   68817   68853   68928       1   68853   68925   68859   68931       1
   68850   68811   68847   68916       1   68847   68811   68850   68922       1
   68844   68808   68841   68904       1   68841   68808   68844   68910       1
   68838   68802   68835   68892       1   68835   68802   68838   68898       1
   68832   68799   68829   68880       1   68829   68799   68832   68886       1
   68826   68796   68823   68865       1   68823   68796   68826   68871       1
   68820   68793   68817   68856       1   68817   68793   68820   68862       1
   68811   68847   68913   68973       1   68811   68850   68919   68976       1
   68808   68841   68901   68964       1   68808   68844   68907   68967       1
   68802   68835   68889   68955       1   68802   68838   68895   68958       1
   68799   68829   68877   68943       1   68799   68832   68883   68949       1
   68796   68823   68868   68937       1   68796   68826   68874   68940       1
   68793   68817   68853   68928       1   68793   68820   68859   68931       1
   68790   68757   68787   68814       1   68784   68754   68787   68814       1
   68784   68808   68841   68904       1   68784   68808   68844   68910       1
   68784   68811   68847   68916       1   68784   68811   68850   68922       1
   68781   68748   68778   68805       1   68775   68742   68778   68805       1
   68775   68799   68829   68880       1   68775   68799   68832   68886       1
   68775   68802   68835   68892       1   68775   68802   68838   68898       1
   68772   68793   68817   68856       1   68772   68793   68820   68862       1
   68772   68796   68823   68865       1   68772   68796   68826   68871       1
   68769   68730   68736   68772       1   68754   68787   68757   68790       1
   68751   68721   68754   68784       1   68751   68721   68754   68787       1
   68745   68715   68742   68775       1   68745   68715   68742   68778       1
   68742   68778   68748   68781       1   68739   68712   68736   68772       1
   68733   68709   68730   68736       1   68733   68709   68730   68769       1
   68730   68736   68712   68739       1   68724   68703   68721   68751       1
   68724   68718   68748   68781       1   68724   68757   68787   68814       1
   68721   68754   68787   68814       1   68718   68700   68715   68745       1
   68718   68724   68757   68790       1   68718   68748   68778   68805       1
   68715   68742   68778   68805       1   68712   68736   68730   68769       1
   68703   68724   68757   68790       1   68700   68718   68748   68781       1
   68697   68694   68709   68733       1   68694   68697   68712   68739       1
   68694   68709   68730   68769       1   68691   68670   68685   68706       1
   68688   68664   68685   68706       1   68685   68706   68727   68760       2
   68685   68706   68727   68763       2   68685   68706   68727   68766       2
   68682   68658   68676   68694       1   68679   68697   68712   68739       1
   68679   68700   68715   68745       1   68679   68703   68721   68751       1
   68676   68694   68709   68733       1   68673   68649   68670   68685       1
   68673   68649   68670   68691       1   68670   68685   68664   68688       1
   68667   68646   68664   68685       1   68667   68646   68664   68688       1
   68664   68685   68670   68691       1   68661   68643   68658   68676       1
   68661   68643   68658   68682       1   68655   68640   68652   68676       1
   68655   68640   68652   68679       1   68652   68676   68658   68682       1
   68649   68637   68646   68667       1   68646   68637   68649   68673       1
   68643   68634   68640   68655       1   68640   68634   68643   68661       1
   68637   68646   68664   68688       1   68637   68649   68670   68691       1
   68634   68643   68658   68682       1   68631   68634   68640   68655       1
   68631   68634   68643   68661       1   68631   68637   68646   68667       1
   68631   68637   68649   68673       1   68628   68616   68622   68631       1
   68625   68610   68622   68631       1   68619   68598   68616   68622       1
   68619   68598   68616   68628       1   68616   68622   68610   68625       1
   68613   68595   68610   68622       1   68613   68595   68610   68625       1
   68610   68622   68616   68628       1   68598   68589   68595   68613       1
   68595   68589   68598   68619       1   68589   68586   68592   68601       2
   68589   68586   68592   68604       2   68589   68586   68592   68607       2
   68589   68595   68610   68625       1   68589   68598   68616   68628       1
   68586   68589   68595   68613       1   68586   68589   68598   68619       1
   69459   69402   69453   69477       1   69456   69396   69453   69477       1
   69453   69477   69495   69543       2   69453   69477   69495   69546       2
   69453   69477   69495   69549       2   69450   69390   69444   69474       1
   69447   69384   69444   69474       1   69444   69474   69492   69534       2
   69444   69474   69492   69537       2   69444   69474   69492   69540       2
   69441   69378   69435   69471       1   69438   69372   69435   69471       1
   69435   69471   69489   69525       2   69435   69471   69489   69528       2
   69435   69471   69489   69531       2   69432   69366   69429   69468       1
   69429   69468   69486   69516       2   69429   69468   69486   69519       2
   69429   69468   69486   69522       2   69426   69360   69429   69468       1
   69423   69357   69417   69465       1   69420   69351   69417   69465       1
   69417   69465   69483   69507       2   69417   69465   69483   69510       2
   69417   69465   69483   69513       2   69414   69342   69408   69462       1
   69411   69336   69408   69462       1   69408   69462   69480   69498       2
   69408   69462   69480   69501       2   69408   69462   69480   69504       2
   69405   69333   69402   69453       1   69405   69333   69402   69459       1
   69402   69453   69396   69456       1   69399   69330   69396   69453       1
   69399   69330   69396   69456       1   69396   69453   69402   69459       1
   69393   69327   69390   69444       1   69393   69327   69390   69450       1
   69390   69444   69384   69447       1   69387   69324   69384   69444       1
   69387   69324   69384   69447       1   69384   69444   69390   69450       1
   69381   69321   69378   69435       1   69381   69321   69378   69441       1
   69378   69435   69372   69438       1   69375   69318   69372   69435       1
   69375   69318   69372   69438       1   69372   69435   69378   69441       1
   69369   69315   69366   69429       1   69369   69315   69366   69432       1
   69366   69429   69360   69426       1   69363   69312   69360   69426       1
   69363   69312   69360   69429       1   69360   69429   69366   69432       1
   69357   69417   69351   69420       1   69354   69309   69357   69417       1
   69354   69309   69357   69423       1   69351   69417   69357   69423       1
   69348   69306   69351   69417       1   69348   69306   69351   69420       1
   69345   69303   69342   69408       1   69345   69303   69342   69414       1
   69342   69408   69336   69411       1   69339   69300   69336   69408       1
   69339   69300   69336   69411       1   69336   69408   69342   69414       1
   69333   69294   69330   69399       1   69330   69294   69333   69405       1
   69327   69291   69324   69387       1   69324   69291   69327   69393       1
   69321   69285   69318   69375       1   69318   69285   69321   69381       1
   69315   69282   69312   69363       1   69312   69282   69315   69369       1
   69309   69279   69306   69348       1   69306   69279   69309   69354       1
   69303   69276   69300   69339       1   69300   69276   69303   69345       1
   69294   69330   69396   69456       1   69294   69333   69402   69459       1
   69291   69324   69384   69447       1   69291   69327   69390   69450       1
   69285   69318   69372   69438       1   69285   69321   69378   69441       1
   69282   69312   69360   69426       1   69282   69315   69366   69432       1
   69279   69306   69351   69420       1   69279   69309   69357   69423       1
   69276   69300   69336   69411       1   69276   69303   69342   69414       1
   69273   69240   69270   69297       1   69267   69237   69270   69297       1
   69267   69291   69324   69387       1   69267   69291   69327   69393       1
   69267   69294   69330   69399       1   69267   69294   69333   69405       1
   69264   69231   69261   69288       1   69258   69225   69261   69288       1
   69258   69282   69312   69363       1   69258   69282   69315   69369       1
   69258   69285   69318   69375       1   69258   69285   69321   69381       1
   69255   69276   69300   69339       1   69255   69276   69303   69345       1
   69255   69279   69306   69348       1   69255   69279   69309   69354       1
   69252   69213   69219   69255       1   69237   69270   69240   69273       1
   69234   69204   69237   69267       1   69234   69204   69237   69270       1
   69228   69198   69225   69258       1   69228   69198   69225   69261       1
   69225   69261   69231   69264       1   69222   69195   69219   69255       1
   69216   69192   69213   69219       1   69216   69192   69213   69252       1
   69213   69219   69195   69222       1   69207   69186   69204   69234       1
   69207   69201   69231   69264       1   69207   69240   69270   69297       1
   69204   69237   69270   69297       1   69201   69183   69198   69228       1
   69201   69207   69240   69273       1   69201   69231   69261   69288       1
   69198   69225   69261   69288       1   69195   69219   69213   69252       1
   69186   69207   69240   69273       1   69183   69201   69231   69264       1
   69180   69177   69192   69216       1   69177   69180   69195   69222       1
   69177   69192   69213   69252       1   69174   69153   69168   69189       1
   69171   69147   69168   69189       1   69168   69189   69210   69243       2
   69168   69189   69210   69246       2   69168   69189   69210   69249       2
   69165   69141   69159   69177       1   69162   69180   69195   69222       1
   69162   69183   69198   69228       1   69162   69186   69204   69234       1
   69159   69177   69192   69216       1   69156   69132   69153   69168       1
   69156   69132   69153   69174       1   69153   69168   69147   69171       1
   69150   69129   69147   69168       1   69150   69129   69147   69171       1
   69147   69168   69153   69174       1   69144   69126   69141   69159       1
   69144   69126   69141   69165       1   69138   69123   69135   69159       1
   69138   69123   69135   69162       1   69135   69159   69141   69165       1
   69132   69120   69129   69150       1   69129   69120   69132   69156       1
   69126   69117   69123   69138       1   69123   69117   69126   69144       1
   69120   69129   69147   69171       1   69120   69132   69153   69174       1
   69117   69126   69141   69165       1   69114   69117   69123   69138       1
   69114   69117   69126   69144       1   69114   69120   69129   69150       1
   69114   69120   69132   69156       1   69111   69099   69105   69114       1
   69108   69093   69105   69114       1   69102   69081   69099   69105       1
   69102   69081   69099   69111       1   69099   69105   69093   69108       1
   69096   69078   69093   69105       1   69096   69078   69093   69108       1
   69093   69105   69099   69111       1   69081   69072   69078   69096       1
   69078   69072   69081   69102       1   69072   69069   69075   69084       2
   69072   69069   69075   69087       2   69072   69069   69075   69090       2
   69072   69078   69093   69108       1   69072   69081   69099   69111       1
   69069   69072   69078   69096       1   69069   69072   69081   69102       1
   69942   69885   69936   69960       1   69939   69879   69936   69960       1
   69936   69960   69978   70026       2   69936   69960   69978   70029       2
   69936   69960   69978   70032       2   69933   69873   69927   69957       1
   69930   69867   69927   69957       1   69927   69957   69975   70017       2
   69927   69957   69975   70020       2   69927   69957   69975   70023       2
   69924   69861   69918   69954       1   69921   69855   69918   69954       1
   69918   69954   69972   70008       2   69918   69954   69972   70011       2
   69918   69954   69972   70014       2   69915   69849   69912   69951       1
   69912   69951   69969   69999       2   69912   69951   69969   70002       2
   69912   69951   69969   70005       2   69909   69843   69912   69951       1
   69906   69840   69900   69948       1   69903   69834   69900   69948       1
   69900   69948   69966   69990       2   69900   69948   69966   69993       2
   69900   69948   69966   69996       2   69897   69825   69891   69945       1
   69894   69819   69891   69945       1   69891   69945   69963   69981       2
   69891   69945   69963   69984       2   69891   69945   69963   69987       2
   69888   69816   69885   69936       1   69888   69816   69885   69942       1
   69885   69936   69879   69939       1   69882   69813   69879   69936       1
   69882   69813   69879   69939       1   69879   69936   69885   69942       1
   69876   69810   69873   69927       1   69876   69810   69873   69933       1
   69873   69927   69867   69930       1   69870   69807   69867   69927       1
   69870   69807   69867   69930       1   69867   69927   69873   69933       1
   69864   69804   69861   69918       1   69864   69804   69861   69924       1
   69861   69918   69855   69921       1   69858   69801   69855   69918       1
   69858   69801   69855   69921       1   69855   69918   69861   69924       1
   69852   69798   69849   69912       1   69852   69798   69849   69915       1
   69849   69912   69843   69909       1   69846   69795   69843   69909       1
   69846   69795   69843   69912       1   69843   69912   69849   69915       1
   69840   69900   69834   69903       1   69837   69792   69840   69900       1
   69837   69792   69840   69906       1   69834   69900   69840   69906       1
   69831   69789   69834   69900       1   69831   69789   69834   69903       1
   69828   69786   69825   69891       1   69828   69786   69825   69897       1
   69825   69891   69819   69894       1   69822   69783   69819   69891       1
   69822   69783   69819   69894       1   69819   69891   69825   69897       1
   69816   69777   69813   69882       1   69813   69777   69816   69888       1
   69810   69774   69807   69870       1   69807   69774   69810   69876       1
   69804   69768   69801   69858       1   69801   69768   69804   69864       1
   69798   69765   69795   69846       1   69795   69765   69798   69852       1
   69792   69762   69789   69831       1   69789   69762   69792   69837       1
   69786   69759   69783   69822       1   69783   69759   69786   69828       1
   69777   69813   69879   69939       1   69777   69816   69885   69942       1
   69774   69807   69867   69930       1   69774   69810   69873   69933       1
   69768   69801   69855   69921       1   69768   69804   69861   69924       1
   69765   69795   69843   69909       1   69765   69798   69849   69915       1
   69762   69789   69834   69903       1   69762   69792   69840   69906       1
   69759   69783   69819   69894       1   69759   69786   69825   69897       1
   69756   69723   69753   69780       1   69750   69720   69753   69780       1
   69750   69774   69807   69870       1   69750   69774   69810   69876       1
   69750   69777   69813   69882       1   69750   69777   69816   69888       1
   69747   69714   69744   69771       1   69741   69708   69744   69771       1
   69741   69765   69795   69846       1   69741   69765   69798   69852       1
   69741   69768   69801   69858       1   69741   69768   69804   69864       1
   69738   69759   69783   69822       1   69738   69759   69786   69828       1
   69738   69762   69789   69831       1   69738   69762   69792   69837       1
   69735   69696   69702   69738       1   69720   69753   69723   69756       1
   69717   69687   69720   69750       1   69717   69687   69720   69753       1
   69711   69681   69708   69741       1   69711   69681   69708   69744       1
   69708   69744   69714   69747       1   69705   69678   69702   69738       1
   69699   69675   69696   69702       1   69699   69675   69696   69735       1
   69696   69702   69678   69705       1   69690   69669   69687   69717       1
   69690   69684   69714   69747       1   69690   69723   69753   69780       1
   69687   69720   69753   69780       1   69684   69666   69681   69711       1
   69684   69690   69723   69756       1   69684   69714   69744   69771       1
   69681   69708   69744   69771       1   69678   69702   69696   69735       1
   69669   69690   69723   69756       1   69666   69684   69714   69747       1
   69663   69660   69675   69699       1   69660   69663   69678   69705       1
   69660   69675   69696   69735       1   69657   69636   69651   69672       1
   69654   69630   69651   69672       1   69651   69672   69693   69726       2
   69651   69672   69693   69729       2   69651   69672   69693   69732       2
   69648   69624   69642   69660       1   69645   69663   69678   69705       1
   69645   69666   69681   69711       1   69645   69669   69687   69717       1
   69642   69660   69675   69699       1   69639   69615   69636   69651       1
   69639   69615   69636   69657       1   69636   69651   69630   69654       1
   69633   69612   69630   69651       1   69633   69612   69630   69654       1
   69630   69651   69636   69657       1   69627   69609   69624   69642       1
   69627   69609   69624   69648       1   69621   69606   69618   69642       1
   69621   69606   69618   69645       1   69618   69642   69624   69648       1
   69615   69603   69612   69633       1   69612   69603   69615   69639       1
   69609   69600   69606   69621       1   69606   69600   69609   69627       1
   69603   69612   69630   69654       1   69603   69615   69636   69657       1
   69600   69609   69624   69648       1   69597   69600   69606   69621       1
   69597   69600   69609   69627       1   69597   69603   69612   69633       1
   69597   69603   69615   69639       1   69594   69582   69588   69597       1
   69591   69576   69588   69597       1   69585   69564   69582   69588       1
   69585   69564   69582   69594       1   69582   69588   69576   69591       1
   69579   69561   69576   69588       1   69579   69561   69576   69591       1
   69576   69588   69582   69594       1   69564   69555   69561   69579       1
   69561   69555   69564   69585       1   69555   69552   69558   69567       2
   69555   69552   69558   69570       2   69555   69552   69558   69573       2
   69555   69561   69576   69591       1   69555   69564   69582   69594       1
   69552   69555   69561   69579       1   69552   69555   69564   69585       1
   70425   70368   70419   70443       1   70422   70362   70419   70443       1
   70419   70443   70461   70509       2   70419   70443   70461   70512       2
   70419   70443   70461   70515       2   70416   70356   70410   70440       1
   70413   70350   70410   70440       1   70410   70440   70458   70500       2
   70410   70440   70458   70503       2   70410   70440   70458   70506       2
   70407   70344   70401   70437       1   70404   70338   70401   70437       1
   70401   70437   70455   70491       2   70401   70437   70455   70494       2
   70401   70437   70455   70497       2   70398   70332   70395   70434       1
   70395   70434   70452   70482       2   70395   70434   70452   70485       2
   70395   70434   70452   70488       2   70392   70326   70395   70434       1
   70389   70323   70383   70431       1   70386   70317   70383   70431       1
   70383   70431   70449   70473       2   70383   70431   70449   70476       2
   70383   70431   70449   70479       2   70380   70308   70374   70428       1
   70377   70302   70374   70428       1   70374   70428   70446   70464       2
   70374   70428   70446   70467       2   70374   70428   70446   70470       2
   70371   70299   70368   70419       1   70371   70299   70368   70425       1
   70368   70419   70362   70422       1   70365   70296   70362   70419       1
   70365   70296   70362   70422       1   70362   70419   70368   70425       1
   70359   70293   70356   70410       1   70359   70293   70356   70416       1
   70356   70410   70350   70413       1   70353   70290   70350   70410       1
   70353   70290   70350   70413       1   70350   70410   70356   70416       1
   70347   70287   70344   70401       1   70347   70287   70344   70407       1
   70344   70401   70338   70404       1   70341   70284   70338   70401       1
   70341   70284   70338   70404       1   70338   70401   70344   70407       1
   70335   70281   70332   70395       1   70335   70281   70332   70398       1
   70332   70395   70326   70392       1   70329   70278   70326   70392       1
   70329   70278   70326   70395       1   70326   70395   70332   70398       1
   70323   70383   70317   70386       1   70320   70275   70323   70383       1
   70320   70275   70323   70389       1   70317   70383   70323   70389       1
   70314   70272   70317   70383       1   70314   70272   70317   70386       1
   70311   70269   70308   70374       1   70311   70269   70308   70380       1
   70308   70374   70302   70377       1   70305   70266   70302   70374       1
   70305   70266   70302   70377       1   70302   70374   70308   70380       1
   70299   70260   70296   70365       1   70296   70260   70299   70371       1
   70293   70257   70290   70353       1   70290   70257   70293   70359       1
   70287   70251   70284   70341       1   70284   70251   70287   70347       1
   70281   70248   70278   70329       1   70278   70248   70281   70335       1
   70275   70245   70272   70314       1   70272   70245   70275   70320       1
   70269   70242   70266   70305       1   70266   70242   70269   70311       1
   70260   70296   70362   70422       1   70260   70299   70368   70425       1
   70257   70290   70350   70413       1   70257   70293   70356   70416       1
   70251   70284   70338   70404       1   70251   70287   70344   70407       1
   70248   70278   70326   70392       1   70248   70281   70332   70398       1
   70245   70272   70317   70386       1   70245   70275   70323   70389       1
   70242   70266   70302   70377       1   70242   70269   70308   70380       1
   70239   70206   70236   70263       1   70233   70203   70236   70263       1
   70233   70257   70290   70353       1   70233   70257   70293   70359       1
   70233   70260   70296   70365       1   70233   70260   70299   70371       1
   70230   70197   70227   70254       1   70224   70191   70227   70254       1
   70224   70248   70278   70329       1   70224   70248   70281   70335       1
   70224   70251   70284   70341       1   70224   70251   70287   70347       1
   70221   70242   70266   70305       1   70221   70242   70269   70311       1
   70221   70245   70272   70314       1   70221   70245   70275   70320       1
   70218   70179   70185   70221       1   70203   70236   70206   70239       1
   70200   70170   70203   70233       1   70200   70170   70203   70236       1
   70194   70164   70191   70224       1   70194   70164   70191   70227       1
   70191   70227   70197   70230       1   70188   70161   70185   70221       1
   70182   70158   70179   70185       1   70182   70158   70179   70218       1
   70179   70185   70161   70188       1   70173   70152   70170   70200       1
   70173   70167   70197   70230       1   70173   70206   70236   70263       1
   70170   70203   70236   70263       1   70167   70149   70164   70194       1
   70167   70173   70206   70239       1   70167   70197   70227   70254       1
   70164   70191   70227   70254       1   70161   70185   70179   70218       1
   70152   70173   70206   70239       1   70149   70167   70197   70230       1
   70146   70143   70158   70182       1   70143   70146   70161   70188       1
   70143   70158   70179   70218       1   70140   70119   70134   70155       1
   70137   70113   70134   70155       1   70134   70155   70176   70209       2
   70134   70155   70176   70212       2   70134   70155   70176   70215       2
   70131   70107   70125   70143       1   70128   70146   70161   70188       1
   70128   70149   70164   70194       1   70128   70152   70170   70200       1
   70125   70143   70158   70182       1   70122   70098   70119   70134       1
   70122   70098   70119   70140       1   70119   70134   70113   70137       1
   70116   70095   70113   70134       1   70116   70095   70113   70137       1
   70113   70134   70119   70140       1   70110   70092   70107   70125       1
   70110   70092   70107   70131       1   70104   70089   70101   70125       1
   70104   70089   70101   70128       1   70101   70125   70107   70131       1
   70098   70086   70095   70116       1   70095   70086   70098   70122       1
   70092   70083   70089   70104       1   70089   70083   70092   70110       1
   70086   70095   70113   70137       1   70086   70098   70119   70140       1
   70083   70092   70107   70131       1   70080   70083   70089   70104       1
   70080   70083   70092   70110       1   70080   70086   70095   70116       1
   70080   70086   70098   70122       1   70077   70065   70071   70080       1
   70074   70059   70071   70080       1   70068   70047   70065   70071       1
   70068   70047   70065   70077       1   70065   70071   70059   70074       1
   70062   70044   70059   70071       1   70062   70044   70059   70074       1
   70059   70071   70065   70077       1   70047   70038   70044   70062       1
   70044   70038   70047   70068       1   70038   70035   70041   70050       2
   70038   70035   70041   70053       2   70038   70035   70041   70056       2
   70038   70044   70059   70074       1   70038   70047   70065   70077       1
   70035   70038   70044   70062       1   70035   70038   70047   70068       1
   70908   70851   70902   70926       1   70905   70845   70902   70926       1
   70902   70926   70944   70992       2   70902   70926   70944   70995       2
   70902   70926   70944   70998       2   70899   70839   70893   70923       1
   70896   70833   70893   70923       1   70893   70923   70941   70983       2
   70893   70923   70941   70986       2   70893   70923   70941   70989       2
   70890   70827   70884   70920       1   70887   70821   70884   70920       1
   70884   70920   70938   70974       2   70884   70920   70938   70977       2
   70884   70920   70938   70980       2   70881   70815   70878   70917       1
   70878   70917   70935   70965       2   70878   70917   70935   70968       2
   70878   70917   70935   70971       2   70875   70809   70878   70917       1
   70872   70806   70866   70914       1   70869   70800   70866   70914       1
   70866   70914   70932   70956       2   70866   70914   70932   70959       2
   70866   70914   70932   70962       2   70863   70791   70857   70911       1
   70860   70785   70857   70911       1   70857   70911   70929   70947       2
   70857   70911   70929   70950       2   70857   70911   70929   70953       2
   70854   70782   70851   70902       1   70854   70782   70851   70908       1
   70851   70902   70845   70905       1   70848   70779   70845   70902       1
   70848   70779   70845   70905       1   70845   70902   70851   70908       1
   70842   70776   70839   70893       1   70842   70776   70839   70899       1
   70839   70893   70833   70896       1   70836   70773   70833   70893       1
   70836   70773   70833   70896       1   70833   70893   70839   70899       1
   70830   70770   70827   70884       1   70830   70770   70827   70890       1
   70827   70884   70821   70887       1   70824   70767   70821   70884       1
   70824   70767   70821   70887       1   70821   70884   70827   70890       1
   70818   70764   70815   70878       1   70818   70764   70815   70881       1
   70815   70878   70809   70875       1   70812   70761   70809   70875       1
   70812   70761   70809   70878       1   70809   70878   70815   70881       1
   70806   70866   70800   70869       1   70803   70758   70806   70866       1
   70803   70758   70806   70872       1   70800   70866   70806   70872       1
   70797   70755   70800   70866       1   70797   70755   70800   70869       1
   70794   70752   70791   70857       1   70794   70752   70791   70863       1
   70791   70857   70785   70860       1   70788   70749   70785   70857       1
   70788   70749   70785   70860       1   70785   70857   70791   70863       1
   70782   70743   70779   70848       1   70779   70743   70782   70854       1
   70776   70740   70773   70836       1   70773   70740   70776   70842       1
   70770   70734   70767   70824       1   70767   70734   70770   70830       1
   70764   70731   70761   70812       1   70761   70731   70764   70818       1
   70758   70728   70755   70797       1   70755   70728   70758   70803       1
   70752   70725   70749   70788       1   70749   70725   70752   70794       1
   70743   70779   70845   70905       1   70743   70782   70851   70908       1
   70740   70773   70833   70896       1   70740   70776   70839   70899       1
   70734   70767   70821   70887       1   70734   70770   70827   70890       1
   70731   70761   70809   70875       1   70731   70764   70815   70881       1
   70728   70755   70800   70869       1   70728   70758   70806   70872       1
   70725   70749   70785   70860       1   70725   70752   70791   70863       1
   70722   70689   70719   70746       1   70716   70686   70719   70746       1
   70716   70740   70773   70836       1   70716   70740   70776   70842       1
   70716   70743   70779   70848       1   70716   70743   70782   70854       1
   70713   70680   70710   70737       1   70707   70674   70710   70737       1
   70707   70731   70761   70812       1   70707   70731   70764   70818       1
   70707   70734   70767   70824       1   70707   70734   70770   70830       1
   70704   70725   70749   70788       1   70704   70725   70752   70794       1
   70704   70728   70755   70797       1   70704   70728   70758   70803       1
   70701   70662   70668   70704       1   70686   70719   70689   70722       1
   70683   70653   70686   70716       1   70683   70653   70686   70719       1
   70677   70647   70674   70707       1   70677   70647   70674   70710       1
   70674   70710   70680   70713       1   70671   70644   70668   70704       1
   70665   70641   70662   70668       1   70665   70641   70662   70701       1
   70662   70668   70644   70671       1   70656   70635   70653   70683       1
   70656   70650   70680   70713       1   70656   70689   70719   70746       1
   70653   70686   70719   70746       1   70650   70632   70647   70677       1
   70650   70656   70689   70722       1   70650   70680   70710   70737       1
   70647   70674   70710   70737       1   70644   70668   70662   70701       1
   70635   70656   70689   70722       1   70632   70650   70680   70713       1
   70629   70626   70641   70665       1   70626   70629   70644   70671       1
   70626   70641   70662   70701       1   70623   70602   70617   70638       1
   70620   70596   70617   70638       1   70617   70638   70659   70692       2
   70617   70638   70659   70695       2   70617   70638   70659   70698       2
   70614   70590   70608   70626       1   70611   70629   70644   70671       1
   70611   70632   70647   70677       1   70611   70635   70653   70683       1
   70608   70626   70641   70665       1   70605   70581   70602   70617       1
   70605   70581   70602   70623       1   70602   70617   70596   70620       1
   70599   70578   70596   70617       1   70599   70578   70596   70620       1
   70596   70617   70602   70623       1   70593   70575   70590   70608       1
   70593   70575   70590   70614       1   70587   70572   70584   70608       1
   70587   70572   70584   70611       1   70584   70608   70590   70614       1
   70581   70569   70578   70599       1   70578   70569   70581   70605       1
   70575   70566   70572   70587       1   70572   70566   70575   70593       1
   70569   70578   70596   70620       1   70569   70581   70602   70623       1
   70566   70575   70590   70614       1   70563   70566   70572   70587       1
   70563   70566   70575   70593       1   70563   70569   70578   70599       1
   70563   70569   70581   70605       1   70560   70548   70554   70563       1
   70557   70542   70554   70563       1   70551   70530   70548   70554       1
   70551   70530   70548   70560       1   70548   70554   70542   70557       1
   70545   70527   70542   70554       1   70545   70527   70542   70557       1
   70542   70554   70548   70560       1   70530   70521   70527   70545       1
   70527   70521   70530   70551       1   70521   70518   70524   70533       2
   70521   70518   70524   70536       2   70521   70518   70524   70539       2
   70521   70527   70542   70557       1   70521   70530   70548   70560       1
   70518   70521   70527   70545       1   70518   70521   70530   70551       1
   71391   71334   71385   71409       1   71388   71328   71385   71409       1
   71385   71409   71427   71475       2   71385   71409   71427   71478       2
   71385   71409   71427   71481       2   71382   71322   71376   71406       1
   71379   71316   71376   71406       1   71376   71406   71424   71466       2
   71376   71406   71424   71469       2   71376   71406   71424   71472       2
   71373   71310   71367   71403       1   71370   71304   71367   71403       1
   71367   71403   71421   71457       2   71367   71403   71421   71460       2
   71367   71403   71421   71463       2   71364   71298   71361   71400       1
   71361   71400   71418   71448       2   71361   71400   71418   71451       2
   71361   71400   71418   71454       2   71358   71292   71361   71400       1
   71355   71289   71349   71397       1   71352   71283   71349   71397       1
   71349   71397   71415   71439       2   71349   71397   71415   71442       2
   71349   71397   71415   71445       2   71346   71274   71340   71394       1
   71343   71268   71340   71394       1   71340   71394   71412   71430       2
   71340   71394   71412   71433       2   71340   71394   71412   71436       2
   71337   71265   71334   71385       1   71337   71265   71334   71391       1
   71334   71385   71328   71388       1   71331   71262   71328   71385       1
   71331   71262   71328   71388       1   71328   71385   71334   71391       1
   71325   71259   71322   71376       1   71325   71259   71322   71382       1
   71322   71376   71316   71379       1   71319   71256   71316   71376       1
   71319   71256   71316   71379       1   71316   71376   71322   71382       1
   71313   71253   71310   71367       1   71313   71253   71310   71373       1
   71310   71367   71304   71370       1   71307   71250   71304   71367       1
   71307   71250   71304   71370       1   71304   71367   71310   71373       1
   71301   71247   71298   71361       1   71301   71247   71298   71364       1
   71298   71361   71292   71358       1   71295   71244   71292   71358       1
   71295   71244   71292   71361       1   71292   71361   71298   71364       1
   71289   71349   71283   71352       1   71286   71241   71289   71349       1
   71286   71241   71289   71355       1   71283   71349   71289   71355       1
   71280   71238   71283   71349       1   71280   71238   71283   71352       1
   71277   71235   71274   71340       1   71277   71235   71274   71346       1
   71274   71340   71268   71343       1   71271   71232   71268   71340       1
   71271   71232   71268   71343       1   71268   71340   71274   71346       1
   71265   71226   71262   71331       1   71262   71226   71265   71337       1
   71259   71223   71256   71319       1   71256   71223   71259   71325       1
   71253   71217   71250   71307       1   71250   71217   71253   71313       1
   71247   71214   71244   71295       1   71244   71214   71247   71301       1
   71241   71211   71238   71280       1   71238   71211   71241   71286       1
   71235   71208   71232   71271       1   71232   71208   71235   71277       1
   71226   71262   71328   71388       1   71226   71265   71334   71391       1
   71223   71256   71316   71379       1   71223   71259   71322   71382       1
   71217   71250   71304   71370       1   71217   71253   71310   71373       1
   71214   71244   71292   71358       1   71214   71247   71298   71364       1
   71211   71238   71283   71352       1   71211   71241   71289   71355       1
   71208   71232   71268   71343       1   71208   71235   71274   71346       1
   71205   71172   71202   71229       1   71199   71169   71202   71229       1
   71199   71223   71256   71319       1   71199   71223   71259   71325       1
   71199   71226   71262   71331       1   71199   71226   71265   71337       1
   71196   71163   71193   71220       1   71190   71157   71193   71220       1
   71190   71214   71244   71295       1   71190   71214   71247   71301       1
   71190   71217   71250   71307       1   71190   71217   71253   71313       1
   71187   71208   71232   71271       1   71187   71208   71235   71277       1
   71187   71211   71238   71280       1   71187   71211   71241   71286       1
   71184   71145   71151   71187       1   71169   71202   71172   71205       1
   71166   71136   71169   71199       1   71166   71136   71169   71202       1
   71160   71130   71157   71190       1   71160   71130   71157   71193       1
   71157   71193   71163   71196       1   71154   71127   71151   71187       1
   71148   71124   71145   71151       1   71148   71124   71145   71184       1
   71145   71151   71127   71154       1   71139   71118   71136   71166       1
   71139   71133   71163   71196       1   71139   71172   71202   71229       1
   71136   71169   71202   71229       1   71133   71115   71130   71160       1
   71133   71139   71172   71205       1   71133   71163   71193   71220       1
   71130   71157   71193   71220       1   71127   71151   71145   71184       1
   71118   71139   71172   71205       1   71115   71133   71163   71196       1
   71112   71109   71124   71148       1   71109   71112   71127   71154       1
   71109   71124   71145   71184       1   71106   71085   71100   71121       1
   71103   71079   71100   71121       1   71100   71121   71142   71175       2
   71100   71121   71142   71178       2   71100   71121   71142   71181       2
   71097   71073   71091   71109       1   71094   71112   71127   71154       1
   71094   71115   71130   71160       1   71094   71118   71136   71166       1
   71091   71109   71124   71148       1   71088   71064   71085   71100       1
   71088   71064   71085   71106       1   71085   71100   71079   71103       1
   71082   71061   71079   71100       1   71082   71061   71079   71103       1
   71079   71100   71085   71106       1   71076   71058   71073   71091       1
   71076   71058   71073   71097       1   71070   71055   71067   71091       1
   71070   71055   71067   71094       1   71067   71091   71073   71097       1
   71064   71052   71061   71082       1   71061   71052   71064   71088       1
   71058   71049   71055   71070       1   71055   71049   71058   71076       1
   71052   71061   71079   71103       1   71052   71064   71085   71106       1
   71049   71058   71073   71097       1   71046   71049   71055   71070       1
   71046   71049   71058   71076       1   71046   71052   71061   71082       1
   71046   71052   71064   71088       1   71043   71031   71037   71046       1
   71040   71025   71037   71046       1   71034   71013   71031   71037       1
   71034   71013   71031   71043       1   71031   71037   71025   71040       1
   71028   71010   71025   71037       1   71028   71010   71025   71040       1
   71025   71037   71031   71043       1   71013   71004   71010   71028       1
   71010   71004   71013   71034       1   71004   71001   71007   71016       2
   71004   71001   71007   71019       2   71004   71001   71007   71022       2
   71004   71010   71025   71040       1   71004   71013   71031   71043       1
   71001   71004   71010   71028       1   71001   71004   71013   71034       1
   71874   71817   71868   71892       1   71871   71811   71868   71892       1
   71868   71892   71910   71958       2   71868   71892   71910   71961       2
   71868   71892   71910   71964       2   71865   71805   71859   71889       1
   71862   71799   71859   71889       1   71859   71889   71907   71949       2
   71859   71889   71907   71952       2   71859   71889   71907   71955       2
   71856   71793   71850   71886       1   71853   71787   71850   71886       1
   71850   71886   71904   71940       2   71850   71886   71904   71943       2
   71850   71886   71904   71946       2   71847   71781   71844   71883       1
   71844   71883   71901   71931       2   71844   71883   71901   71934       2
   71844   71883   71901   71937       2   71841   71775   71844   71883       1
   71838   71772   71832   71880       1   71835   71766   71832   71880       1
   71832   71880   71898   71922       2   71832   71880   71898   71925       2
   71832   71880   71898   71928       2   71829   71757   71823   71877       1
   71826   71751   71823   71877       1   71823   71877   71895   71913       2
   71823   71877   71895   71916       2   71823   71877   71895   71919       2
   71820   71748   71817   71868       1   71820   71748   71817   71874       1
   71817   71868   71811   71871       1   71814   71745   71811   71868       1
   71814   71745   71811   71871       1   71811   71868   71817   71874       1
   71808   71742   71805   71859       1   71808   71742   71805   71865       1
   71805   71859   71799   71862       1   71802   71739   71799   71859       1
   71802   71739   71799   71862       1   71799   71859   71805   71865       1
   71796   71736   71793   71850       1   71796   71736   71793   71856       1
   71793   71850   71787   71853       1   71790   71733   71787   71850       1
   71790   71733   71787   71853       1   71787   71850   71793   71856       1
   71784   71730   71781   71844       1   71784   71730   71781   71847       1
   71781   71844   71775   71841       1   71778   71727   71775   71841       1
   71778   71727   71775   71844       1   71775   71844   71781   71847       1
   71772   71832   71766   71835       1   71769   71724   71772   71832       1
   71769   71724   71772   71838       1   71766   71832   71772   71838       1
   71763   71721   71766   71832       1   71763   71721   71766   71835       1
   71760   71718   71757   71823       1   71760   71718   71757   71829       1
   71757   71823   71751   71826       1   71754   71715   71751   71823       1
   71754   71715   71751   71826       1   71751   71823   71757   71829       1
   71748   71709   71745   71814       1   71745   71709   71748   71820       1
   71742   71706   71739   71802       1   71739   71706   71742   71808       1
   71736   71700   71733   71790       1   71733   71700   71736   71796       1
   71730   71697   71727   71778       1   71727   71697   71730   71784       1
   71724   71694   71721   71763       1   71721   71694   71724   71769       1
   71718   71691   71715   71754       1   71715   71691   71718   71760       1
   71709   71745   71811   71871       1   71709   71748   71817   71874       1
   71706   71739   71799   71862       1   71706   71742   71805   71865       1
   71700   71733   71787   71853       1   71700   71736   71793   71856       1
   71697   71727   71775   71841       1   71697   71730   71781   71847       1
   71694   71721   71766   71835       1   71694   71724   71772   71838       1
   71691   71715   71751   71826       1   71691   71718   71757   71829       1
   71688   71655   71685   71712       1   71682   71652   71685   71712       1
   71682   71706   71739   71802       1   71682   71706   71742   71808       1
   71682   71709   71745   71814       1   71682   71709   71748   71820       1
   71679   71646   71676   71703       1   71673   71640   71676   71703       1
   71673   71697   71727   71778       1   71673   71697   71730   71784       1
   71673   71700   71733   71790       1   71673   71700   71736   71796       1
   71670   71691   71715   71754       1   71670   71691   71718   71760       1
   71670   71694   71721   71763       1   71670   71694   71724   71769       1
   71667   71628   71634   71670       1   71652   71685   71655   71688       1
   71649   71619   71652   71682       1   71649   71619   71652   71685       1
   71643   71613   71640   71673       1   71643   71613   71640   71676       1
   71640   71676   71646   71679       1   71637   71610   71634   71670       1
   71631   71607   71628   71634       1   71631   71607   71628   71667       1
   71628   71634   71610   71637       1   71622   71601   71619   71649       1
   71622   71616   71646   71679       1   71622   71655   71685   71712       1
   71619   71652   71685   71712       1   71616   71598   71613   71643       1
   71616   71622   71655   71688       1   71616   71646   71676   71703       1
   71613   71640   71676   71703       1   71610   71634   71628   71667       1
   71601   71622   71655   71688       1   71598   71616   71646   71679       1
   71595   71592   71607   71631       1   71592   71595   71610   71637       1
   71592   71607   71628   71667       1   71589   71568   71583   71604       1
   71586   71562   71583   71604       1   71583   71604   71625   71658       2
   71583   71604   71625   71661       2   71583   71604   71625   71664       2
   71580   71556   71574   71592       1   71577   71595   71610   71637       1
   71577   71598   71613   71643       1   71577   71601   71619   71649       1
   71574   71592   71607   71631       1   71571   71547   71568   71583       1
   71571   71547   71568   71589       1   71568   71583   71562   71586       1
   71565   71544   71562   71583       1   71565   71544   71562   71586       1
   71562   71583   71568   71589       1   71559   71541   71556   71574       1
   71559   71541   71556   71580       1   71553   71538   71550   71574       1
   71553   71538   71550   71577       1   71550   71574   71556   71580       1
   71547   71535   71544   71565       1   71544   71535   71547   71571       1
   71541   71532   71538   71553       1   71538   71532   71541   71559       1
   71535   71544   71562   71586       1   71535   71547   71568   71589       1
   71532   71541   71556   71580       1   71529   71532   71538   71553       1
   71529   71532   71541   71559       1   71529   71535   71544   71565       1
   71529   71535   71547   71571       1   71526   71514   71520   71529       1
   71523   71508   71520   71529       1   71517   71496   71514   71520       1
   71517   71496   71514   71526       1   71514   71520   71508   71523       1
   71511   71493   71508   71520       1   71511   71493   71508   71523       1
   71508   71520   71514   71526       1   71496   71487   71493   71511       1
   71493   71487   71496   71517       1   71487   71484   71490   71499       2
   71487   71484   71490   71502       2   71487   71484   71490   71505       2
   71487   71493   71508   71523       1   71487   71496   71514   71526       1
   71484   71487   71493   71511       1   71484   71487   71496   71517       1
   72357   72300   72351   72375       1   72354   72294   72351   72375       1
   72351   72375   72393   72441       2   72351   72375   72393   72444       2
   72351   72375   72393   72447       2   72348   72288   72342   72372       1
   72345   72282   72342   72372       1   72342   72372   72390   72432       2
   72342   72372   72390   72435       2   72342   72372   72390   72438       2
   72339   72276   72333   72369       1   72336   72270   72333   72369       1
   72333   72369   72387   72423       2   72333   72369   72387   72426       2
   72333   72369   72387   72429       2   72330   72264   72327   72366       1
   72327   72366   72384   72414       2   72327   72366   72384   72417       2
   72327   72366   72384   72420       2   72324   72258   72327   72366       1
   72321   72255   72315   72363       1   72318   72249   72315   72363       1
   72315   72363   72381   72405       2   72315   72363   72381   72408       2
   72315   72363   72381   72411       2   72312   72240   72306   72360       1
   72309   72234   72306   72360       1   72306   72360   72378   72396       2
   72306   72360   72378   72399       2   72306   72360   72378   72402       2
   72303   72231   72300   72351       1   72303   72231   72300   72357       1
   72300   72351   72294   72354       1   72297   72228   72294   72351       1
   72297   72228   72294   72354       1   72294   72351   72300   72357       1
   72291   72225   72288   72342       1   72291   72225   72288   72348       1
   72288   72342   72282   72345       1   72285   72222   72282   72342       1
   72285   72222   72282   72345       1   72282   72342   72288   72348       1
   72279   72219   72276   72333       1   72279   72219   72276   72339       1
   72276   72333   72270   72336       1   72273   72216   72270   72333       1
   72273   72216   72270   72336       1   72270   72333   72276   72339       1
   72267   72213   72264   72327       1   72267   72213   72264   72330       1
   72264   72327   72258   72324       1   72261   72210   72258   72324       1
   72261   72210   72258   72327       1   72258   72327   72264   72330       1
   72255   72315   72249   72318       1   72252   72207   72255   72315       1
   72252   72207   72255   72321       1   72249   72315   72255   72321       1
   72246   72204   72249   72315       1   72246   72204   72249   72318       1
   72243   72201   72240   72306       1   72243   72201   72240   72312       1
   72240   72306   72234   72309       1   72237   72198   72234   72306       1
   72237   72198   72234   72309       1   72234   72306   72240   72312       1
   72231   72192   72228   72297       1   72228   72192   72231   72303       1
   72225   72189   72222   72285       1   72222   72189   72225   72291       1
   72219   72183   72216   72273       1   72216   72183   72219   72279       1
   72213   72180   72210   72261       1   72210   72180   72213   72267       1
   72207   72177   72204   72246       1   72204   72177   72207   72252       1
   72201   72174   72198   72237       1   72198   72174   72201   72243       1
   72192   72228   72294   72354       1   72192   72231   72300   72357       1
   72189   72222   72282   72345       1   72189   72225   72288   72348       1
   72183   72216   72270   72336       1   72183   72219   72276   72339       1
   72180   72210   72258   72324       1   72180   72213   72264   72330       1
   72177   72204   72249   72318       1   72177   72207   72255   72321       1
   72174   72198   72234   72309       1   72174   72201   72240   72312       1
   72171   72138   72168   72195       1   72165   72135   72168   72195       1
   72165   72189   72222   72285       1   72165   72189   72225   72291       1
   72165   72192   72228   72297       1   72165   72192   72231   72303       1
   72162   72129   72159   72186       1   72156   72123   72159   72186       1
   72156   72180   72210   72261       1   72156   72180   72213   72267       1
   72156   72183   72216   72273       1   72156   72183   72219   72279       1
   72153   72174   72198   72237       1   72153   72174   72201   72243       1
   72153   72177   72204   72246       1   72153   72177   72207   72252       1
   72150   72111   72117   72153       1   72135   72168   72138   72171       1
   72132   72102   72135   72165       1   72132   72102   72135   72168       1
   72126   72096   72123   72156       1   72126   72096   72123   72159       1
   72123   72159   72129   72162       1   72120   72093   72117   72153       1
   72114   72090   72111   72117       1   72114   72090   72111   72150       1
   72111   72117   72093   72120       1   72105   72084   72102   72132       1
   72105   72099   72129   72162       1   72105   72138   72168   72195       1
   72102   72135   72168   72195       1   72099   72081   72096   72126       1
   72099   72105   72138   72171       1   72099   72129   72159   72186       1
   72096   72123   72159   72186       1   72093   72117   72111   72150       1
   72084   72105   72138   72171       1   72081   72099   72129   72162       1
   72078   72075   72090   72114       1   72075   72078   72093   72120       1
   72075   72090   72111   72150       1   72072   72051   72066   72087       1
   72069   72045   72066   72087       1   72066   72087   72108   72141       2
   72066   72087   72108   72144       2   72066   72087   72108   72147       2
   72063   72039   72057   72075       1   72060   72078   72093   72120       1
   72060   72081   72096   72126       1   72060   72084   72102   72132       1
   72057   72075   72090   72114       1   72054   72030   72051   72066       1
   72054   72030   72051   72072       1   72051   72066   72045   72069       1
   72048   72027   72045   72066       1   72048   72027   72045   72069       1
   72045   72066   72051   72072       1   72042   72024   72039   72057       1
   72042   72024   72039   72063       1   72036   72021   72033   72057       1
   72036   72021   72033   72060       1   72033   72057   72039   72063       1
   72030   72018   72027   72048       1   72027   72018   72030   72054       1
   72024   72015   72021   72036       1   72021   72015   72024   72042       1
   72018   72027   72045   72069       1   72018   72030   72051   72072       1
   72015   72024   72039   72063       1   72012   72015   72021   72036       1
   72012   72015   72024   72042       1   72012   72018   72027   72048       1
   72012   72018   72030   72054       1   72009   71997   72003   72012       1
   72006   71991   72003   72012       1   72000   71979   71997   72003       1
   72000   71979   71997   72009       1   71997   72003   71991   72006       1
   71994   71976   71991   72003       1   71994   71976   71991   72006       1
   71991   72003   71997   72009       1   71979   71970   71976   71994       1
   71976   71970   71979   72000       1   71970   71967   71973   71982       2
   71970   71967   71973   71985       2   71970   71967   71973   71988       2
   71970   71976   71991   72006       1   71970   71979   71997   72009       1
   71967   71970   71976   71994       1   71967   71970   71979   72000       1
     264     384    -333    -390       8     261     384    -327    -387       8
     258     375    -321    -381       8     255     375    -315    -378       8
     252     366    -309    -372       8     249     366    -303    -369       8
     246     360    -297    -363       8     243     360    -291    -357       8
     240     348    -288    -354       8     237     348    -282    -351       8
     234     339    -273    -345       8     231     339    -267    -342       8
     225     333    -264    -336       8     225     327    -261    -330       8
     222     321    -258    -324       8     222     315    -255    -318       8
     216     309    -252    -312       8     216     303    -249    -306       8
     213     297    -246    -300       8     213     291    -243    -294       8
     210     288    -240    -285       8     210     282    -237    -279       8
     207     273    -234    -276       8     207     267    -231    -270       8
     168     171    -201    -228       8     156     162    -192    -219       8
     201     138    -171    -204       8     192     132    -162    -195       8
     123     150    -144    -183       8     117     168    -135    -165       8
     114     156    -129    -159       8     111     150    -126    -153       8
     144     108    -123    -147       8      63      99     -84    -105       8
      60      99     -78    -102       8      57      90     -72     -96       8
      51      84     -63     -87       8      51      78     -60     -81       8
      48      72     -57     -75       8      48      66     -54     -69       8
      12      36     -30     -42       8       9      36     -24     -39       8
       3      30     -12     -33       8       3      24      -9     -27       8
     747     867    -816    -873       8     744     867    -810    -870       8
     741     858    -804    -864       8     738     858    -798    -861       8
     735     849    -792    -855       8     732     849    -786    -852       8
     729     843    -780    -846       8     726     843    -774    -840       8
     723     831    -771    -837       8     720     831    -765    -834       8
     717     822    -756    -828       8     714     822    -750    -825       8
     708     816    -747    -819       8     708     810    -744    -813       8
     705     804    -741    -807       8     705     798    -738    -801       8
     699     792    -735    -795       8     699     786    -732    -789       8
     696     780    -729    -783       8     696     774    -726    -777       8
     693     771    -723    -768       8     693     765    -720    -762       8
     690     756    -717    -759       8     690     750    -714    -753       8
     651     654    -684    -711       8     639     645    -675    -702       8
     684     621    -654    -687       8     675     615    -645    -678       8
     606     633    -627    -666       8     600     651    -618    -648       8
     597     639    -612    -642       8     594     633    -609    -636       8
     627     591    -606    -630       8     546     582    -567    -588       8
     543     582    -561    -585       8     540     573    -555    -579       8
     534     567    -546    -570       8     534     561    -543    -564       8
     531     555    -540    -558       8     531     549    -537    -552       8
     495     519    -513    -525       8     492     519    -507    -522       8
     486     513    -495    -516       8     486     507    -492    -510       8
    1230    1350   -1299   -1356       8    1227    1350   -1293   -1353       8
    1224    1341   -1287   -1347       8    1221    1341   -1281   -1344       8
    1218    1332   -1275   -1338       8    1215    1332   -1269   -1335       8
    1212    1326   -1263   -1329       8    1209    1326   -1257   -1323       8
    1206    1314   -1254   -1320       8    1203    1314   -1248   -1317       8
    1200    1305   -1239   -1311       8    1197    1305   -1233   -1308       8
    1191    1299   -1230   -1302       8    1191    1293   -1227   -1296       8
    1188    1287   -1224   -1290       8    1188    1281   -1221   -1284       8
    1182    1275   -1218   -1278       8    1182    1269   -1215   -1272       8
    1179    1263   -1212   -1266       8    1179    1257   -1209   -1260       8
    1176    1254   -1206   -1251       8    1176    1248   -1203   -1245       8
    1173    1239   -1200   -1242       8    1173    1233   -1197   -1236       8
    1134    1137   -1167   -1194       8    1122    1128   -1158   -1185       8
    1167    1104   -1137   -1170       8    1158    1098   -1128   -1161       8
    1089    1116   -1110   -1149       8    1083    1134   -1101   -1131       8
    1080    1122   -1095   -1125       8    1077    1116   -1092   -1119       8
    1110    1074   -1089   -1113       8    1029    1065   -1050   -1071       8
    1026    1065   -1044   -1068       8    1023    1056   -1038   -1062       8
    1017    1050   -1029   -1053       8    1017    1044   -1026   -1047       8
    1014    1038   -1023   -1041       8    1014    1032   -1020   -1035       8
     978    1002    -996   -1008       8     975    1002    -990   -1005       8
     969     996    -978    -999       8     969     990    -975    -993       8
    1713    1833   -1782   -1839       8    1710    1833   -1776   -1836       8
    1707    1824   -1770   -1830       8    1704    1824   -1764   -1827       8
    1701    1815   -1758   -1821       8    1698    1815   -1752   -1818       8
    1695    1809   -1746   -1812       8    1692    1809   -1740   -1806       8
    1689    1797   -1737   -1803       8    1686    1797   -1731   -1800       8
    1683    1788   -1722   -1794       8    1680    1788   -1716   -1791       8
    1674    1782   -1713   -1785       8    1674    1776   -1710   -1779       8
    1671    1770   -1707   -1773       8    1671    1764   -1704   -1767       8
    1665    1758   -1701   -1761       8    1665    1752   -1698   -1755       8
    1662    1746   -1695   -1749       8    1662    1740   -1692   -1743       8
    1659    1737   -1689   -1734       8    1659    1731   -1686   -1728       8
    1656    1722   -1683   -1725       8    1656    1716   -1680   -1719       8
    1617    1620   -1650   -1677       8    1605    1611   -1641   -1668       8
    1650    1587   -1620   -1653       8    1641    1581   -1611   -1644       8
    1572    1599   -1593   -1632       8    1566    1617   -1584   -1614       8
    1563    1605   -1578   -1608       8    1560    1599   -1575   -1602       8
    1593    1557   -1572   -1596       8    1512    1548   -1533   -1554       8
    1509    1548   -1527   -1551       8    1506    1539   -1521   -1545       8
    1500    1533   -1512   -1536       8    1500    1527   -1509   -1530       8
    1497    1521   -1506   -1524       8    1497    1515   -1503   -1518       8
    1461    1485   -1479   -1491       8    1458    1485   -1473   -1488       8
    1452    1479   -1461   -1482       8    1452    1473   -1458   -1476       8
    2196    2316   -2265   -2322       8    2193    2316   -2259   -2319       8
    2190    2307   -2253   -2313       8    2187    2307   -2247   -2310       8
    2184    2298   -2241   -2304       8    2181    2298   -2235   -2301       8
    2178    2292   -2229   -2295       8    2175    2292   -2223   -2289       8
    2172    2280   -2220   -2286       8    2169    2280   -2214   -2283       8
    2166    2271   -2205   -2277       8    2163    2271   -2199   -2274       8
    2157    2265   -2196   -2268       8    2157    2259   -2193   -2262       8
    2154    2253   -2190   -2256       8    2154    2247   -2187   -2250       8
    2148    2241   -2184   -2244       8    2148    2235   -2181   -2238       8
    2145    2229   -2178   -2232       8    2145    2223   -2175   -2226       8
    2142    2220   -2172   -2217       8    2142    2214   -2169   -2211       8
    2139    2205   -2166   -2208       8    2139    2199   -2163   -2202       8
    2100    2103   -2133   -2160       8    2088    2094   -2124   -2151       8
    2133    2070   -2103   -2136       8    2124    2064   -2094   -2127       8
    2055    2082   -2076   -2115       8    2049    2100   -2067   -2097       8
    2046    2088   -2061   -2091       8    2043    2082   -2058   -2085       8
    2076    2040   -2055   -2079       8    1995    2031   -2016   -2037       8
    1992    2031   -2010   -2034       8    1989    2022   -2004   -2028       8
    1983    2016   -1995   -2019       8    1983    2010   -1992   -2013       8
    1980    2004   -1989   -2007       8    1980    1998   -1986   -2001       8
    1944    1968   -1962   -1974       8    1941    1968   -1956   -1971       8
    1935    1962   -1944   -1965       8    1935    1956   -1941   -1959       8
    2679    2799   -2748   -2805       8    2676    2799   -2742   -2802       8
    2673    2790   -2736   -2796       8    2670    2790   -2730   -2793       8
    2667    2781   -2724   -2787       8    2664    2781   -2718   -2784       8
    2661    2775   -2712   -2778       8    2658    2775   -2706   -2772       8
    2655    2763   -2703   -2769       8    2652    2763   -2697   -2766       8
    2649    2754   -2688   -2760       8    2646    2754   -2682   -2757       8
    2640    2748   -2679   -2751       8    2640    2742   -2676   -2745       8
    2637    2736   -2673   -2739       8    2637    2730   -2670   -2733       8
    2631    2724   -2667   -2727       8    2631    2718   -2664   -2721       8
    2628    2712   -2661   -2715       8    2628    2706   -2658   -2709       8
    2625    2703   -2655   -2700       8    2625    2697   -2652   -2694       8
    2622    2688   -2649   -2691       8    2622    2682   -2646   -2685       8
    2583    2586   -2616   -2643       8    2571    2577   -2607   -2634       8
    2616    2553   -2586   -2619       8    2607    2547   -2577   -2610       8
    2538    2565   -2559   -2598       8    2532    2583   -2550   -2580       8
    2529    2571   -2544   -2574       8    2526    2565   -2541   -2568       8
    2559    2523   -2538   -2562       8    2478    2514   -2499   -2520       8
    2475    2514   -2493   -2517       8    2472    2505   -2487   -2511       8
    2466    2499   -2478   -2502       8    2466    2493   -2475   -2496       8
    2463    2487   -2472   -2490       8    2463    2481   -2469   -2484       8
    2427    2451   -2445   -2457       8    2424    2451   -2439   -2454       8
    2418    2445   -2427   -2448       8    2418    2439   -2424   -2442       8
    3162    3282   -3231   -3288       8    3159    3282   -3225   -3285       8
    3156    3273   -3219   -3279       8    3153    3273   -3213   -3276       8
    3150    3264   -3207   -3270       8    3147    3264   -3201   -3267       8
    3144    3258   -3195   -3261       8    3141    3258   -3189   -3255       8
    3138    3246   -3186   -3252       8    3135    3246   -3180   -3249       8
    3132    3237   -3171   -3243       8    3129    3237   -3165   -3240       8
    3123    3231   -3162   -3234       8    3123    3225   -3159   -3228       8
    3120    3219   -3156   -3222       8    3120    3213   -3153   -3216       8
    3114    3207   -3150   -3210       8    3114    3201   -3147   -3204       8
    3111    3195   -3144   -3198       8    3111    3189   -3141   -3192       8
    3108    3186   -3138   -3183       8    3108    3180   -3135   -3177       8
    3105    3171   -3132   -3174       8    3105    3165   -3129   -3168       8
    3066    3069   -3099   -3126       8    3054    3060   -3090   -3117       8
    3099    3036   -3069   -3102       8    3090    3030   -3060   -3093       8
    3021    3048   -3042   -3081       8    3015    3066   -3033   -3063       8
    3012    3054   -3027   -3057       8    3009    3048   -3024   -3051       8
    3042    3006   -3021   -3045       8    2961    2997   -2982   -3003       8
    2958    2997   -2976   -3000       8    2955    2988   -2970   -2994       8
    2949    2982   -2961   -2985       8    2949    2976   -2958   -2979       8
    2946    2970   -2955   -2973       8    2946    2964   -2952   -2967       8
    2910    2934   -2928   -2940       8    2907    2934   -2922   -2937       8
    2901    2928   -2910   -2931       8    2901    2922   -2907   -2925       8
    3645    3765   -3714   -3771       8    3642    3765   -3708   -3768       8
    3639    3756   -3702   -3762       8    3636    3756   -3696   -3759       8
    3633    3747   -3690   -3753       8    3630    3747   -3684   -3750       8
    3627    3741   -3678   -3744       8    3624    3741   -3672   -3738       8
    3621    3729   -3669   -3735       8    3618    3729   -3663   -3732       8
    3615    3720   -3654   -3726       8    3612    3720   -3648   -3723       8
    3606    3714   -3645   -3717       8    3606    3708   -3642   -3711       8
    3603    3702   -3639   -3705       8    3603    3696   -3636   -3699       8
    3597    3690   -3633   -3693       8    3597    3684   -3630   -3687       8
    3594    3678   -3627   -3681       8    3594    3672   -3624   -3675       8
    3591    3669   -3621   -3666       8    3591    3663   -3618   -3660       8
    3588    3654   -3615   -3657       8    3588    3648   -3612   -3651       8
    3549    3552   -3582   -3609       8    3537    3543   -3573   -3600       8
    3582    3519   -3552   -3585       8    3573    3513   -3543   -3576       8
    3504    3531   -3525   -3564       8    3498    3549   -3516   -3546       8
    3495    3537   -3510   -3540       8    3492    3531   -3507   -3534       8
    3525    3489   -3504   -3528       8    3444    3480   -3465   -3486       8
    3441    3480   -3459   -3483       8    3438    3471   -3453   -3477       8
    3432    3465   -3444   -3468       8    3432    3459   -3441   -3462       8
    3429    3453   -3438   -3456       8    3429    3447   -3435   -3450       8
    3393    3417   -3411   -3423       8    3390    3417   -3405   -3420       8
    3384    3411   -3393   -3414       8    3384    3405   -3390   -3408       8
    4128    4248   -4197   -4254       8    4125    4248   -4191   -4251       8
    4122    4239   -4185   -4245       8    4119    4239   -4179   -4242       8
    4116    4230   -4173   -4236       8    4113    4230   -4167   -4233       8
    4110    4224   -4161   -4227       8    4107    4224   -4155   -4221       8
    4104    4212   -4152   -4218       8    4101    4212   -4146   -4215       8
    4098    4203   -4137   -4209       8    4095    4203   -4131   -4206       8
    4089    4197   -4128   -4200       8    4089    4191   -4125   -4194       8
    4086    4185   -4122   -4188       8    4086    4179   -4119   -4182       8
    4080    4173   -4116   -4176       8    4080    4167   -4113   -4170       8
    4077    4161   -4110   -4164       8    4077    4155   -4107   -4158       8
    4074    4152   -4104   -4149       8    4074    4146   -4101   -4143       8
    4071    4137   -4098   -4140       8    4071    4131   -4095   -4134       8
    4032    4035   -4065   -4092       8    4020    4026   -4056   -4083       8
    4065    4002   -4035   -4068       8    4056    3996   -4026   -4059       8
    3987    4014   -4008   -4047       8    3981    4032   -3999   -4029       8
    3978    4020   -3993   -4023       8    3975    4014   -3990   -4017       8
    4008    3972   -3987   -4011       8    3927    3963   -3948   -3969       8
    3924    3963   -3942   -3966       8    3921    3954   -3936   -3960       8
    3915    3948   -3927   -3951       8    3915    3942   -3924   -3945       8
    3912    3936   -3921   -3939       8    3912    3930   -3918   -3933       8
    3876    3900   -3894   -3906       8    3873    3900   -3888   -3903       8
    3867    3894   -3876   -3897       8    3867    3888   -3873   -3891       8
    4611    4731   -4680   -4737       8    4608    4731   -4674   -4734       8
    4605    4722   -4668   -4728       8    4602    4722   -4662   -4725       8
    4599    4713   -4656   -4719       8    4596    4713   -4650   -4716       8
    4593    4707   -4644   -4710       8    4590    4707   -4638   -4704       8
    4587    4695   -4635   -4701       8    4584    4695   -4629   -4698       8
    4581    4686   -4620   -4692       8    4578    4686   -4614   -4689       8
    4572    4680   -4611   -4683       8    4572    4674   -4608   -4677       8
    4569    4668   -4605   -4671       8    4569    4662   -4602   -4665       8
    4563    4656   -4599   -4659       8    4563    4650   -4596   -4653       8
    4560    4644   -4593   -4647       8    4560    4638   -4590   -4641       8
    4557    4635   -4587   -4632       8    4557    4629   -4584   -4626       8
    4554    4620   -4581   -4623       8    4554    4614   -4578   -4617       8
    4515    4518   -4548   -4575       8    4503    4509   -4539   -4566       8
    4548    4485   -4518   -4551       8    4539    4479   -4509   -4542       8
    4470    4497   -4491   -4530       8    4464    4515   -4482   -4512       8
    4461    4503   -4476   -4506       8    4458    4497   -4473   -4500       8
    4491    4455   -4470   -4494       8    4410    4446   -4431   -4452       8
    4407    4446   -4425   -4449       8    4404    4437   -4419   -4443       8
    4398    4431   -4410   -4434       8    4398    4425   -4407   -4428       8
    4395    4419   -4404   -4422       8    4395    4413   -4401   -4416       8
    4359    4383   -4377   -4389       8    4356    4383   -4371   -4386       8
    4350    4377   -4359   -4380       8    4350    4371   -4356   -4374       8
    5094    5214   -5163   -5220       8    5091    5214   -5157   -5217       8
    5088    5205   -5151   -5211       8    5085    5205   -5145   -5208       8
    5082    5196   -5139   -5202       8    5079    5196   -5133   -5199       8
    5076    5190   -5127   -5193       8    5073    5190   -5121   -5187       8
    5070    5178   -5118   -5184       8    5067    5178   -5112   -5181       8
    5064    5169   -5103   -5175       8    5061    5169   -5097   -5172       8
    5055    5163   -5094   -5166       8    5055    5157   -5091   -5160       8
    5052    5151   -5088   -5154       8    5052    5145   -5085   -5148       8
    5046    5139   -5082   -5142       8    5046    5133   -5079   -5136       8
    5043    5127   -5076   -5130       8    5043    5121   -5073   -5124       8
    5040    5118   -5070   -5115       8    5040    5112   -5067   -5109       8
    5037    5103   -5064   -5106       8    5037    5097   -5061   -5100       8
    4998    5001   -5031   -5058       8    4986    4992   -5022   -5049       8
    5031    4968   -5001   -5034       8    5022    4962   -4992   -5025       8
    4953    4980   -4974   -5013       8    4947    4998   -4965   -4995       8
    4944    4986   -4959   -4989       8    4941    4980   -4956   -4983       8
    4974    4938   -4953   -4977       8    4893    4929   -4914   -4935       8
    4890    4929   -4908   -4932       8    4887    4920   -4902   -4926       8
    4881    4914   -4893   -4917       8    4881    4908   -4890   -4911       8
    4878    4902   -4887   -4905       8    4878    4896   -4884   -4899       8
    4842    4866   -4860   -4872       8    4839    4866   -4854   -4869       8
    4833    4860   -4842   -4863       8    4833    4854   -4839   -4857       8
    5577    5697   -5646   -5703       8    5574    5697   -5640   -5700       8
    5571    5688   -5634   -5694       8    5568    5688   -5628   -5691       8
    5565    5679   -5622   -5685       8    5562    5679   -5616   -5682       8
    5559    5673   -5610   -5676       8    5556    5673   -5604   -5670       8
    5553    5661   -5601   -5667       8    5550    5661   -5595   -5664       8
    5547    5652   -5586   -5658       8    5544    5652   -5580   -5655       8
    5538    5646   -5577   -5649       8    5538    5640   -5574   -5643       8
    5535    5634   -5571   -5637       8    5535    5628   -5568   -5631       8
    5529    5622   -5565   -5625       8    5529    5616   -5562   -5619       8
    5526    5610   -5559   -5613       8    5526    5604   -5556   -5607       8
    5523    5601   -5553   -5598       8    5523    5595   -5550   -5592       8
    5520    5586   -5547   -5589       8    5520    5580   -5544   -5583       8
    5481    5484   -5514   -5541       8    5469    5475   -5505   -5532       8
    5514    5451   -5484   -5517       8    5505    5445   -5475   -5508       8
    5436    5463   -5457   -5496       8    5430    5481   -5448   -5478       8
    5427    5469   -5442   -5472       8    5424    5463   -5439   -5466       8
    5457    5421   -5436   -5460       8    5376    5412   -5397   -5418       8
    5373    5412   -5391   -5415       8    5370    5403   -5385   -5409       8
    5364    5397   -5376   -5400       8    5364    5391   -5373   -5394       8
    5361    5385   -5370   -5388       8    5361    5379   -5367   -5382       8
    5325    5349   -5343   -5355       8    5322    5349   -5337   -5352       8
    5316    5343   -5325   -5346       8    5316    5337   -5322   -5340       8
    6060    6180   -6129   -6186       8    6057    6180   -6123   -6183       8
    6054    6171   -6117   -6177       8    6051    6171   -6111   -6174       8
    6048    6162   -6105   -6168       8    6045    6162   -6099   -6165       8
    6042    6156   -6093   -6159       8    6039    6156   -6087   -6153       8
    6036    6144   -6084   -6150       8    6033    6144   -6078   -6147       8
    6030    6135   -6069   -6141       8    6027    6135   -6063   -6138       8
    6021    6129   -6060   -6132       8    6021    6123   -6057   -6126       8
    6018    6117   -6054   -6120       8    6018    6111   -6051   -6114       8
    6012    6105   -6048   -6108       8    6012    6099   -6045   -6102       8
    6009    6093   -6042   -6096       8    6009    6087   -6039   -6090       8
    6006    6084   -6036   -6081       8    6006    6078   -6033   -6075       8
    6003    6069   -6030   -6072       8    6003    6063   -6027   -6066       8
    5964    5967   -5997   -6024       8    5952    5958   -5988   -6015       8
    5997    5934   -5967   -6000       8    5988    5928   -5958   -5991       8
    5919    5946   -5940   -5979       8    5913    5964   -5931   -5961       8
    5910    5952   -5925   -5955       8    5907    5946   -5922   -5949       8
    5940    5904   -5919   -5943       8    5859    5895   -5880   -5901       8
    5856    5895   -5874   -5898       8    5853    5886   -5868   -5892       8
    5847    5880   -5859   -5883       8    5847    5874   -5856   -5877       8
    5844    5868   -5853   -5871       8    5844    5862   -5850   -5865       8
    5808    5832   -5826   -5838       8    5805    5832   -5820   -5835       8
    5799    5826   -5808   -5829       8    5799    5820   -5805   -5823       8
    6543    6663   -6612   -6669       8    6540    6663   -6606   -6666       8
    6537    6654   -6600   -6660       8    6534    6654   -6594   -6657       8
    6531    6645   -6588   -6651       8    6528    6645   -6582   -6648       8
    6525    6639   -6576   -6642       8    6522    6639   -6570   -6636       8
    6519    6627   -6567   -6633       8    6516    6627   -6561   -6630       8
    6513    6618   -6552   -6624       8    6510    6618   -6546   -6621       8
    6504    6612   -6543   -6615       8    6504    6606   -6540   -6609       8
    6501    6600   -6537   -6603       8    6501    6594   -6534   -6597       8
    6495    6588   -6531   -6591       8    6495    6582   -6528   -6585       8
    6492    6576   -6525   -6579       8    6492    6570   -6522   -6573       8
    6489    6567   -6519   -6564       8    6489    6561   -6516   -6558       8
    6486    6552   -6513   -6555       8    6486    6546   -6510   -6549       8
    6447    6450   -6480   -6507       8    6435    6441   -6471   -6498       8
    6480    6417   -6450   -6483       8    6471    6411   -6441   -6474       8
    6402    6429   -6423   -6462       8    6396    6447   -6414   -6444       8
    6393    6435   -6408   -6438       8    6390    6429   -6405   -6432       8
    6423    6387   -6402   -6426       8    6342    6378   -6363   -6384       8
    6339    6378   -6357   -6381       8    6336    6369   -6351   -6375       8
    6330    6363   -6342   -6366       8    6330    6357   -6339   -6360       8
    6327    6351   -6336   -6354       8    6327    6345   -6333   -6348       8
    6291    6315   -6309   -6321       8    6288    6315   -6303   -6318       8
    6282    6309   -6291   -6312       8    6282    6303   -6288   -6306       8
    7026    7146   -7095   -7152       8    7023    7146   -7089   -7149       8
    7020    7137   -7083   -7143       8    7017    7137   -7077   -7140       8
    7014    7128   -7071   -7134       8    7011    7128   -7065   -7131       8
    7008    7122   -7059   -7125       8    7005    7122   -7053   -7119       8
    7002    7110   -7050   -7116       8    6999    7110   -7044   -7113       8
    6996    7101   -7035   -7107       8    6993    7101   -7029   -7104       8
    6987    7095   -7026   -7098       8    6987    7089   -7023   -7092       8
    6984    7083   -7020   -7086       8    6984    7077   -7017   -7080       8
    6978    7071   -7014   -7074       8    6978    7065   -7011   -7068       8
    6975    7059   -7008   -7062       8    6975    7053   -7005   -7056       8
    6972    7050   -7002   -7047       8    6972    7044   -6999   -7041       8
    6969    7035   -6996   -7038       8    6969    7029   -6993   -7032       8
    6930    6933   -6963   -6990       8    6918    6924   -6954   -6981       8
    6963    6900   -6933   -6966       8    6954    6894   -6924   -6957       8
    6885    6912   -6906   -6945       8    6879    6930   -6897   -6927       8
    6876    6918   -6891   -6921       8    6873    6912   -6888   -6915       8
    6906    6870   -6885   -6909       8    6825    6861   -6846   -6867       8
    6822    6861   -6840   -6864       8    6819    6852   -6834   -6858       8
    6813    6846   -6825   -6849       8    6813    6840   -6822   -6843       8
    6810    6834   -6819   -6837       8    6810    6828   -6816   -6831       8
    6774    6798   -6792   -6804       8    6771    6798   -6786   -6801       8
    6765    6792   -6774   -6795       8    6765    6786   -6771   -6789       8
    7509    7629   -7578   -7635       8    7506    7629   -7572   -7632       8
    7503    7620   -7566   -7626       8    7500    7620   -7560   -7623       8
    7497    7611   -7554   -7617       8    7494    7611   -7548   -7614       8
    7491    7605   -7542   -7608       8    7488    7605   -7536   -7602       8
    7485    7593   -7533   -7599       8    7482    7593   -7527   -7596       8
    7479    7584   -7518   -7590       8    7476    7584   -7512   -7587       8
    7470    7578   -7509   -7581       8    7470    7572   -7506   -7575       8
    7467    7566   -7503   -7569       8    7467    7560   -7500   -7563       8
    7461    7554   -7497   -7557       8    7461    7548   -7494   -7551       8
    7458    7542   -7491   -7545       8    7458    7536   -7488   -7539       8
    7455    7533   -7485   -7530       8    7455    7527   -7482   -7524       8
    7452    7518   -7479   -7521       8    7452    7512   -7476   -7515       8
    7413    7416   -7446   -7473       8    7401    7407   -7437   -7464       8
    7446    7383   -7416   -7449       8    7437    7377   -7407   -7440       8
    7368    7395   -7389   -7428       8    7362    7413   -7380   -7410       8
    7359    7401   -7374   -7404       8    7356    7395   -7371   -7398       8
    7389    7353   -7368   -7392       8    7308    7344   -7329   -7350       8
    7305    7344   -7323   -7347       8    7302    7335   -7317   -7341       8
    7296    7329   -7308   -7332       8    7296    7323   -7305   -7326       8
    7293    7317   -7302   -7320       8    7293    7311   -7299   -7314       8
    7257    7281   -7275   -7287       8    7254    7281   -7269   -7284       8
    7248    7275   -7257   -7278       8    7248    7269   -7254   -7272       8
    7992    8112   -8061   -8118       8    7989    8112   -8055   -8115       8
    7986    8103   -8049   -8109       8    7983    8103   -8043   -8106       8
    7980    8094   -8037   -8100       8    7977    8094   -8031   -8097       8
    7974    8088   -8025   -8091       8    7971    8088   -8019   -8085       8
    7968    8076   -8016   -8082       8    7965    8076   -8010   -8079       8
    7962    8067   -8001   -8073       8    7959    8067   -7995   -8070       8
    7953    8061   -7992   -8064       8    7953    8055   -7989   -8058       8
    7950    8049   -7986   -8052       8    7950    8043   -7983   -8046       8
    7944    8037   -7980   -8040       8    7944    8031   -7977   -8034       8
    7941    8025   -7974   -8028       8    7941    8019   -7971   -8022       8
    7938    8016   -7968   -8013       8    7938    8010   -7965   -8007       8
    7935    8001   -7962   -8004       8    7935    7995   -7959   -7998       8
    7896    7899   -7929   -7956       8    7884    7890   -7920   -7947       8
    7929    7866   -7899   -7932       8    7920    7860   -7890   -7923       8
    7851    7878   -7872   -7911       8    7845    7896   -7863   -7893       8
    7842    7884   -7857   -7887       8    7839    7878   -7854   -7881       8
    7872    7836   -7851   -7875       8    7791    7827   -7812   -7833       8
    7788    7827   -7806   -7830       8    7785    7818   -7800   -7824       8
    7779    7812   -7791   -7815       8    7779    7806   -7788   -7809       8
    7776    7800   -7785   -7803       8    7776    7794   -7782   -7797       8
    7740    7764   -7758   -7770       8    7737    7764   -7752   -7767       8
    7731    7758   -7740   -7761       8    7731    7752   -7737   -7755       8
    8475    8595   -8544   -8601       8    8472    8595   -8538   -8598       8
    8469    8586   -8532   -8592       8    8466    8586   -8526   -8589       8
    8463    8577   -8520   -8583       8    8460    8577   -8514   -8580       8
    8457    8571   -8508   -8574       8    8454    8571   -8502   -8568       8
    8451    8559   -8499   -8565       8    8448    8559   -8493   -8562       8
    8445    8550   -8484   -8556       8    8442    8550   -8478   -8553       8
    8436    8544   -8475   -8547       8    8436    8538   -8472   -8541       8
    8433    8532   -8469   -8535       8    8433    8526   -8466   -8529       8
    8427    8520   -8463   -8523       8    8427    8514   -8460   -8517       8
    8424    8508   -8457   -8511       8    8424    8502   -8454   -8505       8
    8421    8499   -8451   -8496       8    8421    8493   -8448   -8490       8
    8418    8484   -8445   -8487       8    8418    8478   -8442   -8481       8
    8379    8382   -8412   -8439       8    8367    8373   -8403   -8430       8
    8412    8349   -8382   -8415       8    8403    8343   -8373   -8406       8
    8334    8361   -8355   -8394       8    8328    8379   -8346   -8376       8
    8325    8367   -8340   -8370       8    8322    8361   -8337   -8364       8
    8355    8319   -8334   -8358       8    8274    8310   -8295   -8316       8
    8271    8310   -8289   -8313       8    8268    8301   -8283   -8307       8
    8262    8295   -8274   -8298       8    8262    8289   -8271   -8292       8
    8259    8283   -8268   -8286       8    8259    8277   -8265   -8280       8
    8223    8247   -8241   -8253       8    8220    8247   -8235   -8250       8
    8214    8241   -8223   -8244       8    8214    8235   -8220   -8238       8
    8958    9078   -9027   -9084       8    8955    9078   -9021   -9081       8
    8952    9069   -9015   -9075       8    8949    9069   -9009   -9072       8
    8946    9060   -9003   -9066       8    8943    9060   -8997   -9063       8
    8940    9054   -8991   -9057       8    8937    9054   -8985   -9051       8
    8934    9042   -8982   -9048       8    8931    9042   -8976   -9045       8
    8928    9033   -8967   -9039       8    8925    9033   -8961   -9036       8
    8919    9027   -8958   -9030       8    8919    9021   -8955   -9024       8
    8916    9015   -8952   -9018       8    8916    9009   -8949   -9012       8
    8910    9003   -8946   -9006       8    8910    8997   -8943   -9000       8
    8907    8991   -8940   -8994       8    8907    8985   -8937   -8988       8
    8904    8982   -8934   -8979       8    8904    8976   -8931   -8973       8
    8901    8967   -8928   -8970       8    8901    8961   -8925   -8964       8
    8862    8865   -8895   -8922       8    8850    8856   -8886   -8913       8
    8895    8832   -8865   -8898       8    8886    8826   -8856   -8889       8
    8817    8844   -8838   -8877       8    8811    8862   -8829   -8859       8
    8808    8850   -8823   -8853       8    8805    8844   -8820   -8847       8
    8838    8802   -8817   -8841       8    8757    8793   -8778   -8799       8
    8754    8793   -8772   -8796       8    8751    8784   -8766   -8790       8
    8745    8778   -8757   -8781       8    8745    8772   -8754   -8775       8
    8742    8766   -8751   -8769       8    8742    8760   -8748   -8763       8
    8706    8730   -8724   -8736       8    8703    8730   -8718   -8733       8
    8697    8724   -8706   -8727       8    8697    8718   -8703   -8721       8
    9441    9561   -9510   -9567       8    9438    9561   -9504   -9564       8
    9435    9552   -9498   -9558       8    9432    9552   -9492   -9555       8
    9429    9543   -9486   -9549       8    9426    9543   -9480   -9546       8
    9423    9537   -9474   -9540       8    9420    9537   -9468   -9534       8
    9417    9525   -9465   -9531       8    9414    9525   -9459   -9528       8
    9411    9516   -9450   -9522       8    9408    9516   -9444   -9519       8
    9402    9510   -9441   -9513       8    9402    9504   -9438   -9507       8
    9399    9498   -9435   -9501       8    9399    9492   -9432   -9495       8
    9393    9486   -9429   -9489       8    9393    9480   -9426   -9483       8
    9390    9474   -9423   -9477       8    9390    9468   -9420   -9471       8
    9387    9465   -9417   -9462       8    9387    9459   -9414   -9456       8
    9384    9450   -9411   -9453       8    9384    9444   -9408   -9447       8
    9345    9348   -9378   -9405       8    9333    9339   -9369   -9396       8
    9378    9315   -9348   -9381       8    9369    9309   -9339   -9372       8
    9300    9327   -9321   -9360       8    9294    9345   -9312   -9342       8
    9291    9333   -9306   -9336       8    9288    9327   -9303   -9330       8
    9321    9285   -9300   -9324       8    9240    9276   -9261   -9282       8
    9237    9276   -9255   -9279       8    9234    9267   -9249   -9273       8
    9228    9261   -9240   -9264       8    9228    9255   -9237   -9258       8
    9225    9249   -9234   -9252       8    9225    9243   -9231   -9246       8
    9189    9213   -9207   -9219       8    9186    9213   -9201   -9216       8
    9180    9207   -9189   -9210       8    9180    9201   -9186   -9204       8
    9924   10044   -9993  -10050       8    9921   10044   -9987  -10047       8
    9918   10035   -9981  -10041       8    9915   10035   -9975  -10038       8
    9912   10026   -9969  -10032       8    9909   10026   -9963  -10029       8
    9906   10020   -9957  -10023       8    9903   10020   -9951  -10017       8
    9900   10008   -9948  -10014       8    9897   10008   -9942  -10011       8
    9894    9999   -9933  -10005       8    9891    9999   -9927  -10002       8
    9885    9993   -9924   -9996       8    9885    9987   -9921   -9990       8
    9882    9981   -9918   -9984       8    9882    9975   -9915   -9978       8
    9876    9969   -9912   -9972       8    9876    9963   -9909   -9966       8
    9873    9957   -9906   -9960       8    9873    9951   -9903   -9954       8
    9870    9948   -9900   -9945       8    9870    9942   -9897   -9939       8
    9867    9933   -9894   -9936       8    9867    9927   -9891   -9930       8
    9828    9831   -9861   -9888       8    9816    9822   -9852   -9879       8
    9861    9798   -9831   -9864       8    9852    9792   -9822   -9855       8
    9783    9810   -9804   -9843       8    9777    9828   -9795   -9825       8
    9774    9816   -9789   -9819       8    9771    9810   -9786   -9813       8
    9804    9768   -9783   -9807       8    9723    9759   -9744   -9765       8
    9720    9759   -9738   -9762       8    9717    9750   -9732   -9756       8
    9711    9744   -9723   -9747       8    9711    9738   -9720   -9741       8
    9708    9732   -9717   -9735       8    9708    9726   -9714   -9729       8
    9672    9696   -9690   -9702       8    9669    9696   -9684   -9699       8
    9663    9690   -9672   -9693       8    9663    9684   -9669   -9687       8
   10407   10527  -10476  -10533       8   10404   10527  -10470  -10530       8
   10401   10518  -10464  -10524       8   10398   10518  -10458  -10521       8
   10395   10509  -10452  -10515       8   10392   10509  -10446  -10512       8
   10389   10503  -10440  -10506       8   10386   10503  -10434  -10500       8
   10383   10491  -10431  -10497       8   10380   10491  -10425  -10494       8
   10377   10482  -10416  -10488       8   10374   10482  -10410  -10485       8
   10368   10476  -10407  -10479       8   10368   10470  -10404  -10473       8
   10365   10464  -10401  -10467       8   10365   10458  -10398  -10461       8
   10359   10452  -10395  -10455       8   10359   10446  -10392  -10449       8
   10356   10440  -10389  -10443       8   10356   10434  -10386  -10437       8
   10353   10431  -10383  -10428       8   10353   10425  -10380  -10422       8
   10350   10416  -10377  -10419       8   10350   10410  -10374  -10413       8
   10311   10314  -10344  -10371       8   10299   10305  -10335  -10362       8
   10344   10281  -10314  -10347       8   10335   10275  -10305  -10338       8
   10266   10293  -10287  -10326       8   10260   10311  -10278  -10308       8
   10257   10299  -10272  -10302       8   10254   10293  -10269  -10296       8
   10287   10251  -10266  -10290       8   10206   10242  -10227  -10248       8
   10203   10242  -10221  -10245       8   10200   10233  -10215  -10239       8
   10194   10227  -10206  -10230       8   10194   10221  -10203  -10224       8
   10191   10215  -10200  -10218       8   10191   10209  -10197  -10212       8
   10155   10179  -10173  -10185       8   10152   10179  -10167  -10182       8
   10146   10173  -10155  -10176       8   10146   10167  -10152  -10170       8
   10890   11010  -10959  -11016       8   10887   11010  -10953  -11013       8
   10884   11001  -10947  -11007       8   10881   11001  -10941  -11004       8
   10878   10992  -10935  -10998       8   10875   10992  -10929  -10995       8
   10872   10986  -10923  -10989       8   10869   10986  -10917  -10983       8
   10866   10974  -10914  -10980       8   10863   10974  -10908  -10977       8
   10860   10965  -10899  -10971       8   10857   10965  -10893  -10968       8
   10851   10959  -10890  -10962       8   10851   10953  -10887  -10956       8
   10848   10947  -10884  -10950       8   10848   10941  -10881  -10944       8
   10842   10935  -10878  -10938       8   10842   10929  -10875  -10932       8
   10839   10923  -10872  -10926       8   10839   10917  -10869  -10920       8
   10836   10914  -10866  -10911       8   10836   10908  -10863  -10905       8
   10833   10899  -10860  -10902       8   10833   10893  -10857  -10896       8
   10794   10797  -10827  -10854       8   10782   10788  -10818  -10845       8
   10827   10764  -10797  -10830       8   10818   10758  -10788  -10821       8
   10749   10776  -10770  -10809       8   10743   10794  -10761  -10791       8
   10740   10782  -10755  -10785       8   10737   10776  -10752  -10779       8
   10770   10734  -10749  -10773       8   10689   10725  -10710  -10731       8
   10686   10725  -10704  -10728       8   10683   10716  -10698  -10722       8
   10677   10710  -10689  -10713       8   10677   10704  -10686  -10707       8
   10674   10698  -10683  -10701       8   10674   10692  -10680  -10695       8
   10638   10662  -10656  -10668       8   10635   10662  -10650  -10665       8
   10629   10656  -10638  -10659       8   10629   10650  -10635  -10653       8
   11373   11493  -11442  -11499       8   11370   11493  -11436  -11496       8
   11367   11484  -11430  -11490       8   11364   11484  -11424  -11487       8
   11361   11475  -11418  -11481       8   11358   11475  -11412  -11478       8
   11355   11469  -11406  -11472       8   11352   11469  -11400  -11466       8
   11349   11457  -11397  -11463       8   11346   11457  -11391  -11460       8
   11343   11448  -11382  -11454       8   11340   11448  -11376  -11451       8
   11334   11442  -11373  -11445       8   11334   11436  -11370  -11439       8
   11331   11430  -11367  -11433       8   11331   11424  -11364  -11427       8
   11325   11418  -11361  -11421       8   11325   11412  -11358  -11415       8
   11322   11406  -11355  -11409       8   11322   11400  -11352  -11403       8
   11319   11397  -11349  -11394       8   11319   11391  -11346  -11388       8
   11316   11382  -11343  -11385       8   11316   11376  -11340  -11379       8
   11277   11280  -11310  -11337       8   11265   11271  -11301  -11328       8
   11310   11247  -11280  -11313       8   11301   11241  -11271  -11304       8
   11232   11259  -11253  -11292       8   11226   11277  -11244  -11274       8
   11223   11265  -11238  -11268       8   11220   11259  -11235  -11262       8
   11253   11217  -11232  -11256       8   11172   11208  -11193  -11214       8
   11169   11208  -11187  -11211       8   11166   11199  -11181  -11205       8
   11160   11193  -11172  -11196       8   11160   11187  -11169  -11190       8
   11157   11181  -11166  -11184       8   11157   11175  -11163  -11178       8
   11121   11145  -11139  -11151       8   11118   11145  -11133  -11148       8
   11112   11139  -11121  -11142       8   11112   11133  -11118  -11136       8
   11856   11976  -11925  -11982       8   11853   11976  -11919  -11979       8
   11850   11967  -11913  -11973       8   11847   11967  -11907  -11970       8
   11844   11958  -11901  -11964       8   11841   11958  -11895  -11961       8
   11838   11952  -11889  -11955       8   11835   11952  -11883  -11949       8
   11832   11940  -11880  -11946       8   11829   11940  -11874  -11943       8
   11826   11931  -11865  -11937       8   11823   11931  -11859  -11934       8
   11817   11925  -11856  -11928       8   11817   11919  -11853  -11922       8
   11814   11913  -11850  -11916       8   11814   11907  -11847  -11910       8
   11808   11901  -11844  -11904       8   11808   11895  -11841  -11898       8
   11805   11889  -11838  -11892       8   11805   11883  -11835  -11886       8
   11802   11880  -11832  -11877       8   11802   11874  -11829  -11871       8
   11799   11865  -11826  -11868       8   11799   11859  -11823  -11862       8
   11760   11763  -11793  -11820       8   11748   11754  -11784  -11811       8
   11793   11730  -11763  -11796       8   11784   11724  -11754  -11787       8
   11715   11742  -11736  -11775       8   11709   11760  -11727  -11757       8
   11706   11748  -11721  -11751       8   11703   11742  -11718  -11745       8
   11736   11700  -11715  -11739       8   11655   11691  -11676  -11697       8
   11652   11691  -11670  -11694       8   11649   11682  -11664  -11688       8
   11643   11676  -11655  -11679       8   11643   11670  -11652  -11673       8
   11640   11664  -11649  -11667       8   11640   11658  -11646  -11661       8
   11604   11628  -11622  -11634       8   11601   11628  -11616  -11631       8
   11595   11622  -11604  -11625       8   11595   11616  -11601  -11619       8
   12339   12459  -12408  -12465       8   12336   12459  -12402  -12462       8
   12333   12450  -12396  -12456       8   12330   12450  -12390  -12453       8
   12327   12441  -12384  -12447       8   12324   12441  -12378  -12444       8
   12321   12435  -12372  -12438       8   12318   12435  -12366  -12432       8
   12315   12423  -12363  -12429       8   12312   12423  -12357  -12426       8
   12309   12414  -12348  -12420       8   12306   12414  -12342  -12417       8
   12300   12408  -12339  -12411       8   12300   12402  -12336  -12405       8
   12297   12396  -12333  -12399       8   12297   12390  -12330  -12393       8
   12291   12384  -12327  -12387       8   12291   12378  -12324  -12381       8
   12288   12372  -12321  -12375       8   12288   12366  -12318  -12369       8
   12285   12363  -12315  -12360       8   12285   12357  -12312  -12354       8
   12282   12348  -12309  -12351       8   12282   12342  -12306  -12345       8
   12243   12246  -12276  -12303       8   12231   12237  -12267  -12294       8
   12276   12213  -12246  -12279       8   12267   12207  -12237  -12270       8
   12198   12225  -12219  -12258       8   12192   12243  -12210  -12240       8
   12189   12231  -12204  -12234       8   12186   12225  -12201  -12228       8
   12219   12183  -12198  -12222       8   12138   12174  -12159  -12180       8
   12135   12174  -12153  -12177       8   12132   12165  -12147  -12171       8
   12126   12159  -12138  -12162       8   12126   12153  -12135  -12156       8
   12123   12147  -12132  -12150       8   12123   12141  -12129  -12144       8
   12087   12111  -12105  -12117       8   12084   12111  -12099  -12114       8
   12078   12105  -12087  -12108       8   12078   12099  -12084  -12102       8
   12822   12942  -12891  -12948       8   12819   12942  -12885  -12945       8
   12816   12933  -12879  -12939       8   12813   12933  -12873  -12936       8
   12810   12924  -12867  -12930       8   12807   12924  -12861  -12927       8
   12804   12918  -12855  -12921       8   12801   12918  -12849  -12915       8
   12798   12906  -12846  -12912       8   12795   12906  -12840  -12909       8
   12792   12897  -12831  -12903       8   12789   12897  -12825  -12900       8
   12783   12891  -12822  -12894       8   12783   12885  -12819  -12888       8
   12780   12879  -12816  -12882       8   12780   12873  -12813  -12876       8
   12774   12867  -12810  -12870       8   12774   12861  -12807  -12864       8
   12771   12855  -12804  -12858       8   12771   12849  -12801  -12852       8
   12768   12846  -12798  -12843       8   12768   12840  -12795  -12837       8
   12765   12831  -12792  -12834       8   12765   12825  -12789  -12828       8
   12726   12729  -12759  -12786       8   12714   12720  -12750  -12777       8
   12759   12696  -12729  -12762       8   12750   12690  -12720  -12753       8
   12681   12708  -12702  -12741       8   12675   12726  -12693  -12723       8
   12672   12714  -12687  -12717       8   12669   12708  -12684  -12711       8
   12702   12666  -12681  -12705       8   12621   12657  -12642  -12663       8
   12618   12657  -12636  -12660       8   12615   12648  -12630  -12654       8
   12609   12642  -12621  -12645       8   12609   12636  -12618  -12639       8
   12606   12630  -12615  -12633       8   12606   12624  -12612  -12627       8
   12570   12594  -12588  -12600       8   12567   12594  -12582  -12597       8
   12561   12588  -12570  -12591       8   12561   12582  -12567  -12585       8
   13305   13425  -13374  -13431       8   13302   13425  -13368  -13428       8
   13299   13416  -13362  -13422       8   13296   13416  -13356  -13419       8
   13293   13407  -13350  -13413       8   13290   13407  -13344  -13410       8
   13287   13401  -13338  -13404       8   13284   13401  -13332  -13398       8
   13281   13389  -13329  -13395       8   13278   13389  -13323  -13392       8
   13275   13380  -13314  -13386       8   13272   13380  -13308  -13383       8
   13266   13374  -13305  -13377       8   13266   13368  -13302  -13371       8
   13263   13362  -13299  -13365       8   13263   13356  -13296  -13359       8
   13257   13350  -13293  -13353       8   13257   13344  -13290  -13347       8
   13254   13338  -13287  -13341       8   13254   13332  -13284  -13335       8
   13251   13329  -13281  -13326       8   13251   13323  -13278  -13320       8
   13248   13314  -13275  -13317       8   13248   13308  -13272  -13311       8
   13209   13212  -13242  -13269       8   13197   13203  -13233  -13260       8
   13242   13179  -13212  -13245       8   13233   13173  -13203  -13236       8
   13164   13191  -13185  -13224       8   13158   13209  -13176  -13206       8
   13155   13197  -13170  -13200       8   13152   13191  -13167  -13194       8
   13185   13149  -13164  -13188       8   13104   13140  -13125  -13146       8
   13101   13140  -13119  -13143       8   13098   13131  -13113  -13137       8
   13092   13125  -13104  -13128       8   13092   13119  -13101  -13122       8
   13089   13113  -13098  -13116       8   13089   13107  -13095  -13110       8
   13053   13077  -13071  -13083       8   13050   13077  -13065  -13080       8
   13044   13071  -13053  -13074       8   13044   13065  -13050  -13068       8
   13788   13908  -13857  -13914       8   13785   13908  -13851  -13911       8
   13782   13899  -13845  -13905       8   13779   13899  -13839  -13902       8
   13776   13890  -13833  -13896       8   13773   13890  -13827  -13893       8
   13770   13884  -13821  -13887       8   13767   13884  -13815  -13881       8
   13764   13872  -13812  -13878       8   13761   13872  -13806  -13875       8
   13758   13863  -13797  -13869       8   13755   13863  -13791  -13866       8
   13749   13857  -13788  -13860       8   13749   13851  -13785  -13854       8
   13746   13845  -13782  -13848       8   13746   13839  -13779  -13842       8
   13740   13833  -13776  -13836       8   13740   13827  -13773  -13830       8
   13737   13821  -13770  -13824       8   13737   13815  -13767  -13818       8
   13734   13812  -13764  -13809       8   13734   13806  -13761  -13803       8
   13731   13797  -13758  -13800       8   13731   13791  -13755  -13794       8
   13692   13695  -13725  -13752       8   13680   13686  -13716  -13743       8
   13725   13662  -13695  -13728       8   13716   13656  -13686  -13719       8
   13647   13674  -13668  -13707       8   13641   13692  -13659  -13689       8
   13638   13680  -13653  -13683       8   13635   13674  -13650  -13677       8
   13668   13632  -13647  -13671       8   13587   13623  -13608  -13629       8
   13584   13623  -13602  -13626       8   13581   13614  -13596  -13620       8
   13575   13608  -13587  -13611       8   13575   13602  -13584  -13605       8
   13572   13596  -13581  -13599       8   13572   13590  -13578  -13593       8
   13536   13560  -13554  -13566       8   13533   13560  -13548  -13563       8
   13527   13554  -13536  -13557       8   13527   13548  -13533  -13551       8
   14271   14391  -14340  -14397       8   14268   14391  -14334  -14394       8
   14265   14382  -14328  -14388       8   14262   14382  -14322  -14385       8
   14259   14373  -14316  -14379       8   14256   14373  -14310  -14376       8
   14253   14367  -14304  -14370       8   14250   14367  -14298  -14364       8
   14247   14355  -14295  -14361       8   14244   14355  -14289  -14358       8
   14241   14346  -14280  -14352       8   14238   14346  -14274  -14349       8
   14232   14340  -14271  -14343       8   14232   14334  -14268  -14337       8
   14229   14328  -14265  -14331       8   14229   14322  -14262  -14325       8
   14223   14316  -14259  -14319       8   14223   14310  -14256  -14313       8
   14220   14304  -14253  -14307       8   14220   14298  -14250  -14301       8
   14217   14295  -14247  -14292       8   14217   14289  -14244  -14286       8
   14214   14280  -14241  -14283       8   14214   14274  -14238  -14277       8
   14175   14178  -14208  -14235       8   14163   14169  -14199  -14226       8
   14208   14145  -14178  -14211       8   14199   14139  -14169  -14202       8
   14130   14157  -14151  -14190       8   14124   14175  -14142  -14172       8
   14121   14163  -14136  -14166       8   14118   14157  -14133  -14160       8
   14151   14115  -14130  -14154       8   14070   14106  -14091  -14112       8
   14067   14106  -14085  -14109       8   14064   14097  -14079  -14103       8
   14058   14091  -14070  -14094       8   14058   14085  -14067  -14088       8
   14055   14079  -14064  -14082       8   14055   14073  -14061  -14076       8
   14019   14043  -14037  -14049       8   14016   14043  -14031  -14046       8
   14010   14037  -14019  -14040       8   14010   14031  -14016  -14034       8
   14754   14874  -14823  -14880       8   14751   14874  -14817  -14877       8
   14748   14865  -14811  -14871       8   14745   14865  -14805  -14868       8
   14742   14856  -14799  -14862       8   14739   14856  -14793  -14859       8
   14736   14850  -14787  -14853       8   14733   14850  -14781  -14847       8
   14730   14838  -14778  -14844       8   14727   14838  -14772  -14841       8
   14724   14829  -14763  -14835       8   14721   14829  -14757  -14832       8
   14715   14823  -14754  -14826       8   14715   14817  -14751  -14820       8
   14712   14811  -14748  -14814       8   14712   14805  -14745  -14808       8
   14706   14799  -14742  -14802       8   14706   14793  -14739  -14796       8
   14703   14787  -14736  -14790       8   14703   14781  -14733  -14784       8
   14700   14778  -14730  -14775       8   14700   14772  -14727  -14769       8
   14697   14763  -14724  -14766       8   14697   14757  -14721  -14760       8
   14658   14661  -14691  -14718       8   14646   14652  -14682  -14709       8
   14691   14628  -14661  -14694       8   14682   14622  -14652  -14685       8
   14613   14640  -14634  -14673       8   14607   14658  -14625  -14655       8
   14604   14646  -14619  -14649       8   14601   14640  -14616  -14643       8
   14634   14598  -14613  -14637       8   14553   14589  -14574  -14595       8
   14550   14589  -14568  -14592       8   14547   14580  -14562  -14586       8
   14541   14574  -14553  -14577       8   14541   14568  -14550  -14571       8
   14538   14562  -14547  -14565       8   14538   14556  -14544  -14559       8
   14502   14526  -14520  -14532       8   14499   14526  -14514  -14529       8
   14493   14520  -14502  -14523       8   14493   14514  -14499  -14517       8
   15237   15357  -15306  -15363       8   15234   15357  -15300  -15360       8
   15231   15348  -15294  -15354       8   15228   15348  -15288  -15351       8
   15225   15339  -15282  -15345       8   15222   15339  -15276  -15342       8
   15219   15333  -15270  -15336       8   15216   15333  -15264  -15330       8
   15213   15321  -15261  -15327       8   15210   15321  -15255  -15324       8
   15207   15312  -15246  -15318       8   15204   15312  -15240  -15315       8
   15198   15306  -15237  -15309       8   15198   15300  -15234  -15303       8
   15195   15294  -15231  -15297       8   15195   15288  -15228  -15291       8
   15189   15282  -15225  -15285       8   15189   15276  -15222  -15279       8
   15186   15270  -15219  -15273       8   15186   15264  -15216  -15267       8
   15183   15261  -15213  -15258       8   15183   15255  -15210  -15252       8
   15180   15246  -15207  -15249       8   15180   15240  -15204  -15243       8
   15141   15144  -15174  -15201       8   15129   15135  -15165  -15192       8
   15174   15111  -15144  -15177       8   15165   15105  -15135  -15168       8
   15096   15123  -15117  -15156       8   15090   15141  -15108  -15138       8
   15087   15129  -15102  -15132       8   15084   15123  -15099  -15126       8
   15117   15081  -15096  -15120       8   15036   15072  -15057  -15078       8
   15033   15072  -15051  -15075       8   15030   15063  -15045  -15069       8
   15024   15057  -15036  -15060       8   15024   15051  -15033  -15054       8
   15021   15045  -15030  -15048       8   15021   15039  -15027  -15042       8
   14985   15009  -15003  -15015       8   14982   15009  -14997  -15012       8
   14976   15003  -14985  -15006       8   14976   14997  -14982  -15000       8
   15720   15840  -15789  -15846       8   15717   15840  -15783  -15843       8
   15714   15831  -15777  -15837       8   15711   15831  -15771  -15834       8
   15708   15822  -15765  -15828       8   15705   15822  -15759  -15825       8
   15702   15816  -15753  -15819       8   15699   15816  -15747  -15813       8
   15696   15804  -15744  -15810       8   15693   15804  -15738  -15807       8
   15690   15795  -15729  -15801       8   15687   15795  -15723  -15798       8
   15681   15789  -15720  -15792       8   15681   15783  -15717  -15786       8
   15678   15777  -15714  -15780       8   15678   15771  -15711  -15774       8
   15672   15765  -15708  -15768       8   15672   15759  -15705  -15762       8
   15669   15753  -15702  -15756       8   15669   15747  -15699  -15750       8
   15666   15744  -15696  -15741       8   15666   15738  -15693  -15735       8
   15663   15729  -15690  -15732       8   15663   15723  -15687  -15726       8
   15624   15627  -15657  -15684       8   15612   15618  -15648  -15675       8
   15657   15594  -15627  -15660       8   15648   15588  -15618  -15651       8
   15579   15606  -15600  -15639       8   15573   15624  -15591  -15621       8
   15570   15612  -15585  -15615       8   15567   15606  -15582  -15609       8
   15600   15564  -15579  -15603       8   15519   15555  -15540  -15561       8
   15516   15555  -15534  -15558       8   15513   15546  -15528  -15552       8
   15507   15540  -15519  -15543       8   15507   15534  -15516  -15537       8
   15504   15528  -15513  -15531       8   15504   15522  -15510  -15525       8
   15468   15492  -15486  -15498       8   15465   15492  -15480  -15495       8
   15459   15486  -15468  -15489       8   15459   15480  -15465  -15483       8
   16203   16323  -16272  -16329       8   16200   16323  -16266  -16326       8
   16197   16314  -16260  -16320       8   16194   16314  -16254  -16317       8
   16191   16305  -16248  -16311       8   16188   16305  -16242  -16308       8
   16185   16299  -16236  -16302       8   16182   16299  -16230  -16296       8
   16179   16287  -16227  -16293       8   16176   16287  -16221  -16290       8
   16173   16278  -16212  -16284       8   16170   16278  -16206  -16281       8
   16164   16272  -16203  -16275       8   16164   16266  -16200  -16269       8
   16161   16260  -16197  -16263       8   16161   16254  -16194  -16257       8
   16155   16248  -16191  -16251       8   16155   16242  -16188  -16245       8
   16152   16236  -16185  -16239       8   16152   16230  -16182  -16233       8
   16149   16227  -16179  -16224       8   16149   16221  -16176  -16218       8
   16146   16212  -16173  -16215       8   16146   16206  -16170  -16209       8
   16107   16110  -16140  -16167       8   16095   16101  -16131  -16158       8
   16140   16077  -16110  -16143       8   16131   16071  -16101  -16134       8
   16062   16089  -16083  -16122       8   16056   16107  -16074  -16104       8
   16053   16095  -16068  -16098       8   16050   16089  -16065  -16092       8
   16083   16047  -16062  -16086       8   16002   16038  -16023  -16044       8
   15999   16038  -16017  -16041       8   15996   16029  -16011  -16035       8
   15990   16023  -16002  -16026       8   15990   16017  -15999  -16020       8
   15987   16011  -15996  -16014       8   15987   16005  -15993  -16008       8
   15951   15975  -15969  -15981       8   15948   15975  -15963  -15978       8
   15942   15969  -15951  -15972       8   15942   15963  -15948  -15966       8
   16686   16806  -16755  -16812       8   16683   16806  -16749  -16809       8
   16680   16797  -16743  -16803       8   16677   16797  -16737  -16800       8
   16674   16788  -16731  -16794       8   16671   16788  -16725  -16791       8
   16668   16782  -16719  -16785       8   16665   16782  -16713  -16779       8
   16662   16770  -16710  -16776       8   16659   16770  -16704  -16773       8
   16656   16761  -16695  -16767       8   16653   16761  -16689  -16764       8
   16647   16755  -16686  -16758       8   16647   16749  -16683  -16752       8
   16644   16743  -16680  -16746       8   16644   16737  -16677  -16740       8
   16638   16731  -16674  -16734       8   16638   16725  -16671  -16728       8
   16635   16719  -16668  -16722       8   16635   16713  -16665  -16716       8
   16632   16710  -16662  -16707       8   16632   16704  -16659  -16701       8
   16629   16695  -16656  -16698       8   16629   16689  -16653  -16692       8
   16590   16593  -16623  -16650       8   16578   16584  -16614  -16641       8
   16623   16560  -16593  -16626       8   16614   16554  -16584  -16617       8
   16545   16572  -16566  -16605       8   16539   16590  -16557  -16587       8
   16536   16578  -16551  -16581       8   16533   16572  -16548  -16575       8
   16566   16530  -16545  -16569       8   16485   16521  -16506  -16527       8
   16482   16521  -16500  -16524       8   16479   16512  -16494  -16518       8
   16473   16506  -16485  -16509       8   16473   16500  -16482  -16503       8
   16470   16494  -16479  -16497       8   16470   16488  -16476  -16491       8
   16434   16458  -16452  -16464       8   16431   16458  -16446  -16461       8
   16425   16452  -16434  -16455       8   16425   16446  -16431  -16449       8
   17169   17289  -17238  -17295       8   17166   17289  -17232  -17292       8
   17163   17280  -17226  -17286       8   17160   17280  -17220  -17283       8
   17157   17271  -17214  -17277       8   17154   17271  -17208  -17274       8
   17151   17265  -17202  -17268       8   17148   17265  -17196  -17262       8
   17145   17253  -17193  -17259       8   17142   17253  -17187  -17256       8
   17139   17244  -17178  -17250       8   17136   17244  -17172  -17247       8
   17130   17238  -17169  -17241       8   17130   17232  -17166  -17235       8
   17127   17226  -17163  -17229       8   17127   17220  -17160  -17223       8
   17121   17214  -17157  -17217       8   17121   17208  -17154  -17211       8
   17118   17202  -17151  -17205       8   17118   17196  -17148  -17199       8
   17115   17193  -17145  -17190       8   17115   17187  -17142  -17184       8
   17112   17178  -17139  -17181       8   17112   17172  -17136  -17175       8
   17073   17076  -17106  -17133       8   17061   17067  -17097  -17124       8
   17106   17043  -17076  -17109       8   17097   17037  -17067  -17100       8
   17028   17055  -17049  -17088       8   17022   17073  -17040  -17070       8
   17019   17061  -17034  -17064       8   17016   17055  -17031  -17058       8
   17049   17013  -17028  -17052       8   16968   17004  -16989  -17010       8
   16965   17004  -16983  -17007       8   16962   16995  -16977  -17001       8
   16956   16989  -16968  -16992       8   16956   16983  -16965  -16986       8
   16953   16977  -16962  -16980       8   16953   16971  -16959  -16974       8
   16917   16941  -16935  -16947       8   16914   16941  -16929  -16944       8
   16908   16935  -16917  -16938       8   16908   16929  -16914  -16932       8
   17652   17772  -17721  -17778       8   17649   17772  -17715  -17775       8
   17646   17763  -17709  -17769       8   17643   17763  -17703  -17766       8
   17640   17754  -17697  -17760       8   17637   17754  -17691  -17757       8
   17634   17748  -17685  -17751       8   17631   17748  -17679  -17745       8
   17628   17736  -17676  -17742       8   17625   17736  -17670  -17739       8
   17622   17727  -17661  -17733       8   17619   17727  -17655  -17730       8
   17613   17721  -17652  -17724       8   17613   17715  -17649  -17718       8
   17610   17709  -17646  -17712       8   17610   17703  -17643  -17706       8
   17604   17697  -17640  -17700       8   17604   17691  -17637  -17694       8
   17601   17685  -17634  -17688       8   17601   17679  -17631  -17682       8
   17598   17676  -17628  -17673       8   17598   17670  -17625  -17667       8
   17595   17661  -17622  -17664       8   17595   17655  -17619  -17658       8
   17556   17559  -17589  -17616       8   17544   17550  -17580  -17607       8
   17589   17526  -17559  -17592       8   17580   17520  -17550  -17583       8
   17511   17538  -17532  -17571       8   17505   17556  -17523  -17553       8
   17502   17544  -17517  -17547       8   17499   17538  -17514  -17541       8
   17532   17496  -17511  -17535       8   17451   17487  -17472  -17493       8
   17448   17487  -17466  -17490       8   17445   17478  -17460  -17484       8
   17439   17472  -17451  -17475       8   17439   17466  -17448  -17469       8
   17436   17460  -17445  -17463       8   17436   17454  -17442  -17457       8
   17400   17424  -17418  -17430       8   17397   17424  -17412  -17427       8
   17391   17418  -17400  -17421       8   17391   17412  -17397  -17415       8
   18135   18255  -18204  -18261       8   18132   18255  -18198  -18258       8
   18129   18246  -18192  -18252       8   18126   18246  -18186  -18249       8
   18123   18237  -18180  -18243       8   18120   18237  -18174  -18240       8
   18117   18231  -18168  -18234       8   18114   18231  -18162  -18228       8
   18111   18219  -18159  -18225       8   18108   18219  -18153  -18222       8
   18105   18210  -18144  -18216       8   18102   18210  -18138  -18213       8
   18096   18204  -18135  -18207       8   18096   18198  -18132  -18201       8
   18093   18192  -18129  -18195       8   18093   18186  -18126  -18189       8
   18087   18180  -18123  -18183       8   18087   18174  -18120  -18177       8
   18084   18168  -18117  -18171       8   18084   18162  -18114  -18165       8
   18081   18159  -18111  -18156       8   18081   18153  -18108  -18150       8
   18078   18144  -18105  -18147       8   18078   18138  -18102  -18141       8
   18039   18042  -18072  -18099       8   18027   18033  -18063  -18090       8
   18072   18009  -18042  -18075       8   18063   18003  -18033  -18066       8
   17994   18021  -18015  -18054       8   17988   18039  -18006  -18036       8
   17985   18027  -18000  -18030       8   17982   18021  -17997  -18024       8
   18015   17979  -17994  -18018       8   17934   17970  -17955  -17976       8
   17931   17970  -17949  -17973       8   17928   17961  -17943  -17967       8
   17922   17955  -17934  -17958       8   17922   17949  -17931  -17952       8
   17919   17943  -17928  -17946       8   17919   17937  -17925  -17940       8
   17883   17907  -17901  -17913       8   17880   17907  -17895  -17910       8
   17874   17901  -17883  -17904       8   17874   17895  -17880  -17898       8
   18618   18738  -18687  -18744       8   18615   18738  -18681  -18741       8
   18612   18729  -18675  -18735       8   18609   18729  -18669  -18732       8
   18606   18720  -18663  -18726       8   18603   18720  -18657  -18723       8
   18600   18714  -18651  -18717       8   18597   18714  -18645  -18711       8
   18594   18702  -18642  -18708       8   18591   18702  -18636  -18705       8
   18588   18693  -18627  -18699       8   18585   18693  -18621  -18696       8
   18579   18687  -18618  -18690       8   18579   18681  -18615  -18684       8
   18576   18675  -18612  -18678       8   18576   18669  -18609  -18672       8
   18570   18663  -18606  -18666       8   18570   18657  -18603  -18660       8
   18567   18651  -18600  -18654       8   18567   18645  -18597  -18648       8
   18564   18642  -18594  -18639       8   18564   18636  -18591  -18633       8
   18561   18627  -18588  -18630       8   18561   18621  -18585  -18624       8
   18522   18525  -18555  -18582       8   18510   18516  -18546  -18573       8
   18555   18492  -18525  -18558       8   18546   18486  -18516  -18549       8
   18477   18504  -18498  -18537       8   18471   18522  -18489  -18519       8
   18468   18510  -18483  -18513       8   18465   18504  -18480  -18507       8
   18498   18462  -18477  -18501       8   18417   18453  -18438  -18459       8
   18414   18453  -18432  -18456       8   18411   18444  -18426  -18450       8
   18405   18438  -18417  -18441       8   18405   18432  -18414  -18435       8
   18402   18426  -18411  -18429       8   18402   18420  -18408  -18423       8
   18366   18390  -18384  -18396       8   18363   18390  -18378  -18393       8
   18357   18384  -18366  -18387       8   18357   18378  -18363  -18381       8
   19101   19221  -19170  -19227       8   19098   19221  -19164  -19224       8
   19095   19212  -19158  -19218       8   19092   19212  -19152  -19215       8
   19089   19203  -19146  -19209       8   19086   19203  -19140  -19206       8
   19083   19197  -19134  -19200       8   19080   19197  -19128  -19194       8
   19077   19185  -19125  -19191       8   19074   19185  -19119  -19188       8
   19071   19176  -19110  -19182       8   19068   19176  -19104  -19179       8
   19062   19170  -19101  -19173       8   19062   19164  -19098  -19167       8
   19059   19158  -19095  -19161       8   19059   19152  -19092  -19155       8
   19053   19146  -19089  -19149       8   19053   19140  -19086  -19143       8
   19050   19134  -19083  -19137       8   19050   19128  -19080  -19131       8
   19047   19125  -19077  -19122       8   19047   19119  -19074  -19116       8
   19044   19110  -19071  -19113       8   19044   19104  -19068  -19107       8
   19005   19008  -19038  -19065       8   18993   18999  -19029  -19056       8
   19038   18975  -19008  -19041       8   19029   18969  -18999  -19032       8
   18960   18987  -18981  -19020       8   18954   19005  -18972  -19002       8
   18951   18993  -18966  -18996       8   18948   18987  -18963  -18990       8
   18981   18945  -18960  -18984       8   18900   18936  -18921  -18942       8
   18897   18936  -18915  -18939       8   18894   18927  -18909  -18933       8
   18888   18921  -18900  -18924       8   18888   18915  -18897  -18918       8
   18885   18909  -18894  -18912       8   18885   18903  -18891  -18906       8
   18849   18873  -18867  -18879       8   18846   18873  -18861  -18876       8
   18840   18867  -18849  -18870       8   18840   18861  -18846  -18864       8
   19584   19704  -19653  -19710       8   19581   19704  -19647  -19707       8
   19578   19695  -19641  -19701       8   19575   19695  -19635  -19698       8
   19572   19686  -19629  -19692       8   19569   19686  -19623  -19689       8
   19566   19680  -19617  -19683       8   19563   19680  -19611  -19677       8
   19560   19668  -19608  -19674       8   19557   19668  -19602  -19671       8
   19554   19659  -19593  -19665       8   19551   19659  -19587  -19662       8
   19545   19653  -19584  -19656       8   19545   19647  -19581  -19650       8
   19542   19641  -19578  -19644       8   19542   19635  -19575  -19638       8
   19536   19629  -19572  -19632       8   19536   19623  -19569  -19626       8
   19533   19617  -19566  -19620       8   19533   19611  -19563  -19614       8
   19530   19608  -19560  -19605       8   19530   19602  -19557  -19599       8
   19527   19593  -19554  -19596       8   19527   19587  -19551  -19590       8
   19488   19491  -19521  -19548       8   19476   19482  -19512  -19539       8
   19521   19458  -19491  -19524       8   19512   19452  -19482  -19515       8
   19443   19470  -19464  -19503       8   19437   19488  -19455  -19485       8
   19434   19476  -19449  -19479       8   19431   19470  -19446  -19473       8
   19464   19428  -19443  -19467       8   19383   19419  -19404  -19425       8
   19380   19419  -19398  -19422       8   19377   19410  -19392  -19416       8
   19371   19404  -19383  -19407       8   19371   19398  -19380  -19401       8
   19368   19392  -19377  -19395       8   19368   19386  -19374  -19389       8
   19332   19356  -19350  -19362       8   19329   19356  -19344  -19359       8
   19323   19350  -19332  -19353       8   19323   19344  -19329  -19347       8
   20067   20187  -20136  -20193       8   20064   20187  -20130  -20190       8
   20061   20178  -20124  -20184       8   20058   20178  -20118  -20181       8
   20055   20169  -20112  -20175       8   20052   20169  -20106  -20172       8
   20049   20163  -20100  -20166       8   20046   20163  -20094  -20160       8
   20043   20151  -20091  -20157       8   20040   20151  -20085  -20154       8
   20037   20142  -20076  -20148       8   20034   20142  -20070  -20145       8
   20028   20136  -20067  -20139       8   20028   20130  -20064  -20133       8
   20025   20124  -20061  -20127       8   20025   20118  -20058  -20121       8
   20019   20112  -20055  -20115       8   20019   20106  -20052  -20109       8
   20016   20100  -20049  -20103       8   20016   20094  -20046  -20097       8
   20013   20091  -20043  -20088       8   20013   20085  -20040  -20082       8
   20010   20076  -20037  -20079       8   20010   20070  -20034  -20073       8
   19971   19974  -20004  -20031       8   19959   19965  -19995  -20022       8
   20004   19941  -19974  -20007       8   19995   19935  -19965  -19998       8
   19926   19953  -19947  -19986       8   19920   19971  -19938  -19968       8
   19917   19959  -19932  -19962       8   19914   19953  -19929  -19956       8
   19947   19911  -19926  -19950       8   19866   19902  -19887  -19908       8
   19863   19902  -19881  -19905       8   19860   19893  -19875  -19899       8
   19854   19887  -19866  -19890       8   19854   19881  -19863  -19884       8
   19851   19875  -19860  -19878       8   19851   19869  -19857  -19872       8
   19815   19839  -19833  -19845       8   19812   19839  -19827  -19842       8
   19806   19833  -19815  -19836       8   19806   19827  -19812  -19830       8
   20550   20670  -20619  -20676       8   20547   20670  -20613  -20673       8
   20544   20661  -20607  -20667       8   20541   20661  -20601  -20664       8
   20538   20652  -20595  -20658       8   20535   20652  -20589  -20655       8
   20532   20646  -20583  -20649       8   20529   20646  -20577  -20643       8
   20526   20634  -20574  -20640       8   20523   20634  -20568  -20637       8
   20520   20625  -20559  -20631       8   20517   20625  -20553  -20628       8
   20511   20619  -20550  -20622       8   20511   20613  -20547  -20616       8
   20508   20607  -20544  -20610       8   20508   20601  -20541  -20604       8
   20502   20595  -20538  -20598       8   20502   20589  -20535  -20592       8
   20499   20583  -20532  -20586       8   20499   20577  -20529  -20580       8
   20496   20574  -20526  -20571       8   20496   20568  -20523  -20565       8
   20493   20559  -20520  -20562       8   20493   20553  -20517  -20556       8
   20454   20457  -20487  -20514       8   20442   20448  -20478  -20505       8
   20487   20424  -20457  -20490       8   20478   20418  -20448  -20481       8
   20409   20436  -20430  -20469       8   20403   20454  -20421  -20451       8
   20400   20442  -20415  -20445       8   20397   20436  -20412  -20439       8
   20430   20394  -20409  -20433       8   20349   20385  -20370  -20391       8
   20346   20385  -20364  -20388       8   20343   20376  -20358  -20382       8
   20337   20370  -20349  -20373       8   20337   20364  -20346  -20367       8
   20334   20358  -20343  -20361       8   20334   20352  -20340  -20355       8
   20298   20322  -20316  -20328       8   20295   20322  -20310  -20325       8
   20289   20316  -20298  -20319       8   20289   20310  -20295  -20313       8
   21033   21153  -21102  -21159       8   21030   21153  -21096  -21156       8
   21027   21144  -21090  -21150       8   21024   21144  -21084  -21147       8
   21021   21135  -21078  -21141       8   21018   21135  -21072  -21138       8
   21015   21129  -21066  -21132       8   21012   21129  -21060  -21126       8
   21009   21117  -21057  -21123       8   21006   21117  -21051  -21120       8
   21003   21108  -21042  -21114       8   21000   21108  -21036  -21111       8
   20994   21102  -21033  -21105       8   20994   21096  -21030  -21099       8
   20991   21090  -21027  -21093       8   20991   21084  -21024  -21087       8
   20985   21078  -21021  -21081       8   20985   21072  -21018  -21075       8
   20982   21066  -21015  -21069       8   20982   21060  -21012  -21063       8
   20979   21057  -21009  -21054       8   20979   21051  -21006  -21048       8
   20976   21042  -21003  -21045       8   20976   21036  -21000  -21039       8
   20937   20940  -20970  -20997       8   20925   20931  -20961  -20988       8
   20970   20907  -20940  -20973       8   20961   20901  -20931  -20964       8
   20892   20919  -20913  -20952       8   20886   20937  -20904  -20934       8
   20883   20925  -20898  -20928       8   20880   20919  -20895  -20922       8
   20913   20877  -20892  -20916       8   20832   20868  -20853  -20874       8
   20829   20868  -20847  -20871       8   20826   20859  -20841  -20865       8
   20820   20853  -20832  -20856       8   20820   20847  -20829  -20850       8
   20817   20841  -20826  -20844       8   20817   20835  -20823  -20838       8
   20781   20805  -20799  -20811       8   20778   20805  -20793  -20808       8
   20772   20799  -20781  -20802       8   20772   20793  -20778  -20796       8
   21516   21636  -21585  -21642       8   21513   21636  -21579  -21639       8
   21510   21627  -21573  -21633       8   21507   21627  -21567  -21630       8
   21504   21618  -21561  -21624       8   21501   21618  -21555  -21621       8
   21498   21612  -21549  -21615       8   21495   21612  -21543  -21609       8
   21492   21600  -21540  -21606       8   21489   21600  -21534  -21603       8
   21486   21591  -21525  -21597       8   21483   21591  -21519  -21594       8
   21477   21585  -21516  -21588       8   21477   21579  -21513  -21582       8
   21474   21573  -21510  -21576       8   21474   21567  -21507  -21570       8
   21468   21561  -21504  -21564       8   21468   21555  -21501  -21558       8
   21465   21549  -21498  -21552       8   21465   21543  -21495  -21546       8
   21462   21540  -21492  -21537       8   21462   21534  -21489  -21531       8
   21459   21525  -21486  -21528       8   21459   21519  -21483  -21522       8
   21420   21423  -21453  -21480       8   21408   21414  -21444  -21471       8
   21453   21390  -21423  -21456       8   21444   21384  -21414  -21447       8
   21375   21402  -21396  -21435       8   21369   21420  -21387  -21417       8
   21366   21408  -21381  -21411       8   21363   21402  -21378  -21405       8
   21396   21360  -21375  -21399       8   21315   21351  -21336  -21357       8
   21312   21351  -21330  -21354       8   21309   21342  -21324  -21348       8
   21303   21336  -21315  -21339       8   21303   21330  -21312  -21333       8
   21300   21324  -21309  -21327       8   21300   21318  -21306  -21321       8
   21264   21288  -21282  -21294       8   21261   21288  -21276  -21291       8
   21255   21282  -21264  -21285       8   21255   21276  -21261  -21279       8
   21999   22119  -22068  -22125       8   21996   22119  -22062  -22122       8
   21993   22110  -22056  -22116       8   21990   22110  -22050  -22113       8
   21987   22101  -22044  -22107       8   21984   22101  -22038  -22104       8
   21981   22095  -22032  -22098       8   21978   22095  -22026  -22092       8
   21975   22083  -22023  -22089       8   21972   22083  -22017  -22086       8
   21969   22074  -22008  -22080       8   21966   22074  -22002  -22077       8
   21960   22068  -21999  -22071       8   21960   22062  -21996  -22065       8
   21957   22056  -21993  -22059       8   21957   22050  -21990  -22053       8
   21951   22044  -21987  -22047       8   21951   22038  -21984  -22041       8
   21948   22032  -21981  -22035       8   21948   22026  -21978  -22029       8
   21945   22023  -21975  -22020       8   21945   22017  -21972  -22014       8
   21942   22008  -21969  -22011       8   21942   22002  -21966  -22005       8
   21903   21906  -21936  -21963       8   21891   21897  -21927  -21954       8
   21936   21873  -21906  -21939       8   21927   21867  -21897  -21930       8
   21858   21885  -21879  -21918       8   21852   21903  -21870  -21900       8
   21849   21891  -21864  -21894       8   21846   21885  -21861  -21888       8
   21879   21843  -21858  -21882       8   21798   21834  -21819  -21840       8
   21795   21834  -21813  -21837       8   21792   21825  -21807  -21831       8
   21786   21819  -21798  -21822       8   21786   21813  -21795  -21816       8
   21783   21807  -21792  -21810       8   21783   21801  -21789  -21804       8
   21747   21771  -21765  -21777       8   21744   21771  -21759  -21774       8
   21738   21765  -21747  -21768       8   21738   21759  -21744  -21762       8
   22482   22602  -22551  -22608       8   22479   22602  -22545  -22605       8
   22476   22593  -22539  -22599       8   22473   22593  -22533  -22596       8
   22470   22584  -22527  -22590       8   22467   22584  -22521  -22587       8
   22464   22578  -22515  -22581       8   22461   22578  -22509  -22575       8
   22458   22566  -22506  -22572       8   22455   22566  -22500  -22569       8
   22452   22557  -22491  -22563       8   22449   22557  -22485  -22560       8
   22443   22551  -22482  -22554       8   22443   22545  -22479  -22548       8
   22440   22539  -22476  -22542       8   22440   22533  -22473  -22536       8
   22434   22527  -22470  -22530       8   22434   22521  -22467  -22524       8
   22431   22515  -22464  -22518       8   22431   22509  -22461  -22512       8
   22428   22506  -22458  -22503       8   22428   22500  -22455  -22497       8
   22425   22491  -22452  -22494       8   22425   22485  -22449  -22488       8
   22386   22389  -22419  -22446       8   22374   22380  -22410  -22437       8
   22419   22356  -22389  -22422       8   22410   22350  -22380  -22413       8
   22341   22368  -22362  -22401       8   22335   22386  -22353  -22383       8
   22332   22374  -22347  -22377       8   22329   22368  -22344  -22371       8
   22362   22326  -22341  -22365       8   22281   22317  -22302  -22323       8
   22278   22317  -22296  -22320       8   22275   22308  -22290  -22314       8
   22269   22302  -22281  -22305       8   22269   22296  -22278  -22299       8
   22266   22290  -22275  -22293       8   22266   22284  -22272  -22287       8
   22230   22254  -22248  -22260       8   22227   22254  -22242  -22257       8
   22221   22248  -22230  -22251       8   22221   22242  -22227  -22245       8
   22965   23085  -23034  -23091       8   22962   23085  -23028  -23088       8
   22959   23076  -23022  -23082       8   22956   23076  -23016  -23079       8
   22953   23067  -23010  -23073       8   22950   23067  -23004  -23070       8
   22947   23061  -22998  -23064       8   22944   23061  -22992  -23058       8
   22941   23049  -22989  -23055       8   22938   23049  -22983  -23052       8
   22935   23040  -22974  -23046       8   22932   23040  -22968  -23043       8
   22926   23034  -22965  -23037       8   22926   23028  -22962  -23031       8
   22923   23022  -22959  -23025       8   22923   23016  -22956  -23019       8
   22917   23010  -22953  -23013       8   22917   23004  -22950  -23007       8
   22914   22998  -22947  -23001       8   22914   22992  -22944  -22995       8
   22911   22989  -22941  -22986       8   22911   22983  -22938  -22980       8
   22908   22974  -22935  -22977       8   22908   22968  -22932  -22971       8
   22869   22872  -22902  -22929       8   22857   22863  -22893  -22920       8
   22902   22839  -22872  -22905       8   22893   22833  -22863  -22896       8
   22824   22851  -22845  -22884       8   22818   22869  -22836  -22866       8
   22815   22857  -22830  -22860       8   22812   22851  -22827  -22854       8
   22845   22809  -22824  -22848       8   22764   22800  -22785  -22806       8
   22761   22800  -22779  -22803       8   22758   22791  -22773  -22797       8
   22752   22785  -22764  -22788       8   22752   22779  -22761  -22782       8
   22749   22773  -22758  -22776       8   22749   22767  -22755  -22770       8
   22713   22737  -22731  -22743       8   22710   22737  -22725  -22740       8
   22704   22731  -22713  -22734       8   22704   22725  -22710  -22728       8
   23448   23568  -23517  -23574       8   23445   23568  -23511  -23571       8
   23442   23559  -23505  -23565       8   23439   23559  -23499  -23562       8
   23436   23550  -23493  -23556       8   23433   23550  -23487  -23553       8
   23430   23544  -23481  -23547       8   23427   23544  -23475  -23541       8
   23424   23532  -23472  -23538       8   23421   23532  -23466  -23535       8
   23418   23523  -23457  -23529       8   23415   23523  -23451  -23526       8
   23409   23517  -23448  -23520       8   23409   23511  -23445  -23514       8
   23406   23505  -23442  -23508       8   23406   23499  -23439  -23502       8
   23400   23493  -23436  -23496       8   23400   23487  -23433  -23490       8
   23397   23481  -23430  -23484       8   23397   23475  -23427  -23478       8
   23394   23472  -23424  -23469       8   23394   23466  -23421  -23463       8
   23391   23457  -23418  -23460       8   23391   23451  -23415  -23454       8
   23352   23355  -23385  -23412       8   23340   23346  -23376  -23403       8
   23385   23322  -23355  -23388       8   23376   23316  -23346  -23379       8
   23307   23334  -23328  -23367       8   23301   23352  -23319  -23349       8
   23298   23340  -23313  -23343       8   23295   23334  -23310  -23337       8
   23328   23292  -23307  -23331       8   23247   23283  -23268  -23289       8
   23244   23283  -23262  -23286       8   23241   23274  -23256  -23280       8
   23235   23268  -23247  -23271       8   23235   23262  -23244  -23265       8
   23232   23256  -23241  -23259       8   23232   23250  -23238  -23253       8
   23196   23220  -23214  -23226       8   23193   23220  -23208  -23223       8
   23187   23214  -23196  -23217       8   23187   23208  -23193  -23211       8
   23931   24051  -24000  -24057       8   23928   24051  -23994  -24054       8
   23925   24042  -23988  -24048       8   23922   24042  -23982  -24045       8
   23919   24033  -23976  -24039       8   23916   24033  -23970  -24036       8
   23913   24027  -23964  -24030       8   23910   24027  -23958  -24024       8
   23907   24015  -23955  -24021       8   23904   24015  -23949  -24018       8
   23901   24006  -23940  -24012       8   23898   24006  -23934  -24009       8
   23892   24000  -23931  -24003       8   23892   23994  -23928  -23997       8
   23889   23988  -23925  -23991       8   23889   23982  -23922  -23985       8
   23883   23976  -23919  -23979       8   23883   23970  -23916  -23973       8
   23880   23964  -23913  -23967       8   23880   23958  -23910  -23961       8
   23877   23955  -23907  -23952       8   23877   23949  -23904  -23946       8
   23874   23940  -23901  -23943       8   23874   23934  -23898  -23937       8
   23835   23838  -23868  -23895       8   23823   23829  -23859  -23886       8
   23868   23805  -23838  -23871       8   23859   23799  -23829  -23862       8
   23790   23817  -23811  -23850       8   23784   23835  -23802  -23832       8
   23781   23823  -23796  -23826       8   23778   23817  -23793  -23820       8
   23811   23775  -23790  -23814       8   23730   23766  -23751  -23772       8
   23727   23766  -23745  -23769       8   23724   23757  -23739  -23763       8
   23718   23751  -23730  -23754       8   23718   23745  -23727  -23748       8
   23715   23739  -23724  -23742       8   23715   23733  -23721  -23736       8
   23679   23703  -23697  -23709       8   23676   23703  -23691  -23706       8
   23670   23697  -23679  -23700       8   23670   23691  -23676  -23694       8
   24414   24534  -24483  -24540       8   24411   24534  -24477  -24537       8
   24408   24525  -24471  -24531       8   24405   24525  -24465  -24528       8
   24402   24516  -24459  -24522       8   24399   24516  -24453  -24519       8
   24396   24510  -24447  -24513       8   24393   24510  -24441  -24507       8
   24390   24498  -24438  -24504       8   24387   24498  -24432  -24501       8
   24384   24489  -24423  -24495       8   24381   24489  -24417  -24492       8
   24375   24483  -24414  -24486       8   24375   24477  -24411  -24480       8
   24372   24471  -24408  -24474       8   24372   24465  -24405  -24468       8
   24366   24459  -24402  -24462       8   24366   24453  -24399  -24456       8
   24363   24447  -24396  -24450       8   24363   24441  -24393  -24444       8
   24360   24438  -24390  -24435       8   24360   24432  -24387  -24429       8
   24357   24423  -24384  -24426       8   24357   24417  -24381  -24420       8
   24318   24321  -24351  -24378       8   24306   24312  -24342  -24369       8
   24351   24288  -24321  -24354       8   24342   24282  -24312  -24345       8
   24273   24300  -24294  -24333       8   24267   24318  -24285  -24315       8
   24264   24306  -24279  -24309       8   24261   24300  -24276  -24303       8
   24294   24258  -24273  -24297       8   24213   24249  -24234  -24255       8
   24210   24249  -24228  -24252       8   24207   24240  -24222  -24246       8
   24201   24234  -24213  -24237       8   24201   24228  -24210  -24231       8
   24198   24222  -24207  -24225       8   24198   24216  -24204  -24219       8
   24162   24186  -24180  -24192       8   24159   24186  -24174  -24189       8
   24153   24180  -24162  -24183       8   24153   24174  -24159  -24177       8
   24897   25017  -24966  -25023       8   24894   25017  -24960  -25020       8
   24891   25008  -24954  -25014       8   24888   25008  -24948  -25011       8
   24885   24999  -24942  -25005       8   24882   24999  -24936  -25002       8
   24879   24993  -24930  -24996       8   24876   24993  -24924  -24990       8
   24873   24981  -24921  -24987       8   24870   24981  -24915  -24984       8
   24867   24972  -24906  -24978       8   24864   24972  -24900  -24975       8
   24858   24966  -24897  -24969       8   24858   24960  -24894  -24963       8
   24855   24954  -24891  -24957       8   24855   24948  -24888  -24951       8
   24849   24942  -24885  -24945       8   24849   24936  -24882  -24939       8
   24846   24930  -24879  -24933       8   24846   24924  -24876  -24927       8
   24843   24921  -24873  -24918       8   24843   24915  -24870  -24912       8
   24840   24906  -24867  -24909       8   24840   24900  -24864  -24903       8
   24801   24804  -24834  -24861       8   24789   24795  -24825  -24852       8
   24834   24771  -24804  -24837       8   24825   24765  -24795  -24828       8
   24756   24783  -24777  -24816       8   24750   24801  -24768  -24798       8
   24747   24789  -24762  -24792       8   24744   24783  -24759  -24786       8
   24777   24741  -24756  -24780       8   24696   24732  -24717  -24738       8
   24693   24732  -24711  -24735       8   24690   24723  -24705  -24729       8
   24684   24717  -24696  -24720       8   24684   24711  -24693  -24714       8
   24681   24705  -24690  -24708       8   24681   24699  -24687  -24702       8
   24645   24669  -24663  -24675       8   24642   24669  -24657  -24672       8
   24636   24663  -24645  -24666       8   24636   24657  -24642  -24660       8
   25380   25500  -25449  -25506       8   25377   25500  -25443  -25503       8
   25374   25491  -25437  -25497       8   25371   25491  -25431  -25494       8
   25368   25482  -25425  -25488       8   25365   25482  -25419  -25485       8
   25362   25476  -25413  -25479       8   25359   25476  -25407  -25473       8
   25356   25464  -25404  -25470       8   25353   25464  -25398  -25467       8
   25350   25455  -25389  -25461       8   25347   25455  -25383  -25458       8
   25341   25449  -25380  -25452       8   25341   25443  -25377  -25446       8
   25338   25437  -25374  -25440       8   25338   25431  -25371  -25434       8
   25332   25425  -25368  -25428       8   25332   25419  -25365  -25422       8
   25329   25413  -25362  -25416       8   25329   25407  -25359  -25410       8
   25326   25404  -25356  -25401       8   25326   25398  -25353  -25395       8
   25323   25389  -25350  -25392       8   25323   25383  -25347  -25386       8
   25284   25287  -25317  -25344       8   25272   25278  -25308  -25335       8
   25317   25254  -25287  -25320       8   25308   25248  -25278  -25311       8
   25239   25266  -25260  -25299       8   25233   25284  -25251  -25281       8
   25230   25272  -25245  -25275       8   25227   25266  -25242  -25269       8
   25260   25224  -25239  -25263       8   25179   25215  -25200  -25221       8
   25176   25215  -25194  -25218       8   25173   25206  -25188  -25212       8
   25167   25200  -25179  -25203       8   25167   25194  -25176  -25197       8
   25164   25188  -25173  -25191       8   25164   25182  -25170  -25185       8
   25128   25152  -25146  -25158       8   25125   25152  -25140  -25155       8
   25119   25146  -25128  -25149       8   25119   25140  -25125  -25143       8
   25863   25983  -25932  -25989       8   25860   25983  -25926  -25986       8
   25857   25974  -25920  -25980       8   25854   25974  -25914  -25977       8
   25851   25965  -25908  -25971       8   25848   25965  -25902  -25968       8
   25845   25959  -25896  -25962       8   25842   25959  -25890  -25956       8
   25839   25947  -25887  -25953       8   25836   25947  -25881  -25950       8
   25833   25938  -25872  -25944       8   25830   25938  -25866  -25941       8
   25824   25932  -25863  -25935       8   25824   25926  -25860  -25929       8
   25821   25920  -25857  -25923       8   25821   25914  -25854  -25917       8
   25815   25908  -25851  -25911       8   25815   25902  -25848  -25905       8
   25812   25896  -25845  -25899       8   25812   25890  -25842  -25893       8
   25809   25887  -25839  -25884       8   25809   25881  -25836  -25878       8
   25806   25872  -25833  -25875       8   25806   25866  -25830  -25869       8
   25767   25770  -25800  -25827       8   25755   25761  -25791  -25818       8
   25800   25737  -25770  -25803       8   25791   25731  -25761  -25794       8
   25722   25749  -25743  -25782       8   25716   25767  -25734  -25764       8
   25713   25755  -25728  -25758       8   25710   25749  -25725  -25752       8
   25743   25707  -25722  -25746       8   25662   25698  -25683  -25704       8
   25659   25698  -25677  -25701       8   25656   25689  -25671  -25695       8
   25650   25683  -25662  -25686       8   25650   25677  -25659  -25680       8
   25647   25671  -25656  -25674       8   25647   25665  -25653  -25668       8
   25611   25635  -25629  -25641       8   25608   25635  -25623  -25638       8
   25602   25629  -25611  -25632       8   25602   25623  -25608  -25626       8
   26346   26466  -26415  -26472       8   26343   26466  -26409  -26469       8
   26340   26457  -26403  -26463       8   26337   26457  -26397  -26460       8
   26334   26448  -26391  -26454       8   26331   26448  -26385  -26451       8
   26328   26442  -26379  -26445       8   26325   26442  -26373  -26439       8
   26322   26430  -26370  -26436       8   26319   26430  -26364  -26433       8
   26316   26421  -26355  -26427       8   26313   26421  -26349  -26424       8
   26307   26415  -26346  -26418       8   26307   26409  -26343  -26412       8
   26304   26403  -26340  -26406       8   26304   26397  -26337  -26400       8
   26298   26391  -26334  -26394       8   26298   26385  -26331  -26388       8
   26295   26379  -26328  -26382       8   26295   26373  -26325  -26376       8
   26292   26370  -26322  -26367       8   26292   26364  -26319  -26361       8
   26289   26355  -26316  -26358       8   26289   26349  -26313  -26352       8
   26250   26253  -26283  -26310       8   26238   26244  -26274  -26301       8
   26283   26220  -26253  -26286       8   26274   26214  -26244  -26277       8
   26205   26232  -26226  -26265       8   26199   26250  -26217  -26247       8
   26196   26238  -26211  -26241       8   26193   26232  -26208  -26235       8
   26226   26190  -26205  -26229       8   26145   26181  -26166  -26187       8
   26142   26181  -26160  -26184       8   26139   26172  -26154  -26178       8
   26133   26166  -26145  -26169       8   26133   26160  -26142  -26163       8
   26130   26154  -26139  -26157       8   26130   26148  -26136  -26151       8
   26094   26118  -26112  -26124       8   26091   26118  -26106  -26121       8
   26085   26112  -26094  -26115       8   26085   26106  -26091  -26109       8
   26829   26949  -26898  -26955       8   26826   26949  -26892  -26952       8
   26823   26940  -26886  -26946       8   26820   26940  -26880  -26943       8
   26817   26931  -26874  -26937       8   26814   26931  -26868  -26934       8
   26811   26925  -26862  -26928       8   26808   26925  -26856  -26922       8
   26805   26913  -26853  -26919       8   26802   26913  -26847  -26916       8
   26799   26904  -26838  -26910       8   26796   26904  -26832  -26907       8
   26790   26898  -26829  -26901       8   26790   26892  -26826  -26895       8
   26787   26886  -26823  -26889       8   26787   26880  -26820  -26883       8
   26781   26874  -26817  -26877       8   26781   26868  -26814  -26871       8
   26778   26862  -26811  -26865       8   26778   26856  -26808  -26859       8
   26775   26853  -26805  -26850       8   26775   26847  -26802  -26844       8
   26772   26838  -26799  -26841       8   26772   26832  -26796  -26835       8
   26733   26736  -26766  -26793       8   26721   26727  -26757  -26784       8
   26766   26703  -26736  -26769       8   26757   26697  -26727  -26760       8
   26688   26715  -26709  -26748       8   26682   26733  -26700  -26730       8
   26679   26721  -26694  -26724       8   26676   26715  -26691  -26718       8
   26709   26673  -26688  -26712       8   26628   26664  -26649  -26670       8
   26625   26664  -26643  -26667       8   26622   26655  -26637  -26661       8
   26616   26649  -26628  -26652       8   26616   26643  -26625  -26646       8
   26613   26637  -26622  -26640       8   26613   26631  -26619  -26634       8
   26577   26601  -26595  -26607       8   26574   26601  -26589  -26604       8
   26568   26595  -26577  -26598       8   26568   26589  -26574  -26592       8
   27312   27432  -27381  -27438       8   27309   27432  -27375  -27435       8
   27306   27423  -27369  -27429       8   27303   27423  -27363  -27426       8
   27300   27414  -27357  -27420       8   27297   27414  -27351  -27417       8
   27294   27408  -27345  -27411       8   27291   27408  -27339  -27405       8
   27288   27396  -27336  -27402       8   27285   27396  -27330  -27399       8
   27282   27387  -27321  -27393       8   27279   27387  -27315  -27390       8
   27273   27381  -27312  -27384       8   27273   27375  -27309  -27378       8
   27270   27369  -27306  -27372       8   27270   27363  -27303  -27366       8
   27264   27357  -27300  -27360       8   27264   27351  -27297  -27354       8
   27261   27345  -27294  -27348       8   27261   27339  -27291  -27342       8
   27258   27336  -27288  -27333       8   27258   27330  -27285  -27327       8
   27255   27321  -27282  -27324       8   27255   27315  -27279  -27318       8
   27216   27219  -27249  -27276       8   27204   27210  -27240  -27267       8
   27249   27186  -27219  -27252       8   27240   27180  -27210  -27243       8
   27171   27198  -27192  -27231       8   27165   27216  -27183  -27213       8
   27162   27204  -27177  -27207       8   27159   27198  -27174  -27201       8
   27192   27156  -27171  -27195       8   27111   27147  -27132  -27153       8
   27108   27147  -27126  -27150       8   27105   27138  -27120  -27144       8
   27099   27132  -27111  -27135       8   27099   27126  -27108  -27129       8
   27096   27120  -27105  -27123       8   27096   27114  -27102  -27117       8
   27060   27084  -27078  -27090       8   27057   27084  -27072  -27087       8
   27051   27078  -27060  -27081       8   27051   27072  -27057  -27075       8
   27795   27915  -27864  -27921       8   27792   27915  -27858  -27918       8
   27789   27906  -27852  -27912       8   27786   27906  -27846  -27909       8
   27783   27897  -27840  -27903       8   27780   27897  -27834  -27900       8
   27777   27891  -27828  -27894       8   27774   27891  -27822  -27888       8
   27771   27879  -27819  -27885       8   27768   27879  -27813  -27882       8
   27765   27870  -27804  -27876       8   27762   27870  -27798  -27873       8
   27756   27864  -27795  -27867       8   27756   27858  -27792  -27861       8
   27753   27852  -27789  -27855       8   27753   27846  -27786  -27849       8
   27747   27840  -27783  -27843       8   27747   27834  -27780  -27837       8
   27744   27828  -27777  -27831       8   27744   27822  -27774  -27825       8
   27741   27819  -27771  -27816       8   27741   27813  -27768  -27810       8
   27738   27804  -27765  -27807       8   27738   27798  -27762  -27801       8
   27699   27702  -27732  -27759       8   27687   27693  -27723  -27750       8
   27732   27669  -27702  -27735       8   27723   27663  -27693  -27726       8
   27654   27681  -27675  -27714       8   27648   27699  -27666  -27696       8
   27645   27687  -27660  -27690       8   27642   27681  -27657  -27684       8
   27675   27639  -27654  -27678       8   27594   27630  -27615  -27636       8
   27591   27630  -27609  -27633       8   27588   27621  -27603  -27627       8
   27582   27615  -27594  -27618       8   27582   27609  -27591  -27612       8
   27579   27603  -27588  -27606       8   27579   27597  -27585  -27600       8
   27543   27567  -27561  -27573       8   27540   27567  -27555  -27570       8
   27534   27561  -27543  -27564       8   27534   27555  -27540  -27558       8
   28278   28398  -28347  -28404       8   28275   28398  -28341  -28401       8
   28272   28389  -28335  -28395       8   28269   28389  -28329  -28392       8
   28266   28380  -28323  -28386       8   28263   28380  -28317  -28383       8
   28260   28374  -28311  -28377       8   28257   28374  -28305  -28371       8
   28254   28362  -28302  -28368       8   28251   28362  -28296  -28365       8
   28248   28353  -28287  -28359       8   28245   28353  -28281  -28356       8
   28239   28347  -28278  -28350       8   28239   28341  -28275  -28344       8
   28236   28335  -28272  -28338       8   28236   28329  -28269  -28332       8
   28230   28323  -28266  -28326       8   28230   28317  -28263  -28320       8
   28227   28311  -28260  -28314       8   28227   28305  -28257  -28308       8
   28224   28302  -28254  -28299       8   28224   28296  -28251  -28293       8
   28221   28287  -28248  -28290       8   28221   28281  -28245  -28284       8
   28182   28185  -28215  -28242       8   28170   28176  -28206  -28233       8
   28215   28152  -28185  -28218       8   28206   28146  -28176  -28209       8
   28137   28164  -28158  -28197       8   28131   28182  -28149  -28179       8
   28128   28170  -28143  -28173       8   28125   28164  -28140  -28167       8
   28158   28122  -28137  -28161       8   28077   28113  -28098  -28119       8
   28074   28113  -28092  -28116       8   28071   28104  -28086  -28110       8
   28065   28098  -28077  -28101       8   28065   28092  -28074  -28095       8
   28062   28086  -28071  -28089       8   28062   28080  -28068  -28083       8
   28026   28050  -28044  -28056       8   28023   28050  -28038  -28053       8
   28017   28044  -28026  -28047       8   28017   28038  -28023  -28041       8
   28761   28881  -28830  -28887       8   28758   28881  -28824  -28884       8
   28755   28872  -28818  -28878       8   28752   28872  -28812  -28875       8
   28749   28863  -28806  -28869       8   28746   28863  -28800  -28866       8
   28743   28857  -28794  -28860       8   28740   28857  -28788  -28854       8
   28737   28845  -28785  -28851       8   28734   28845  -28779  -28848       8
   28731   28836  -28770  -28842       8   28728   28836  -28764  -28839       8
   28722   28830  -28761  -28833       8   28722   28824  -28758  -28827       8
   28719   28818  -28755  -28821       8   28719   28812  -28752  -28815       8
   28713   28806  -28749  -28809       8   28713   28800  -28746  -28803       8
   28710   28794  -28743  -28797       8   28710   28788  -28740  -28791       8
   28707   28785  -28737  -28782       8   28707   28779  -28734  -28776       8
   28704   28770  -28731  -28773       8   28704   28764  -28728  -28767       8
   28665   28668  -28698  -28725       8   28653   28659  -28689  -28716       8
   28698   28635  -28668  -28701       8   28689   28629  -28659  -28692       8
   28620   28647  -28641  -28680       8   28614   28665  -28632  -28662       8
   28611   28653  -28626  -28656       8   28608   28647  -28623  -28650       8
   28641   28605  -28620  -28644       8   28560   28596  -28581  -28602       8
   28557   28596  -28575  -28599       8   28554   28587  -28569  -28593       8
   28548   28581  -28560  -28584       8   28548   28575  -28557  -28578       8
   28545   28569  -28554  -28572       8   28545   28563  -28551  -28566       8
   28509   28533  -28527  -28539       8   28506   28533  -28521  -28536       8
   28500   28527  -28509  -28530       8   28500   28521  -28506  -28524       8
   29244   29364  -29313  -29370       8   29241   29364  -29307  -29367       8
   29238   29355  -29301  -29361       8   29235   29355  -29295  -29358       8
   29232   29346  -29289  -29352       8   29229   29346  -29283  -29349       8
   29226   29340  -29277  -29343       8   29223   29340  -29271  -29337       8
   29220   29328  -29268  -29334       8   29217   29328  -29262  -29331       8
   29214   29319  -29253  -29325       8   29211   29319  -29247  -29322       8
   29205   29313  -29244  -29316       8   29205   29307  -29241  -29310       8
   29202   29301  -29238  -29304       8   29202   29295  -29235  -29298       8
   29196   29289  -29232  -29292       8   29196   29283  -29229  -29286       8
   29193   29277  -29226  -29280       8   29193   29271  -29223  -29274       8
   29190   29268  -29220  -29265       8   29190   29262  -29217  -29259       8
   29187   29253  -29214  -29256       8   29187   29247  -29211  -29250       8
   29148   29151  -29181  -29208       8   29136   29142  -29172  -29199       8
   29181   29118  -29151  -29184       8   29172   29112  -29142  -29175       8
   29103   29130  -29124  -29163       8   29097   29148  -29115  -29145       8
   29094   29136  -29109  -29139       8   29091   29130  -29106  -29133       8
   29124   29088  -29103  -29127       8   29043   29079  -29064  -29085       8
   29040   29079  -29058  -29082       8   29037   29070  -29052  -29076       8
   29031   29064  -29043  -29067       8   29031   29058  -29040  -29061       8
   29028   29052  -29037  -29055       8   29028   29046  -29034  -29049       8
   28992   29016  -29010  -29022       8   28989   29016  -29004  -29019       8
   28983   29010  -28992  -29013       8   28983   29004  -28989  -29007       8
   29727   29847  -29796  -29853       8   29724   29847  -29790  -29850       8
   29721   29838  -29784  -29844       8   29718   29838  -29778  -29841       8
   29715   29829  -29772  -29835       8   29712   29829  -29766  -29832       8
   29709   29823  -29760  -29826       8   29706   29823  -29754  -29820       8
   29703   29811  -29751  -29817       8   29700   29811  -29745  -29814       8
   29697   29802  -29736  -29808       8   29694   29802  -29730  -29805       8
   29688   29796  -29727  -29799       8   29688   29790  -29724  -29793       8
   29685   29784  -29721  -29787       8   29685   29778  -29718  -29781       8
   29679   29772  -29715  -29775       8   29679   29766  -29712  -29769       8
   29676   29760  -29709  -29763       8   29676   29754  -29706  -29757       8
   29673   29751  -29703  -29748       8   29673   29745  -29700  -29742       8
   29670   29736  -29697  -29739       8   29670   29730  -29694  -29733       8
   29631   29634  -29664  -29691       8   29619   29625  -29655  -29682       8
   29664   29601  -29634  -29667       8   29655   29595  -29625  -29658       8
   29586   29613  -29607  -29646       8   29580   29631  -29598  -29628       8
   29577   29619  -29592  -29622       8   29574   29613  -29589  -29616       8
   29607   29571  -29586  -29610       8   29526   29562  -29547  -29568       8
   29523   29562  -29541  -29565       8   29520   29553  -29535  -29559       8
   29514   29547  -29526  -29550       8   29514   29541  -29523  -29544       8
   29511   29535  -29520  -29538       8   29511   29529  -29517  -29532       8
   29475   29499  -29493  -29505       8   29472   29499  -29487  -29502       8
   29466   29493  -29475  -29496       8   29466   29487  -29472  -29490       8
   30210   30330  -30279  -30336       8   30207   30330  -30273  -30333       8
   30204   30321  -30267  -30327       8   30201   30321  -30261  -30324       8
   30198   30312  -30255  -30318       8   30195   30312  -30249  -30315       8
   30192   30306  -30243  -30309       8   30189   30306  -30237  -30303       8
   30186   30294  -30234  -30300       8   30183   30294  -30228  -30297       8
   30180   30285  -30219  -30291       8   30177   30285  -30213  -30288       8
   30171   30279  -30210  -30282       8   30171   30273  -30207  -30276       8
   30168   30267  -30204  -30270       8   30168   30261  -30201  -30264       8
   30162   30255  -30198  -30258       8   30162   30249  -30195  -30252       8
   30159   30243  -30192  -30246       8   30159   30237  -30189  -30240       8
   30156   30234  -30186  -30231       8   30156   30228  -30183  -30225       8
   30153   30219  -30180  -30222       8   30153   30213  -30177  -30216       8
   30114   30117  -30147  -30174       8   30102   30108  -30138  -30165       8
   30147   30084  -30117  -30150       8   30138   30078  -30108  -30141       8
   30069   30096  -30090  -30129       8   30063   30114  -30081  -30111       8
   30060   30102  -30075  -30105       8   30057   30096  -30072  -30099       8
   30090   30054  -30069  -30093       8   30009   30045  -30030  -30051       8
   30006   30045  -30024  -30048       8   30003   30036  -30018  -30042       8
   29997   30030  -30009  -30033       8   29997   30024  -30006  -30027       8
   29994   30018  -30003  -30021       8   29994   30012  -30000  -30015       8
   29958   29982  -29976  -29988       8   29955   29982  -29970  -29985       8
   29949   29976  -29958  -29979       8   29949   29970  -29955  -29973       8
   30693   30813  -30762  -30819       8   30690   30813  -30756  -30816       8
   30687   30804  -30750  -30810       8   30684   30804  -30744  -30807       8
   30681   30795  -30738  -30801       8   30678   30795  -30732  -30798       8
   30675   30789  -30726  -30792       8   30672   30789  -30720  -30786       8
   30669   30777  -30717  -30783       8   30666   30777  -30711  -30780       8
   30663   30768  -30702  -30774       8   30660   30768  -30696  -30771       8
   30654   30762  -30693  -30765       8   30654   30756  -30690  -30759       8
   30651   30750  -30687  -30753       8   30651   30744  -30684  -30747       8
   30645   30738  -30681  -30741       8   30645   30732  -30678  -30735       8
   30642   30726  -30675  -30729       8   30642   30720  -30672  -30723       8
   30639   30717  -30669  -30714       8   30639   30711  -30666  -30708       8
   30636   30702  -30663  -30705       8   30636   30696  -30660  -30699       8
   30597   30600  -30630  -30657       8   30585   30591  -30621  -30648       8
   30630   30567  -30600  -30633       8   30621   30561  -30591  -30624       8
   30552   30579  -30573  -30612       8   30546   30597  -30564  -30594       8
   30543   30585  -30558  -30588       8   30540   30579  -30555  -30582       8
   30573   30537  -30552  -30576       8   30492   30528  -30513  -30534       8
   30489   30528  -30507  -30531       8   30486   30519  -30501  -30525       8
   30480   30513  -30492  -30516       8   30480   30507  -30489  -30510       8
   30477   30501  -30486  -30504       8   30477   30495  -30483  -30498       8
   30441   30465  -30459  -30471       8   30438   30465  -30453  -30468       8
   30432   30459  -30441  -30462       8   30432   30453  -30438  -30456       8
   31176   31296  -31245  -31302       8   31173   31296  -31239  -31299       8
   31170   31287  -31233  -31293       8   31167   31287  -31227  -31290       8
   31164   31278  -31221  -31284       8   31161   31278  -31215  -31281       8
   31158   31272  -31209  -31275       8   31155   31272  -31203  -31269       8
   31152   31260  -31200  -31266       8   31149   31260  -31194  -31263       8
   31146   31251  -31185  -31257       8   31143   31251  -31179  -31254       8
   31137   31245  -31176  -31248       8   31137   31239  -31173  -31242       8
   31134   31233  -31170  -31236       8   31134   31227  -31167  -31230       8
   31128   31221  -31164  -31224       8   31128   31215  -31161  -31218       8
   31125   31209  -31158  -31212       8   31125   31203  -31155  -31206       8
   31122   31200  -31152  -31197       8   31122   31194  -31149  -31191       8
   31119   31185  -31146  -31188       8   31119   31179  -31143  -31182       8
   31080   31083  -31113  -31140       8   31068   31074  -31104  -31131       8
   31113   31050  -31083  -31116       8   31104   31044  -31074  -31107       8
   31035   31062  -31056  -31095       8   31029   31080  -31047  -31077       8
   31026   31068  -31041  -31071       8   31023   31062  -31038  -31065       8
   31056   31020  -31035  -31059       8   30975   31011  -30996  -31017       8
   30972   31011  -30990  -31014       8   30969   31002  -30984  -31008       8
   30963   30996  -30975  -30999       8   30963   30990  -30972  -30993       8
   30960   30984  -30969  -30987       8   30960   30978  -30966  -30981       8
   30924   30948  -30942  -30954       8   30921   30948  -30936  -30951       8
   30915   30942  -30924  -30945       8   30915   30936  -30921  -30939       8
   31659   31779  -31728  -31785       8   31656   31779  -31722  -31782       8
   31653   31770  -31716  -31776       8   31650   31770  -31710  -31773       8
   31647   31761  -31704  -31767       8   31644   31761  -31698  -31764       8
   31641   31755  -31692  -31758       8   31638   31755  -31686  -31752       8
   31635   31743  -31683  -31749       8   31632   31743  -31677  -31746       8
   31629   31734  -31668  -31740       8   31626   31734  -31662  -31737       8
   31620   31728  -31659  -31731       8   31620   31722  -31656  -31725       8
   31617   31716  -31653  -31719       8   31617   31710  -31650  -31713       8
   31611   31704  -31647  -31707       8   31611   31698  -31644  -31701       8
   31608   31692  -31641  -31695       8   31608   31686  -31638  -31689       8
   31605   31683  -31635  -31680       8   31605   31677  -31632  -31674       8
   31602   31668  -31629  -31671       8   31602   31662  -31626  -31665       8
   31563   31566  -31596  -31623       8   31551   31557  -31587  -31614       8
   31596   31533  -31566  -31599       8   31587   31527  -31557  -31590       8
   31518   31545  -31539  -31578       8   31512   31563  -31530  -31560       8
   31509   31551  -31524  -31554       8   31506   31545  -31521  -31548       8
   31539   31503  -31518  -31542       8   31458   31494  -31479  -31500       8
   31455   31494  -31473  -31497       8   31452   31485  -31467  -31491       8
   31446   31479  -31458  -31482       8   31446   31473  -31455  -31476       8
   31443   31467  -31452  -31470       8   31443   31461  -31449  -31464       8
   31407   31431  -31425  -31437       8   31404   31431  -31419  -31434       8
   31398   31425  -31407  -31428       8   31398   31419  -31404  -31422       8
   32142   32262  -32211  -32268       8   32139   32262  -32205  -32265       8
   32136   32253  -32199  -32259       8   32133   32253  -32193  -32256       8
   32130   32244  -32187  -32250       8   32127   32244  -32181  -32247       8
   32124   32238  -32175  -32241       8   32121   32238  -32169  -32235       8
   32118   32226  -32166  -32232       8   32115   32226  -32160  -32229       8
   32112   32217  -32151  -32223       8   32109   32217  -32145  -32220       8
   32103   32211  -32142  -32214       8   32103   32205  -32139  -32208       8
   32100   32199  -32136  -32202       8   32100   32193  -32133  -32196       8
   32094   32187  -32130  -32190       8   32094   32181  -32127  -32184       8
   32091   32175  -32124  -32178       8   32091   32169  -32121  -32172       8
   32088   32166  -32118  -32163       8   32088   32160  -32115  -32157       8
   32085   32151  -32112  -32154       8   32085   32145  -32109  -32148       8
   32046   32049  -32079  -32106       8   32034   32040  -32070  -32097       8
   32079   32016  -32049  -32082       8   32070   32010  -32040  -32073       8
   32001   32028  -32022  -32061       8   31995   32046  -32013  -32043       8
   31992   32034  -32007  -32037       8   31989   32028  -32004  -32031       8
   32022   31986  -32001  -32025       8   31941   31977  -31962  -31983       8
   31938   31977  -31956  -31980       8   31935   31968  -31950  -31974       8
   31929   31962  -31941  -31965       8   31929   31956  -31938  -31959       8
   31926   31950  -31935  -31953       8   31926   31944  -31932  -31947       8
   31890   31914  -31908  -31920       8   31887   31914  -31902  -31917       8
   31881   31908  -31890  -31911       8   31881   31902  -31887  -31905       8
   32625   32745  -32694  -32751       8   32622   32745  -32688  -32748       8
   32619   32736  -32682  -32742       8   32616   32736  -32676  -32739       8
   32613   32727  -32670  -32733       8   32610   32727  -32664  -32730       8
   32607   32721  -32658  -32724       8   32604   32721  -32652  -32718       8
   32601   32709  -32649  -32715       8   32598   32709  -32643  -32712       8
   32595   32700  -32634  -32706       8   32592   32700  -32628  -32703       8
   32586   32694  -32625  -32697       8   32586   32688  -32622  -32691       8
   32583   32682  -32619  -32685       8   32583   32676  -32616  -32679       8
   32577   32670  -32613  -32673       8   32577   32664  -32610  -32667       8
   32574   32658  -32607  -32661       8   32574   32652  -32604  -32655       8
   32571   32649  -32601  -32646       8   32571   32643  -32598  -32640       8
   32568   32634  -32595  -32637       8   32568   32628  -32592  -32631       8
   32529   32532  -32562  -32589       8   32517   32523  -32553  -32580       8
   32562   32499  -32532  -32565       8   32553   32493  -32523  -32556       8
   32484   32511  -32505  -32544       8   32478   32529  -32496  -32526       8
   32475   32517  -32490  -32520       8   32472   32511  -32487  -32514       8
   32505   32469  -32484  -32508       8   32424   32460  -32445  -32466       8
   32421   32460  -32439  -32463       8   32418   32451  -32433  -32457       8
   32412   32445  -32424  -32448       8   32412   32439  -32421  -32442       8
   32409   32433  -32418  -32436       8   32409   32427  -32415  -32430       8
   32373   32397  -32391  -32403       8   32370   32397  -32385  -32400       8
   32364   32391  -32373  -32394       8   32364   32385  -32370  -32388       8
   33108   33228  -33177  -33234       8   33105   33228  -33171  -33231       8
   33102   33219  -33165  -33225       8   33099   33219  -33159  -33222       8
   33096   33210  -33153  -33216       8   33093   33210  -33147  -33213       8
   33090   33204  -33141  -33207       8   33087   33204  -33135  -33201       8
   33084   33192  -33132  -33198       8   33081   33192  -33126  -33195       8
   33078   33183  -33117  -33189       8   33075   33183  -33111  -33186       8
   33069   33177  -33108  -33180       8   33069   33171  -33105  -33174       8
   33066   33165  -33102  -33168       8   33066   33159  -33099  -33162       8
   33060   33153  -33096  -33156       8   33060   33147  -33093  -33150       8
   33057   33141  -33090  -33144       8   33057   33135  -33087  -33138       8
   33054   33132  -33084  -33129       8   33054   33126  -33081  -33123       8
   33051   33117  -33078  -33120       8   33051   33111  -33075  -33114       8
   33012   33015  -33045  -33072       8   33000   33006  -33036  -33063       8
   33045   32982  -33015  -33048       8   33036   32976  -33006  -33039       8
   32967   32994  -32988  -33027       8   32961   33012  -32979  -33009       8
   32958   33000  -32973  -33003       8   32955   32994  -32970  -32997       8
   32988   32952  -32967  -32991       8   32907   32943  -32928  -32949       8
   32904   32943  -32922  -32946       8   32901   32934  -32916  -32940       8
   32895   32928  -32907  -32931       8   32895   32922  -32904  -32925       8
   32892   32916  -32901  -32919       8   32892   32910  -32898  -32913       8
   32856   32880  -32874  -32886       8   32853   32880  -32868  -32883       8
   32847   32874  -32856  -32877       8   32847   32868  -32853  -32871       8
   33591   33711  -33660  -33717       8   33588   33711  -33654  -33714       8
   33585   33702  -33648  -33708       8   33582   33702  -33642  -33705       8
   33579   33693  -33636  -33699       8   33576   33693  -33630  -33696       8
   33573   33687  -33624  -33690       8   33570   33687  -33618  -33684       8
   33567   33675  -33615  -33681       8   33564   33675  -33609  -33678       8
   33561   33666  -33600  -33672       8   33558   33666  -33594  -33669       8
   33552   33660  -33591  -33663       8   33552   33654  -33588  -33657       8
   33549   33648  -33585  -33651       8   33549   33642  -33582  -33645       8
   33543   33636  -33579  -33639       8   33543   33630  -33576  -33633       8
   33540   33624  -33573  -33627       8   33540   33618  -33570  -33621       8
   33537   33615  -33567  -33612       8   33537   33609  -33564  -33606       8
   33534   33600  -33561  -33603       8   33534   33594  -33558  -33597       8
   33495   33498  -33528  -33555       8   33483   33489  -33519  -33546       8
   33528   33465  -33498  -33531       8   33519   33459  -33489  -33522       8
   33450   33477  -33471  -33510       8   33444   33495  -33462  -33492       8
   33441   33483  -33456  -33486       8   33438   33477  -33453  -33480       8
   33471   33435  -33450  -33474       8   33390   33426  -33411  -33432       8
   33387   33426  -33405  -33429       8   33384   33417  -33399  -33423       8
   33378   33411  -33390  -33414       8   33378   33405  -33387  -33408       8
   33375   33399  -33384  -33402       8   33375   33393  -33381  -33396       8
   33339   33363  -33357  -33369       8   33336   33363  -33351  -33366       8
   33330   33357  -33339  -33360       8   33330   33351  -33336  -33354       8
   34074   34194  -34143  -34200       8   34071   34194  -34137  -34197       8
   34068   34185  -34131  -34191       8   34065   34185  -34125  -34188       8
   34062   34176  -34119  -34182       8   34059   34176  -34113  -34179       8
   34056   34170  -34107  -34173       8   34053   34170  -34101  -34167       8
   34050   34158  -34098  -34164       8   34047   34158  -34092  -34161       8
   34044   34149  -34083  -34155       8   34041   34149  -34077  -34152       8
   34035   34143  -34074  -34146       8   34035   34137  -34071  -34140       8
   34032   34131  -34068  -34134       8   34032   34125  -34065  -34128       8
   34026   34119  -34062  -34122       8   34026   34113  -34059  -34116       8
   34023   34107  -34056  -34110       8   34023   34101  -34053  -34104       8
   34020   34098  -34050  -34095       8   34020   34092  -34047  -34089       8
   34017   34083  -34044  -34086       8   34017   34077  -34041  -34080       8
   33978   33981  -34011  -34038       8   33966   33972  -34002  -34029       8
   34011   33948  -33981  -34014       8   34002   33942  -33972  -34005       8
   33933   33960  -33954  -33993       8   33927   33978  -33945  -33975       8
   33924   33966  -33939  -33969       8   33921   33960  -33936  -33963       8
   33954   33918  -33933  -33957       8   33873   33909  -33894  -33915       8
   33870   33909  -33888  -33912       8   33867   33900  -33882  -33906       8
   33861   33894  -33873  -33897       8   33861   33888  -33870  -33891       8
   33858   33882  -33867  -33885       8   33858   33876  -33864  -33879       8
   33822   33846  -33840  -33852       8   33819   33846  -33834  -33849       8
   33813   33840  -33822  -33843       8   33813   33834  -33819  -33837       8
   34557   34677  -34626  -34683       8   34554   34677  -34620  -34680       8
   34551   34668  -34614  -34674       8   34548   34668  -34608  -34671       8
   34545   34659  -34602  -34665       8   34542   34659  -34596  -34662       8
   34539   34653  -34590  -34656       8   34536   34653  -34584  -34650       8
   34533   34641  -34581  -34647       8   34530   34641  -34575  -34644       8
   34527   34632  -34566  -34638       8   34524   34632  -34560  -34635       8
   34518   34626  -34557  -34629       8   34518   34620  -34554  -34623       8
   34515   34614  -34551  -34617       8   34515   34608  -34548  -34611       8
   34509   34602  -34545  -34605       8   34509   34596  -34542  -34599       8
   34506   34590  -34539  -34593       8   34506   34584  -34536  -34587       8
   34503   34581  -34533  -34578       8   34503   34575  -34530  -34572       8
   34500   34566  -34527  -34569       8   34500   34560  -34524  -34563       8
   34461   34464  -34494  -34521       8   34449   34455  -34485  -34512       8
   34494   34431  -34464  -34497       8   34485   34425  -34455  -34488       8
   34416   34443  -34437  -34476       8   34410   34461  -34428  -34458       8
   34407   34449  -34422  -34452       8   34404   34443  -34419  -34446       8
   34437   34401  -34416  -34440       8   34356   34392  -34377  -34398       8
   34353   34392  -34371  -34395       8   34350   34383  -34365  -34389       8
   34344   34377  -34356  -34380       8   34344   34371  -34353  -34374       8
   34341   34365  -34350  -34368       8   34341   34359  -34347  -34362       8
   34305   34329  -34323  -34335       8   34302   34329  -34317  -34332       8
   34296   34323  -34305  -34326       8   34296   34317  -34302  -34320       8
   35040   35160  -35109  -35166       8   35037   35160  -35103  -35163       8
   35034   35151  -35097  -35157       8   35031   35151  -35091  -35154       8
   35028   35142  -35085  -35148       8   35025   35142  -35079  -35145       8
   35022   35136  -35073  -35139       8   35019   35136  -35067  -35133       8
   35016   35124  -35064  -35130       8   35013   35124  -35058  -35127       8
   35010   35115  -35049  -35121       8   35007   35115  -35043  -35118       8
   35001   35109  -35040  -35112       8   35001   35103  -35037  -35106       8
   34998   35097  -35034  -35100       8   34998   35091  -35031  -35094       8
   34992   35085  -35028  -35088       8   34992   35079  -35025  -35082       8
   34989   35073  -35022  -35076       8   34989   35067  -35019  -35070       8
   34986   35064  -35016  -35061       8   34986   35058  -35013  -35055       8
   34983   35049  -35010  -35052       8   34983   35043  -35007  -35046       8
   34944   34947  -34977  -35004       8   34932   34938  -34968  -34995       8
   34977   34914  -34947  -34980       8   34968   34908  -34938  -34971       8
   34899   34926  -34920  -34959       8   34893   34944  -34911  -34941       8
   34890   34932  -34905  -34935       8   34887   34926  -34902  -34929       8
   34920   34884  -34899  -34923       8   34839   34875  -34860  -34881       8
   34836   34875  -34854  -34878       8   34833   34866  -34848  -34872       8
   34827   34860  -34839  -34863       8   34827   34854  -34836  -34857       8
   34824   34848  -34833  -34851       8   34824   34842  -34830  -34845       8
   34788   34812  -34806  -34818       8   34785   34812  -34800  -34815       8
   34779   34806  -34788  -34809       8   34779   34800  -34785  -34803       8
   35523   35643  -35592  -35649       8   35520   35643  -35586  -35646       8
   35517   35634  -35580  -35640       8   35514   35634  -35574  -35637       8
   35511   35625  -35568  -35631       8   35508   35625  -35562  -35628       8
   35505   35619  -35556  -35622       8   35502   35619  -35550  -35616       8
   35499   35607  -35547  -35613       8   35496   35607  -35541  -35610       8
   35493   35598  -35532  -35604       8   35490   35598  -35526  -35601       8
   35484   35592  -35523  -35595       8   35484   35586  -35520  -35589       8
   35481   35580  -35517  -35583       8   35481   35574  -35514  -35577       8
   35475   35568  -35511  -35571       8   35475   35562  -35508  -35565       8
   35472   35556  -35505  -35559       8   35472   35550  -35502  -35553       8
   35469   35547  -35499  -35544       8   35469   35541  -35496  -35538       8
   35466   35532  -35493  -35535       8   35466   35526  -35490  -35529       8
   35427   35430  -35460  -35487       8   35415   35421  -35451  -35478       8
   35460   35397  -35430  -35463       8   35451   35391  -35421  -35454       8
   35382   35409  -35403  -35442       8   35376   35427  -35394  -35424       8
   35373   35415  -35388  -35418       8   35370   35409  -35385  -35412       8
   35403   35367  -35382  -35406       8   35322   35358  -35343  -35364       8
   35319   35358  -35337  -35361       8   35316   35349  -35331  -35355       8
   35310   35343  -35322  -35346       8   35310   35337  -35319  -35340       8
   35307   35331  -35316  -35334       8   35307   35325  -35313  -35328       8
   35271   35295  -35289  -35301       8   35268   35295  -35283  -35298       8
   35262   35289  -35271  -35292       8   35262   35283  -35268  -35286       8
   36006   36126  -36075  -36132       8   36003   36126  -36069  -36129       8
   36000   36117  -36063  -36123       8   35997   36117  -36057  -36120       8
   35994   36108  -36051  -36114       8   35991   36108  -36045  -36111       8
   35988   36102  -36039  -36105       8   35985   36102  -36033  -36099       8
   35982   36090  -36030  -36096       8   35979   36090  -36024  -36093       8
   35976   36081  -36015  -36087       8   35973   36081  -36009  -36084       8
   35967   36075  -36006  -36078       8   35967   36069  -36003  -36072       8
   35964   36063  -36000  -36066       8   35964   36057  -35997  -36060       8
   35958   36051  -35994  -36054       8   35958   36045  -35991  -36048       8
   35955   36039  -35988  -36042       8   35955   36033  -35985  -36036       8
   35952   36030  -35982  -36027       8   35952   36024  -35979  -36021       8
   35949   36015  -35976  -36018       8   35949   36009  -35973  -36012       8
   35910   35913  -35943  -35970       8   35898   35904  -35934  -35961       8
   35943   35880  -35913  -35946       8   35934   35874  -35904  -35937       8
   35865   35892  -35886  -35925       8   35859   35910  -35877  -35907       8
   35856   35898  -35871  -35901       8   35853   35892  -35868  -35895       8
   35886   35850  -35865  -35889       8   35805   35841  -35826  -35847       8
   35802   35841  -35820  -35844       8   35799   35832  -35814  -35838       8
   35793   35826  -35805  -35829       8   35793   35820  -35802  -35823       8
   35790   35814  -35799  -35817       8   35790   35808  -35796  -35811       8
   35754   35778  -35772  -35784       8   35751   35778  -35766  -35781       8
   35745   35772  -35754  -35775       8   35745   35766  -35751  -35769       8
   36489   36609  -36558  -36615       8   36486   36609  -36552  -36612       8
   36483   36600  -36546  -36606       8   36480   36600  -36540  -36603       8
   36477   36591  -36534  -36597       8   36474   36591  -36528  -36594       8
   36471   36585  -36522  -36588       8   36468   36585  -36516  -36582       8
   36465   36573  -36513  -36579       8   36462   36573  -36507  -36576       8
   36459   36564  -36498  -36570       8   36456   36564  -36492  -36567       8
   36450   36558  -36489  -36561       8   36450   36552  -36486  -36555       8
   36447   36546  -36483  -36549       8   36447   36540  -36480  -36543       8
   36441   36534  -36477  -36537       8   36441   36528  -36474  -36531       8
   36438   36522  -36471  -36525       8   36438   36516  -36468  -36519       8
   36435   36513  -36465  -36510       8   36435   36507  -36462  -36504       8
   36432   36498  -36459  -36501       8   36432   36492  -36456  -36495       8
   36393   36396  -36426  -36453       8   36381   36387  -36417  -36444       8
   36426   36363  -36396  -36429       8   36417   36357  -36387  -36420       8
   36348   36375  -36369  -36408       8   36342   36393  -36360  -36390       8
   36339   36381  -36354  -36384       8   36336   36375  -36351  -36378       8
   36369   36333  -36348  -36372       8   36288   36324  -36309  -36330       8
   36285   36324  -36303  -36327       8   36282   36315  -36297  -36321       8
   36276   36309  -36288  -36312       8   36276   36303  -36285  -36306       8
   36273   36297  -36282  -36300       8   36273   36291  -36279  -36294       8
   36237   36261  -36255  -36267       8   36234   36261  -36249  -36264       8
   36228   36255  -36237  -36258       8   36228   36249  -36234  -36252       8
   36972   37092  -37041  -37098       8   36969   37092  -37035  -37095       8
   36966   37083  -37029  -37089       8   36963   37083  -37023  -37086       8
   36960   37074  -37017  -37080       8   36957   37074  -37011  -37077       8
   36954   37068  -37005  -37071       8   36951   37068  -36999  -37065       8
   36948   37056  -36996  -37062       8   36945   37056  -36990  -37059       8
   36942   37047  -36981  -37053       8   36939   37047  -36975  -37050       8
   36933   37041  -36972  -37044       8   36933   37035  -36969  -37038       8
   36930   37029  -36966  -37032       8   36930   37023  -36963  -37026       8
   36924   37017  -36960  -37020       8   36924   37011  -36957  -37014       8
   36921   37005  -36954  -37008       8   36921   36999  -36951  -37002       8
   36918   36996  -36948  -36993       8   36918   36990  -36945  -36987       8
   36915   36981  -36942  -36984       8   36915   36975  -36939  -36978       8
   36876   36879  -36909  -36936       8   36864   36870  -36900  -36927       8
   36909   36846  -36879  -36912       8   36900   36840  -36870  -36903       8
   36831   36858  -36852  -36891       8   36825   36876  -36843  -36873       8
   36822   36864  -36837  -36867       8   36819   36858  -36834  -36861       8
   36852   36816  -36831  -36855       8   36771   36807  -36792  -36813       8
   36768   36807  -36786  -36810       8   36765   36798  -36780  -36804       8
   36759   36792  -36771  -36795       8   36759   36786  -36768  -36789       8
   36756   36780  -36765  -36783       8   36756   36774  -36762  -36777       8
   36720   36744  -36738  -36750       8   36717   36744  -36732  -36747       8
   36711   36738  -36720  -36741       8   36711   36732  -36717  -36735       8
   37455   37575  -37524  -37581       8   37452   37575  -37518  -37578       8
   37449   37566  -37512  -37572       8   37446   37566  -37506  -37569       8
   37443   37557  -37500  -37563       8   37440   37557  -37494  -37560       8
   37437   37551  -37488  -37554       8   37434   37551  -37482  -37548       8
   37431   37539  -37479  -37545       8   37428   37539  -37473  -37542       8
   37425   37530  -37464  -37536       8   37422   37530  -37458  -37533       8
   37416   37524  -37455  -37527       8   37416   37518  -37452  -37521       8
   37413   37512  -37449  -37515       8   37413   37506  -37446  -37509       8
   37407   37500  -37443  -37503       8   37407   37494  -37440  -37497       8
   37404   37488  -37437  -37491       8   37404   37482  -37434  -37485       8
   37401   37479  -37431  -37476       8   37401   37473  -37428  -37470       8
   37398   37464  -37425  -37467       8   37398   37458  -37422  -37461       8
   37359   37362  -37392  -37419       8   37347   37353  -37383  -37410       8
   37392   37329  -37362  -37395       8   37383   37323  -37353  -37386       8
   37314   37341  -37335  -37374       8   37308   37359  -37326  -37356       8
   37305   37347  -37320  -37350       8   37302   37341  -37317  -37344       8
   37335   37299  -37314  -37338       8   37254   37290  -37275  -37296       8
   37251   37290  -37269  -37293       8   37248   37281  -37263  -37287       8
   37242   37275  -37254  -37278       8   37242   37269  -37251  -37272       8
   37239   37263  -37248  -37266       8   37239   37257  -37245  -37260       8
   37203   37227  -37221  -37233       8   37200   37227  -37215  -37230       8
   37194   37221  -37203  -37224       8   37194   37215  -37200  -37218       8
   37938   38058  -38007  -38064       8   37935   38058  -38001  -38061       8
   37932   38049  -37995  -38055       8   37929   38049  -37989  -38052       8
   37926   38040  -37983  -38046       8   37923   38040  -37977  -38043       8
   37920   38034  -37971  -38037       8   37917   38034  -37965  -38031       8
   37914   38022  -37962  -38028       8   37911   38022  -37956  -38025       8
   37908   38013  -37947  -38019       8   37905   38013  -37941  -38016       8
   37899   38007  -37938  -38010       8   37899   38001  -37935  -38004       8
   37896   37995  -37932  -37998       8   37896   37989  -37929  -37992       8
   37890   37983  -37926  -37986       8   37890   37977  -37923  -37980       8
   37887   37971  -37920  -37974       8   37887   37965  -37917  -37968       8
   37884   37962  -37914  -37959       8   37884   37956  -37911  -37953       8
   37881   37947  -37908  -37950       8   37881   37941  -37905  -37944       8
   37842   37845  -37875  -37902       8   37830   37836  -37866  -37893       8
   37875   37812  -37845  -37878       8   37866   37806  -37836  -37869       8
   37797   37824  -37818  -37857       8   37791   37842  -37809  -37839       8
   37788   37830  -37803  -37833       8   37785   37824  -37800  -37827       8
   37818   37782  -37797  -37821       8   37737   37773  -37758  -37779       8
   37734   37773  -37752  -37776       8   37731   37764  -37746  -37770       8
   37725   37758  -37737  -37761       8   37725   37752  -37734  -37755       8
   37722   37746  -37731  -37749       8   37722   37740  -37728  -37743       8
   37686   37710  -37704  -37716       8   37683   37710  -37698  -37713       8
   37677   37704  -37686  -37707       8   37677   37698  -37683  -37701       8
   38421   38541  -38490  -38547       8   38418   38541  -38484  -38544       8
   38415   38532  -38478  -38538       8   38412   38532  -38472  -38535       8
   38409   38523  -38466  -38529       8   38406   38523  -38460  -38526       8
   38403   38517  -38454  -38520       8   38400   38517  -38448  -38514       8
   38397   38505  -38445  -38511       8   38394   38505  -38439  -38508       8
   38391   38496  -38430  -38502       8   38388   38496  -38424  -38499       8
   38382   38490  -38421  -38493       8   38382   38484  -38418  -38487       8
   38379   38478  -38415  -38481       8   38379   38472  -38412  -38475       8
   38373   38466  -38409  -38469       8   38373   38460  -38406  -38463       8
   38370   38454  -38403  -38457       8   38370   38448  -38400  -38451       8
   38367   38445  -38397  -38442       8   38367   38439  -38394  -38436       8
   38364   38430  -38391  -38433       8   38364   38424  -38388  -38427       8
   38325   38328  -38358  -38385       8   38313   38319  -38349  -38376       8
   38358   38295  -38328  -38361       8   38349   38289  -38319  -38352       8
   38280   38307  -38301  -38340       8   38274   38325  -38292  -38322       8
   38271   38313  -38286  -38316       8   38268   38307  -38283  -38310       8
   38301   38265  -38280  -38304       8   38220   38256  -38241  -38262       8
   38217   38256  -38235  -38259       8   38214   38247  -38229  -38253       8
   38208   38241  -38220  -38244       8   38208   38235  -38217  -38238       8
   38205   38229  -38214  -38232       8   38205   38223  -38211  -38226       8
   38169   38193  -38187  -38199       8   38166   38193  -38181  -38196       8
   38160   38187  -38169  -38190       8   38160   38181  -38166  -38184       8
   38904   39024  -38973  -39030       8   38901   39024  -38967  -39027       8
   38898   39015  -38961  -39021       8   38895   39015  -38955  -39018       8
   38892   39006  -38949  -39012       8   38889   39006  -38943  -39009       8
   38886   39000  -38937  -39003       8   38883   39000  -38931  -38997       8
   38880   38988  -38928  -38994       8   38877   38988  -38922  -38991       8
   38874   38979  -38913  -38985       8   38871   38979  -38907  -38982       8
   38865   38973  -38904  -38976       8   38865   38967  -38901  -38970       8
   38862   38961  -38898  -38964       8   38862   38955  -38895  -38958       8
   38856   38949  -38892  -38952       8   38856   38943  -38889  -38946       8
   38853   38937  -38886  -38940       8   38853   38931  -38883  -38934       8
   38850   38928  -38880  -38925       8   38850   38922  -38877  -38919       8
   38847   38913  -38874  -38916       8   38847   38907  -38871  -38910       8
   38808   38811  -38841  -38868       8   38796   38802  -38832  -38859       8
   38841   38778  -38811  -38844       8   38832   38772  -38802  -38835       8
   38763   38790  -38784  -38823       8   38757   38808  -38775  -38805       8
   38754   38796  -38769  -38799       8   38751   38790  -38766  -38793       8
   38784   38748  -38763  -38787       8   38703   38739  -38724  -38745       8
   38700   38739  -38718  -38742       8   38697   38730  -38712  -38736       8
   38691   38724  -38703  -38727       8   38691   38718  -38700  -38721       8
   38688   38712  -38697  -38715       8   38688   38706  -38694  -38709       8
   38652   38676  -38670  -38682       8   38649   38676  -38664  -38679       8
   38643   38670  -38652  -38673       8   38643   38664  -38649  -38667       8
   39387   39507  -39456  -39513       8   39384   39507  -39450  -39510       8
   39381   39498  -39444  -39504       8   39378   39498  -39438  -39501       8
   39375   39489  -39432  -39495       8   39372   39489  -39426  -39492       8
   39369   39483  -39420  -39486       8   39366   39483  -39414  -39480       8
   39363   39471  -39411  -39477       8   39360   39471  -39405  -39474       8
   39357   39462  -39396  -39468       8   39354   39462  -39390  -39465       8
   39348   39456  -39387  -39459       8   39348   39450  -39384  -39453       8
   39345   39444  -39381  -39447       8   39345   39438  -39378  -39441       8
   39339   39432  -39375  -39435       8   39339   39426  -39372  -39429       8
   39336   39420  -39369  -39423       8   39336   39414  -39366  -39417       8
   39333   39411  -39363  -39408       8   39333   39405  -39360  -39402       8
   39330   39396  -39357  -39399       8   39330   39390  -39354  -39393       8
   39291   39294  -39324  -39351       8   39279   39285  -39315  -39342       8
   39324   39261  -39294  -39327       8   39315   39255  -39285  -39318       8
   39246   39273  -39267  -39306       8   39240   39291  -39258  -39288       8
   39237   39279  -39252  -39282       8   39234   39273  -39249  -39276       8
   39267   39231  -39246  -39270       8   39186   39222  -39207  -39228       8
   39183   39222  -39201  -39225       8   39180   39213  -39195  -39219       8
   39174   39207  -39186  -39210       8   39174   39201  -39183  -39204       8
   39171   39195  -39180  -39198       8   39171   39189  -39177  -39192       8
   39135   39159  -39153  -39165       8   39132   39159  -39147  -39162       8
   39126   39153  -39135  -39156       8   39126   39147  -39132  -39150       8
   39870   39990  -39939  -39996       8   39867   39990  -39933  -39993       8
   39864   39981  -39927  -39987       8   39861   39981  -39921  -39984       8
   39858   39972  -39915  -39978       8   39855   39972  -39909  -39975       8
   39852   39966  -39903  -39969       8   39849   39966  -39897  -39963       8
   39846   39954  -39894  -39960       8   39843   39954  -39888  -39957       8
   39840   39945  -39879  -39951       8   39837   39945  -39873  -39948       8
   39831   39939  -39870  -39942       8   39831   39933  -39867  -39936       8
   39828   39927  -39864  -39930       8   39828   39921  -39861  -39924       8
   39822   39915  -39858  -39918       8   39822   39909  -39855  -39912       8
   39819   39903  -39852  -39906       8   39819   39897  -39849  -39900       8
   39816   39894  -39846  -39891       8   39816   39888  -39843  -39885       8
   39813   39879  -39840  -39882       8   39813   39873  -39837  -39876       8
   39774   39777  -39807  -39834       8   39762   39768  -39798  -39825       8
   39807   39744  -39777  -39810       8   39798   39738  -39768  -39801       8
   39729   39756  -39750  -39789       8   39723   39774  -39741  -39771       8
   39720   39762  -39735  -39765       8   39717   39756  -39732  -39759       8
   39750   39714  -39729  -39753       8   39669   39705  -39690  -39711       8
   39666   39705  -39684  -39708       8   39663   39696  -39678  -39702       8
   39657   39690  -39669  -39693       8   39657   39684  -39666  -39687       8
   39654   39678  -39663  -39681       8   39654   39672  -39660  -39675       8
   39618   39642  -39636  -39648       8   39615   39642  -39630  -39645       8
   39609   39636  -39618  -39639       8   39609   39630  -39615  -39633       8
   40353   40473  -40422  -40479       8   40350   40473  -40416  -40476       8
   40347   40464  -40410  -40470       8   40344   40464  -40404  -40467       8
   40341   40455  -40398  -40461       8   40338   40455  -40392  -40458       8
   40335   40449  -40386  -40452       8   40332   40449  -40380  -40446       8
   40329   40437  -40377  -40443       8   40326   40437  -40371  -40440       8
   40323   40428  -40362  -40434       8   40320   40428  -40356  -40431       8
   40314   40422  -40353  -40425       8   40314   40416  -40350  -40419       8
   40311   40410  -40347  -40413       8   40311   40404  -40344  -40407       8
   40305   40398  -40341  -40401       8   40305   40392  -40338  -40395       8
   40302   40386  -40335  -40389       8   40302   40380  -40332  -40383       8
   40299   40377  -40329  -40374       8   40299   40371  -40326  -40368       8
   40296   40362  -40323  -40365       8   40296   40356  -40320  -40359       8
   40257   40260  -40290  -40317       8   40245   40251  -40281  -40308       8
   40290   40227  -40260  -40293       8   40281   40221  -40251  -40284       8
   40212   40239  -40233  -40272       8   40206   40257  -40224  -40254       8
   40203   40245  -40218  -40248       8   40200   40239  -40215  -40242       8
   40233   40197  -40212  -40236       8   40152   40188  -40173  -40194       8
   40149   40188  -40167  -40191       8   40146   40179  -40161  -40185       8
   40140   40173  -40152  -40176       8   40140   40167  -40149  -40170       8
   40137   40161  -40146  -40164       8   40137   40155  -40143  -40158       8
   40101   40125  -40119  -40131       8   40098   40125  -40113  -40128       8
   40092   40119  -40101  -40122       8   40092   40113  -40098  -40116       8
   40836   40956  -40905  -40962       8   40833   40956  -40899  -40959       8
   40830   40947  -40893  -40953       8   40827   40947  -40887  -40950       8
   40824   40938  -40881  -40944       8   40821   40938  -40875  -40941       8
   40818   40932  -40869  -40935       8   40815   40932  -40863  -40929       8
   40812   40920  -40860  -40926       8   40809   40920  -40854  -40923       8
   40806   40911  -40845  -40917       8   40803   40911  -40839  -40914       8
   40797   40905  -40836  -40908       8   40797   40899  -40833  -40902       8
   40794   40893  -40830  -40896       8   40794   40887  -40827  -40890       8
   40788   40881  -40824  -40884       8   40788   40875  -40821  -40878       8
   40785   40869  -40818  -40872       8   40785   40863  -40815  -40866       8
   40782   40860  -40812  -40857       8   40782   40854  -40809  -40851       8
   40779   40845  -40806  -40848       8   40779   40839  -40803  -40842       8
   40740   40743  -40773  -40800       8   40728   40734  -40764  -40791       8
   40773   40710  -40743  -40776       8   40764   40704  -40734  -40767       8
   40695   40722  -40716  -40755       8   40689   40740  -40707  -40737       8
   40686   40728  -40701  -40731       8   40683   40722  -40698  -40725       8
   40716   40680  -40695  -40719       8   40635   40671  -40656  -40677       8
   40632   40671  -40650  -40674       8   40629   40662  -40644  -40668       8
   40623   40656  -40635  -40659       8   40623   40650  -40632  -40653       8
   40620   40644  -40629  -40647       8   40620   40638  -40626  -40641       8
   40584   40608  -40602  -40614       8   40581   40608  -40596  -40611       8
   40575   40602  -40584  -40605       8   40575   40596  -40581  -40599       8
   41319   41439  -41388  -41445       8   41316   41439  -41382  -41442       8
   41313   41430  -41376  -41436       8   41310   41430  -41370  -41433       8
   41307   41421  -41364  -41427       8   41304   41421  -41358  -41424       8
   41301   41415  -41352  -41418       8   41298   41415  -41346  -41412       8
   41295   41403  -41343  -41409       8   41292   41403  -41337  -41406       8
   41289   41394  -41328  -41400       8   41286   41394  -41322  -41397       8
   41280   41388  -41319  -41391       8   41280   41382  -41316  -41385       8
   41277   41376  -41313  -41379       8   41277   41370  -41310  -41373       8
   41271   41364  -41307  -41367       8   41271   41358  -41304  -41361       8
   41268   41352  -41301  -41355       8   41268   41346  -41298  -41349       8
   41265   41343  -41295  -41340       8   41265   41337  -41292  -41334       8
   41262   41328  -41289  -41331       8   41262   41322  -41286  -41325       8
   41223   41226  -41256  -41283       8   41211   41217  -41247  -41274       8
   41256   41193  -41226  -41259       8   41247   41187  -41217  -41250       8
   41178   41205  -41199  -41238       8   41172   41223  -41190  -41220       8
   41169   41211  -41184  -41214       8   41166   41205  -41181  -41208       8
   41199   41163  -41178  -41202       8   41118   41154  -41139  -41160       8
   41115   41154  -41133  -41157       8   41112   41145  -41127  -41151       8
   41106   41139  -41118  -41142       8   41106   41133  -41115  -41136       8
   41103   41127  -41112  -41130       8   41103   41121  -41109  -41124       8
   41067   41091  -41085  -41097       8   41064   41091  -41079  -41094       8
   41058   41085  -41067  -41088       8   41058   41079  -41064  -41082       8
   41802   41922  -41871  -41928       8   41799   41922  -41865  -41925       8
   41796   41913  -41859  -41919       8   41793   41913  -41853  -41916       8
   41790   41904  -41847  -41910       8   41787   41904  -41841  -41907       8
   41784   41898  -41835  -41901       8   41781   41898  -41829  -41895       8
   41778   41886  -41826  -41892       8   41775   41886  -41820  -41889       8
   41772   41877  -41811  -41883       8   41769   41877  -41805  -41880       8
   41763   41871  -41802  -41874       8   41763   41865  -41799  -41868       8
   41760   41859  -41796  -41862       8   41760   41853  -41793  -41856       8
   41754   41847  -41790  -41850       8   41754   41841  -41787  -41844       8
   41751   41835  -41784  -41838       8   41751   41829  -41781  -41832       8
   41748   41826  -41778  -41823       8   41748   41820  -41775  -41817       8
   41745   41811  -41772  -41814       8   41745   41805  -41769  -41808       8
   41706   41709  -41739  -41766       8   41694   41700  -41730  -41757       8
   41739   41676  -41709  -41742       8   41730   41670  -41700  -41733       8
   41661   41688  -41682  -41721       8   41655   41706  -41673  -41703       8
   41652   41694  -41667  -41697       8   41649   41688  -41664  -41691       8
   41682   41646  -41661  -41685       8   41601   41637  -41622  -41643       8
   41598   41637  -41616  -41640       8   41595   41628  -41610  -41634       8
   41589   41622  -41601  -41625       8   41589   41616  -41598  -41619       8
   41586   41610  -41595  -41613       8   41586   41604  -41592  -41607       8
   41550   41574  -41568  -41580       8   41547   41574  -41562  -41577       8
   41541   41568  -41550  -41571       8   41541   41562  -41547  -41565       8
   42285   42405  -42354  -42411       8   42282   42405  -42348  -42408       8
   42279   42396  -42342  -42402       8   42276   42396  -42336  -42399       8
   42273   42387  -42330  -42393       8   42270   42387  -42324  -42390       8
   42267   42381  -42318  -42384       8   42264   42381  -42312  -42378       8
   42261   42369  -42309  -42375       8   42258   42369  -42303  -42372       8
   42255   42360  -42294  -42366       8   42252   42360  -42288  -42363       8
   42246   42354  -42285  -42357       8   42246   42348  -42282  -42351       8
   42243   42342  -42279  -42345       8   42243   42336  -42276  -42339       8
   42237   42330  -42273  -42333       8   42237   42324  -42270  -42327       8
   42234   42318  -42267  -42321       8   42234   42312  -42264  -42315       8
   42231   42309  -42261  -42306       8   42231   42303  -42258  -42300       8
   42228   42294  -42255  -42297       8   42228   42288  -42252  -42291       8
   42189   42192  -42222  -42249       8   42177   42183  -42213  -42240       8
   42222   42159  -42192  -42225       8   42213   42153  -42183  -42216       8
   42144   42171  -42165  -42204       8   42138   42189  -42156  -42186       8
   42135   42177  -42150  -42180       8   42132   42171  -42147  -42174       8
   42165   42129  -42144  -42168       8   42084   42120  -42105  -42126       8
   42081   42120  -42099  -42123       8   42078   42111  -42093  -42117       8
   42072   42105  -42084  -42108       8   42072   42099  -42081  -42102       8
   42069   42093  -42078  -42096       8   42069   42087  -42075  -42090       8
   42033   42057  -42051  -42063       8   42030   42057  -42045  -42060       8
   42024   42051  -42033  -42054       8   42024   42045  -42030  -42048       8
   42768   42888  -42837  -42894       8   42765   42888  -42831  -42891       8
   42762   42879  -42825  -42885       8   42759   42879  -42819  -42882       8
   42756   42870  -42813  -42876       8   42753   42870  -42807  -42873       8
   42750   42864  -42801  -42867       8   42747   42864  -42795  -42861       8
   42744   42852  -42792  -42858       8   42741   42852  -42786  -42855       8
   42738   42843  -42777  -42849       8   42735   42843  -42771  -42846       8
   42729   42837  -42768  -42840       8   42729   42831  -42765  -42834       8
   42726   42825  -42762  -42828       8   42726   42819  -42759  -42822       8
   42720   42813  -42756  -42816       8   42720   42807  -42753  -42810       8
   42717   42801  -42750  -42804       8   42717   42795  -42747  -42798       8
   42714   42792  -42744  -42789       8   42714   42786  -42741  -42783       8
   42711   42777  -42738  -42780       8   42711   42771  -42735  -42774       8
   42672   42675  -42705  -42732       8   42660   42666  -42696  -42723       8
   42705   42642  -42675  -42708       8   42696   42636  -42666  -42699       8
   42627   42654  -42648  -42687       8   42621   42672  -42639  -42669       8
   42618   42660  -42633  -42663       8   42615   42654  -42630  -42657       8
   42648   42612  -42627  -42651       8   42567   42603  -42588  -42609       8
   42564   42603  -42582  -42606       8   42561   42594  -42576  -42600       8
   42555   42588  -42567  -42591       8   42555   42582  -42564  -42585       8
   42552   42576  -42561  -42579       8   42552   42570  -42558  -42573       8
   42516   42540  -42534  -42546       8   42513   42540  -42528  -42543       8
   42507   42534  -42516  -42537       8   42507   42528  -42513  -42531       8
   43251   43371  -43320  -43377       8   43248   43371  -43314  -43374       8
   43245   43362  -43308  -43368       8   43242   43362  -43302  -43365       8
   43239   43353  -43296  -43359       8   43236   43353  -43290  -43356       8
   43233   43347  -43284  -43350       8   43230   43347  -43278  -43344       8
   43227   43335  -43275  -43341       8   43224   43335  -43269  -43338       8
   43221   43326  -43260  -43332       8   43218   43326  -43254  -43329       8
   43212   43320  -43251  -43323       8   43212   43314  -43248  -43317       8
   43209   43308  -43245  -43311       8   43209   43302  -43242  -43305       8
   43203   43296  -43239  -43299       8   43203   43290  -43236  -43293       8
   43200   43284  -43233  -43287       8   43200   43278  -43230  -43281       8
   43197   43275  -43227  -43272       8   43197   43269  -43224  -43266       8
   43194   43260  -43221  -43263       8   43194   43254  -43218  -43257       8
   43155   43158  -43188  -43215       8   43143   43149  -43179  -43206       8
   43188   43125  -43158  -43191       8   43179   43119  -43149  -43182       8
   43110   43137  -43131  -43170       8   43104   43155  -43122  -43152       8
   43101   43143  -43116  -43146       8   43098   43137  -43113  -43140       8
   43131   43095  -43110  -43134       8   43050   43086  -43071  -43092       8
   43047   43086  -43065  -43089       8   43044   43077  -43059  -43083       8
   43038   43071  -43050  -43074       8   43038   43065  -43047  -43068       8
   43035   43059  -43044  -43062       8   43035   43053  -43041  -43056       8
   42999   43023  -43017  -43029       8   42996   43023  -43011  -43026       8
   42990   43017  -42999  -43020       8   42990   43011  -42996  -43014       8
   43734   43854  -43803  -43860       8   43731   43854  -43797  -43857       8
   43728   43845  -43791  -43851       8   43725   43845  -43785  -43848       8
   43722   43836  -43779  -43842       8   43719   43836  -43773  -43839       8
   43716   43830  -43767  -43833       8   43713   43830  -43761  -43827       8
   43710   43818  -43758  -43824       8   43707   43818  -43752  -43821       8
   43704   43809  -43743  -43815       8   43701   43809  -43737  -43812       8
   43695   43803  -43734  -43806       8   43695   43797  -43731  -43800       8
   43692   43791  -43728  -43794       8   43692   43785  -43725  -43788       8
   43686   43779  -43722  -43782       8   43686   43773  -43719  -43776       8
   43683   43767  -43716  -43770       8   43683   43761  -43713  -43764       8
   43680   43758  -43710  -43755       8   43680   43752  -43707  -43749       8
   43677   43743  -43704  -43746       8   43677   43737  -43701  -43740       8
   43638   43641  -43671  -43698       8   43626   43632  -43662  -43689       8
   43671   43608  -43641  -43674       8   43662   43602  -43632  -43665       8
   43593   43620  -43614  -43653       8   43587   43638  -43605  -43635       8
   43584   43626  -43599  -43629       8   43581   43620  -43596  -43623       8
   43614   43578  -43593  -43617       8   43533   43569  -43554  -43575       8
   43530   43569  -43548  -43572       8   43527   43560  -43542  -43566       8
   43521   43554  -43533  -43557       8   43521   43548  -43530  -43551       8
   43518   43542  -43527  -43545       8   43518   43536  -43524  -43539       8
   43482   43506  -43500  -43512       8   43479   43506  -43494  -43509       8
   43473   43500  -43482  -43503       8   43473   43494  -43479  -43497       8
   44217   44337  -44286  -44343       8   44214   44337  -44280  -44340       8
   44211   44328  -44274  -44334       8   44208   44328  -44268  -44331       8
   44205   44319  -44262  -44325       8   44202   44319  -44256  -44322       8
   44199   44313  -44250  -44316       8   44196   44313  -44244  -44310       8
   44193   44301  -44241  -44307       8   44190   44301  -44235  -44304       8
   44187   44292  -44226  -44298       8   44184   44292  -44220  -44295       8
   44178   44286  -44217  -44289       8   44178   44280  -44214  -44283       8
   44175   44274  -44211  -44277       8   44175   44268  -44208  -44271       8
   44169   44262  -44205  -44265       8   44169   44256  -44202  -44259       8
   44166   44250  -44199  -44253       8   44166   44244  -44196  -44247       8
   44163   44241  -44193  -44238       8   44163   44235  -44190  -44232       8
   44160   44226  -44187  -44229       8   44160   44220  -44184  -44223       8
   44121   44124  -44154  -44181       8   44109   44115  -44145  -44172       8
   44154   44091  -44124  -44157       8   44145   44085  -44115  -44148       8
   44076   44103  -44097  -44136       8   44070   44121  -44088  -44118       8
   44067   44109  -44082  -44112       8   44064   44103  -44079  -44106       8
   44097   44061  -44076  -44100       8   44016   44052  -44037  -44058       8
   44013   44052  -44031  -44055       8   44010   44043  -44025  -44049       8
   44004   44037  -44016  -44040       8   44004   44031  -44013  -44034       8
   44001   44025  -44010  -44028       8   44001   44019  -44007  -44022       8
   43965   43989  -43983  -43995       8   43962   43989  -43977  -43992       8
   43956   43983  -43965  -43986       8   43956   43977  -43962  -43980       8
   44700   44820  -44769  -44826       8   44697   44820  -44763  -44823       8
   44694   44811  -44757  -44817       8   44691   44811  -44751  -44814       8
   44688   44802  -44745  -44808       8   44685   44802  -44739  -44805       8
   44682   44796  -44733  -44799       8   44679   44796  -44727  -44793       8
   44676   44784  -44724  -44790       8   44673   44784  -44718  -44787       8
   44670   44775  -44709  -44781       8   44667   44775  -44703  -44778       8
   44661   44769  -44700  -44772       8   44661   44763  -44697  -44766       8
   44658   44757  -44694  -44760       8   44658   44751  -44691  -44754       8
   44652   44745  -44688  -44748       8   44652   44739  -44685  -44742       8
   44649   44733  -44682  -44736       8   44649   44727  -44679  -44730       8
   44646   44724  -44676  -44721       8   44646   44718  -44673  -44715       8
   44643   44709  -44670  -44712       8   44643   44703  -44667  -44706       8
   44604   44607  -44637  -44664       8   44592   44598  -44628  -44655       8
   44637   44574  -44607  -44640       8   44628   44568  -44598  -44631       8
   44559   44586  -44580  -44619       8   44553   44604  -44571  -44601       8
   44550   44592  -44565  -44595       8   44547   44586  -44562  -44589       8
   44580   44544  -44559  -44583       8   44499   44535  -44520  -44541       8
   44496   44535  -44514  -44538       8   44493   44526  -44508  -44532       8
   44487   44520  -44499  -44523       8   44487   44514  -44496  -44517       8
   44484   44508  -44493  -44511       8   44484   44502  -44490  -44505       8
   44448   44472  -44466  -44478       8   44445   44472  -44460  -44475       8
   44439   44466  -44448  -44469       8   44439   44460  -44445  -44463       8
   45183   45303  -45252  -45309       8   45180   45303  -45246  -45306       8
   45177   45294  -45240  -45300       8   45174   45294  -45234  -45297       8
   45171   45285  -45228  -45291       8   45168   45285  -45222  -45288       8
   45165   45279  -45216  -45282       8   45162   45279  -45210  -45276       8
   45159   45267  -45207  -45273       8   45156   45267  -45201  -45270       8
   45153   45258  -45192  -45264       8   45150   45258  -45186  -45261       8
   45144   45252  -45183  -45255       8   45144   45246  -45180  -45249       8
   45141   45240  -45177  -45243       8   45141   45234  -45174  -45237       8
   45135   45228  -45171  -45231       8   45135   45222  -45168  -45225       8
   45132   45216  -45165  -45219       8   45132   45210  -45162  -45213       8
   45129   45207  -45159  -45204       8   45129   45201  -45156  -45198       8
   45126   45192  -45153  -45195       8   45126   45186  -45150  -45189       8
   45087   45090  -45120  -45147       8   45075   45081  -45111  -45138       8
   45120   45057  -45090  -45123       8   45111   45051  -45081  -45114       8
   45042   45069  -45063  -45102       8   45036   45087  -45054  -45084       8
   45033   45075  -45048  -45078       8   45030   45069  -45045  -45072       8
   45063   45027  -45042  -45066       8   44982   45018  -45003  -45024       8
   44979   45018  -44997  -45021       8   44976   45009  -44991  -45015       8
   44970   45003  -44982  -45006       8   44970   44997  -44979  -45000       8
   44967   44991  -44976  -44994       8   44967   44985  -44973  -44988       8
   44931   44955  -44949  -44961       8   44928   44955  -44943  -44958       8
   44922   44949  -44931  -44952       8   44922   44943  -44928  -44946       8
   45666   45786  -45735  -45792       8   45663   45786  -45729  -45789       8
   45660   45777  -45723  -45783       8   45657   45777  -45717  -45780       8
   45654   45768  -45711  -45774       8   45651   45768  -45705  -45771       8
   45648   45762  -45699  -45765       8   45645   45762  -45693  -45759       8
   45642   45750  -45690  -45756       8   45639   45750  -45684  -45753       8
   45636   45741  -45675  -45747       8   45633   45741  -45669  -45744       8
   45627   45735  -45666  -45738       8   45627   45729  -45663  -45732       8
   45624   45723  -45660  -45726       8   45624   45717  -45657  -45720       8
   45618   45711  -45654  -45714       8   45618   45705  -45651  -45708       8
   45615   45699  -45648  -45702       8   45615   45693  -45645  -45696       8
   45612   45690  -45642  -45687       8   45612   45684  -45639  -45681       8
   45609   45675  -45636  -45678       8   45609   45669  -45633  -45672       8
   45570   45573  -45603  -45630       8   45558   45564  -45594  -45621       8
   45603   45540  -45573  -45606       8   45594   45534  -45564  -45597       8
   45525   45552  -45546  -45585       8   45519   45570  -45537  -45567       8
   45516   45558  -45531  -45561       8   45513   45552  -45528  -45555       8
   45546   45510  -45525  -45549       8   45465   45501  -45486  -45507       8
   45462   45501  -45480  -45504       8   45459   45492  -45474  -45498       8
   45453   45486  -45465  -45489       8   45453   45480  -45462  -45483       8
   45450   45474  -45459  -45477       8   45450   45468  -45456  -45471       8
   45414   45438  -45432  -45444       8   45411   45438  -45426  -45441       8
   45405   45432  -45414  -45435       8   45405   45426  -45411  -45429       8
   46149   46269  -46218  -46275       8   46146   46269  -46212  -46272       8
   46143   46260  -46206  -46266       8   46140   46260  -46200  -46263       8
   46137   46251  -46194  -46257       8   46134   46251  -46188  -46254       8
   46131   46245  -46182  -46248       8   46128   46245  -46176  -46242       8
   46125   46233  -46173  -46239       8   46122   46233  -46167  -46236       8
   46119   46224  -46158  -46230       8   46116   46224  -46152  -46227       8
   46110   46218  -46149  -46221       8   46110   46212  -46146  -46215       8
   46107   46206  -46143  -46209       8   46107   46200  -46140  -46203       8
   46101   46194  -46137  -46197       8   46101   46188  -46134  -46191       8
   46098   46182  -46131  -46185       8   46098   46176  -46128  -46179       8
   46095   46173  -46125  -46170       8   46095   46167  -46122  -46164       8
   46092   46158  -46119  -46161       8   46092   46152  -46116  -46155       8
   46053   46056  -46086  -46113       8   46041   46047  -46077  -46104       8
   46086   46023  -46056  -46089       8   46077   46017  -46047  -46080       8
   46008   46035  -46029  -46068       8   46002   46053  -46020  -46050       8
   45999   46041  -46014  -46044       8   45996   46035  -46011  -46038       8
   46029   45993  -46008  -46032       8   45948   45984  -45969  -45990       8
   45945   45984  -45963  -45987       8   45942   45975  -45957  -45981       8
   45936   45969  -45948  -45972       8   45936   45963  -45945  -45966       8
   45933   45957  -45942  -45960       8   45933   45951  -45939  -45954       8
   45897   45921  -45915  -45927       8   45894   45921  -45909  -45924       8
   45888   45915  -45897  -45918       8   45888   45909  -45894  -45912       8
   46632   46752  -46701  -46758       8   46629   46752  -46695  -46755       8
   46626   46743  -46689  -46749       8   46623   46743  -46683  -46746       8
   46620   46734  -46677  -46740       8   46617   46734  -46671  -46737       8
   46614   46728  -46665  -46731       8   46611   46728  -46659  -46725       8
   46608   46716  -46656  -46722       8   46605   46716  -46650  -46719       8
   46602   46707  -46641  -46713       8   46599   46707  -46635  -46710       8
   46593   46701  -46632  -46704       8   46593   46695  -46629  -46698       8
   46590   46689  -46626  -46692       8   46590   46683  -46623  -46686       8
   46584   46677  -46620  -46680       8   46584   46671  -46617  -46674       8
   46581   46665  -46614  -46668       8   46581   46659  -46611  -46662       8
   46578   46656  -46608  -46653       8   46578   46650  -46605  -46647       8
   46575   46641  -46602  -46644       8   46575   46635  -46599  -46638       8
   46536   46539  -46569  -46596       8   46524   46530  -46560  -46587       8
   46569   46506  -46539  -46572       8   46560   46500  -46530  -46563       8
   46491   46518  -46512  -46551       8   46485   46536  -46503  -46533       8
   46482   46524  -46497  -46527       8   46479   46518  -46494  -46521       8
   46512   46476  -46491  -46515       8   46431   46467  -46452  -46473       8
   46428   46467  -46446  -46470       8   46425   46458  -46440  -46464       8
   46419   46452  -46431  -46455       8   46419   46446  -46428  -46449       8
   46416   46440  -46425  -46443       8   46416   46434  -46422  -46437       8
   46380   46404  -46398  -46410       8   46377   46404  -46392  -46407       8
   46371   46398  -46380  -46401       8   46371   46392  -46377  -46395       8
   47115   47235  -47184  -47241       8   47112   47235  -47178  -47238       8
   47109   47226  -47172  -47232       8   47106   47226  -47166  -47229       8
   47103   47217  -47160  -47223       8   47100   47217  -47154  -47220       8
   47097   47211  -47148  -47214       8   47094   47211  -47142  -47208       8
   47091   47199  -47139  -47205       8   47088   47199  -47133  -47202       8
   47085   47190  -47124  -47196       8   47082   47190  -47118  -47193       8
   47076   47184  -47115  -47187       8   47076   47178  -47112  -47181       8
   47073   47172  -47109  -47175       8   47073   47166  -47106  -47169       8
   47067   47160  -47103  -47163       8   47067   47154  -47100  -47157       8
   47064   47148  -47097  -47151       8   47064   47142  -47094  -47145       8
   47061   47139  -47091  -47136       8   47061   47133  -47088  -47130       8
   47058   47124  -47085  -47127       8   47058   47118  -47082  -47121       8
   47019   47022  -47052  -47079       8   47007   47013  -47043  -47070       8
   47052   46989  -47022  -47055       8   47043   46983  -47013  -47046       8
   46974   47001  -46995  -47034       8   46968   47019  -46986  -47016       8
   46965   47007  -46980  -47010       8   46962   47001  -46977  -47004       8
   46995   46959  -46974  -46998       8   46914   46950  -46935  -46956       8
   46911   46950  -46929  -46953       8   46908   46941  -46923  -46947       8
   46902   46935  -46914  -46938       8   46902   46929  -46911  -46932       8
   46899   46923  -46908  -46926       8   46899   46917  -46905  -46920       8
   46863   46887  -46881  -46893       8   46860   46887  -46875  -46890       8
   46854   46881  -46863  -46884       8   46854   46875  -46860  -46878       8
   47598   47718  -47667  -47724       8   47595   47718  -47661  -47721       8
   47592   47709  -47655  -47715       8   47589   47709  -47649  -47712       8
   47586   47700  -47643  -47706       8   47583   47700  -47637  -47703       8
   47580   47694  -47631  -47697       8   47577   47694  -47625  -47691       8
   47574   47682  -47622  -47688       8   47571   47682  -47616  -47685       8
   47568   47673  -47607  -47679       8   47565   47673  -47601  -47676       8
   47559   47667  -47598  -47670       8   47559   47661  -47595  -47664       8
   47556   47655  -47592  -47658       8   47556   47649  -47589  -47652       8
   47550   47643  -47586  -47646       8   47550   47637  -47583  -47640       8
   47547   47631  -47580  -47634       8   47547   47625  -47577  -47628       8
   47544   47622  -47574  -47619       8   47544   47616  -47571  -47613       8
   47541   47607  -47568  -47610       8   47541   47601  -47565  -47604       8
   47502   47505  -47535  -47562       8   47490   47496  -47526  -47553       8
   47535   47472  -47505  -47538       8   47526   47466  -47496  -47529       8
   47457   47484  -47478  -47517       8   47451   47502  -47469  -47499       8
   47448   47490  -47463  -47493       8   47445   47484  -47460  -47487       8
   47478   47442  -47457  -47481       8   47397   47433  -47418  -47439       8
   47394   47433  -47412  -47436       8   47391   47424  -47406  -47430       8
   47385   47418  -47397  -47421       8   47385   47412  -47394  -47415       8
   47382   47406  -47391  -47409       8   47382   47400  -47388  -47403       8
   47346   47370  -47364  -47376       8   47343   47370  -47358  -47373       8
   47337   47364  -47346  -47367       8   47337   47358  -47343  -47361       8
   48081   48201  -48150  -48207       8   48078   48201  -48144  -48204       8
   48075   48192  -48138  -48198       8   48072   48192  -48132  -48195       8
   48069   48183  -48126  -48189       8   48066   48183  -48120  -48186       8
   48063   48177  -48114  -48180       8   48060   48177  -48108  -48174       8
   48057   48165  -48105  -48171       8   48054   48165  -48099  -48168       8
   48051   48156  -48090  -48162       8   48048   48156  -48084  -48159       8
   48042   48150  -48081  -48153       8   48042   48144  -48078  -48147       8
   48039   48138  -48075  -48141       8   48039   48132  -48072  -48135       8
   48033   48126  -48069  -48129       8   48033   48120  -48066  -48123       8
   48030   48114  -48063  -48117       8   48030   48108  -48060  -48111       8
   48027   48105  -48057  -48102       8   48027   48099  -48054  -48096       8
   48024   48090  -48051  -48093       8   48024   48084  -48048  -48087       8
   47985   47988  -48018  -48045       8   47973   47979  -48009  -48036       8
   48018   47955  -47988  -48021       8   48009   47949  -47979  -48012       8
   47940   47967  -47961  -48000       8   47934   47985  -47952  -47982       8
   47931   47973  -47946  -47976       8   47928   47967  -47943  -47970       8
   47961   47925  -47940  -47964       8   47880   47916  -47901  -47922       8
   47877   47916  -47895  -47919       8   47874   47907  -47889  -47913       8
   47868   47901  -47880  -47904       8   47868   47895  -47877  -47898       8
   47865   47889  -47874  -47892       8   47865   47883  -47871  -47886       8
   47829   47853  -47847  -47859       8   47826   47853  -47841  -47856       8
   47820   47847  -47829  -47850       8   47820   47841  -47826  -47844       8
   48564   48684  -48633  -48690       8   48561   48684  -48627  -48687       8
   48558   48675  -48621  -48681       8   48555   48675  -48615  -48678       8
   48552   48666  -48609  -48672       8   48549   48666  -48603  -48669       8
   48546   48660  -48597  -48663       8   48543   48660  -48591  -48657       8
   48540   48648  -48588  -48654       8   48537   48648  -48582  -48651       8
   48534   48639  -48573  -48645       8   48531   48639  -48567  -48642       8
   48525   48633  -48564  -48636       8   48525   48627  -48561  -48630       8
   48522   48621  -48558  -48624       8   48522   48615  -48555  -48618       8
   48516   48609  -48552  -48612       8   48516   48603  -48549  -48606       8
   48513   48597  -48546  -48600       8   48513   48591  -48543  -48594       8
   48510   48588  -48540  -48585       8   48510   48582  -48537  -48579       8
   48507   48573  -48534  -48576       8   48507   48567  -48531  -48570       8
   48468   48471  -48501  -48528       8   48456   48462  -48492  -48519       8
   48501   48438  -48471  -48504       8   48492   48432  -48462  -48495       8
   48423   48450  -48444  -48483       8   48417   48468  -48435  -48465       8
   48414   48456  -48429  -48459       8   48411   48450  -48426  -48453       8
   48444   48408  -48423  -48447       8   48363   48399  -48384  -48405       8
   48360   48399  -48378  -48402       8   48357   48390  -48372  -48396       8
   48351   48384  -48363  -48387       8   48351   48378  -48360  -48381       8
   48348   48372  -48357  -48375       8   48348   48366  -48354  -48369       8
   48312   48336  -48330  -48342       8   48309   48336  -48324  -48339       8
   48303   48330  -48312  -48333       8   48303   48324  -48309  -48327       8
   49047   49167  -49116  -49173       8   49044   49167  -49110  -49170       8
   49041   49158  -49104  -49164       8   49038   49158  -49098  -49161       8
   49035   49149  -49092  -49155       8   49032   49149  -49086  -49152       8
   49029   49143  -49080  -49146       8   49026   49143  -49074  -49140       8
   49023   49131  -49071  -49137       8   49020   49131  -49065  -49134       8
   49017   49122  -49056  -49128       8   49014   49122  -49050  -49125       8
   49008   49116  -49047  -49119       8   49008   49110  -49044  -49113       8
   49005   49104  -49041  -49107       8   49005   49098  -49038  -49101       8
   48999   49092  -49035  -49095       8   48999   49086  -49032  -49089       8
   48996   49080  -49029  -49083       8   48996   49074  -49026  -49077       8
   48993   49071  -49023  -49068       8   48993   49065  -49020  -49062       8
   48990   49056  -49017  -49059       8   48990   49050  -49014  -49053       8
   48951   48954  -48984  -49011       8   48939   48945  -48975  -49002       8
   48984   48921  -48954  -48987       8   48975   48915  -48945  -48978       8
   48906   48933  -48927  -48966       8   48900   48951  -48918  -48948       8
   48897   48939  -48912  -48942       8   48894   48933  -48909  -48936       8
   48927   48891  -48906  -48930       8   48846   48882  -48867  -48888       8
   48843   48882  -48861  -48885       8   48840   48873  -48855  -48879       8
   48834   48867  -48846  -48870       8   48834   48861  -48843  -48864       8
   48831   48855  -48840  -48858       8   48831   48849  -48837  -48852       8
   48795   48819  -48813  -48825       8   48792   48819  -48807  -48822       8
   48786   48813  -48795  -48816       8   48786   48807  -48792  -48810       8
   49530   49650  -49599  -49656       8   49527   49650  -49593  -49653       8
   49524   49641  -49587  -49647       8   49521   49641  -49581  -49644       8
   49518   49632  -49575  -49638       8   49515   49632  -49569  -49635       8
   49512   49626  -49563  -49629       8   49509   49626  -49557  -49623       8
   49506   49614  -49554  -49620       8   49503   49614  -49548  -49617       8
   49500   49605  -49539  -49611       8   49497   49605  -49533  -49608       8
   49491   49599  -49530  -49602       8   49491   49593  -49527  -49596       8
   49488   49587  -49524  -49590       8   49488   49581  -49521  -49584       8
   49482   49575  -49518  -49578       8   49482   49569  -49515  -49572       8
   49479   49563  -49512  -49566       8   49479   49557  -49509  -49560       8
   49476   49554  -49506  -49551       8   49476   49548  -49503  -49545       8
   49473   49539  -49500  -49542       8   49473   49533  -49497  -49536       8
   49434   49437  -49467  -49494       8   49422   49428  -49458  -49485       8
   49467   49404  -49437  -49470       8   49458   49398  -49428  -49461       8
   49389   49416  -49410  -49449       8   49383   49434  -49401  -49431       8
   49380   49422  -49395  -49425       8   49377   49416  -49392  -49419       8
   49410   49374  -49389  -49413       8   49329   49365  -49350  -49371       8
   49326   49365  -49344  -49368       8   49323   49356  -49338  -49362       8
   49317   49350  -49329  -49353       8   49317   49344  -49326  -49347       8
   49314   49338  -49323  -49341       8   49314   49332  -49320  -49335       8
   49278   49302  -49296  -49308       8   49275   49302  -49290  -49305       8
   49269   49296  -49278  -49299       8   49269   49290  -49275  -49293       8
   50013   50133  -50082  -50139       8   50010   50133  -50076  -50136       8
   50007   50124  -50070  -50130       8   50004   50124  -50064  -50127       8
   50001   50115  -50058  -50121       8   49998   50115  -50052  -50118       8
   49995   50109  -50046  -50112       8   49992   50109  -50040  -50106       8
   49989   50097  -50037  -50103       8   49986   50097  -50031  -50100       8
   49983   50088  -50022  -50094       8   49980   50088  -50016  -50091       8
   49974   50082  -50013  -50085       8   49974   50076  -50010  -50079       8
   49971   50070  -50007  -50073       8   49971   50064  -50004  -50067       8
   49965   50058  -50001  -50061       8   49965   50052  -49998  -50055       8
   49962   50046  -49995  -50049       8   49962   50040  -49992  -50043       8
   49959   50037  -49989  -50034       8   49959   50031  -49986  -50028       8
   49956   50022  -49983  -50025       8   49956   50016  -49980  -50019       8
   49917   49920  -49950  -49977       8   49905   49911  -49941  -49968       8
   49950   49887  -49920  -49953       8   49941   49881  -49911  -49944       8
   49872   49899  -49893  -49932       8   49866   49917  -49884  -49914       8
   49863   49905  -49878  -49908       8   49860   49899  -49875  -49902       8
   49893   49857  -49872  -49896       8   49812   49848  -49833  -49854       8
   49809   49848  -49827  -49851       8   49806   49839  -49821  -49845       8
   49800   49833  -49812  -49836       8   49800   49827  -49809  -49830       8
   49797   49821  -49806  -49824       8   49797   49815  -49803  -49818       8
   49761   49785  -49779  -49791       8   49758   49785  -49773  -49788       8
   49752   49779  -49761  -49782       8   49752   49773  -49758  -49776       8
   50496   50616  -50565  -50622       8   50493   50616  -50559  -50619       8
   50490   50607  -50553  -50613       8   50487   50607  -50547  -50610       8
   50484   50598  -50541  -50604       8   50481   50598  -50535  -50601       8
   50478   50592  -50529  -50595       8   50475   50592  -50523  -50589       8
   50472   50580  -50520  -50586       8   50469   50580  -50514  -50583       8
   50466   50571  -50505  -50577       8   50463   50571  -50499  -50574       8
   50457   50565  -50496  -50568       8   50457   50559  -50493  -50562       8
   50454   50553  -50490  -50556       8   50454   50547  -50487  -50550       8
   50448   50541  -50484  -50544       8   50448   50535  -50481  -50538       8
   50445   50529  -50478  -50532       8   50445   50523  -50475  -50526       8
   50442   50520  -50472  -50517       8   50442   50514  -50469  -50511       8
   50439   50505  -50466  -50508       8   50439   50499  -50463  -50502       8
   50400   50403  -50433  -50460       8   50388   50394  -50424  -50451       8
   50433   50370  -50403  -50436       8   50424   50364  -50394  -50427       8
   50355   50382  -50376  -50415       8   50349   50400  -50367  -50397       8
   50346   50388  -50361  -50391       8   50343   50382  -50358  -50385       8
   50376   50340  -50355  -50379       8   50295   50331  -50316  -50337       8
   50292   50331  -50310  -50334       8   50289   50322  -50304  -50328       8
   50283   50316  -50295  -50319       8   50283   50310  -50292  -50313       8
   50280   50304  -50289  -50307       8   50280   50298  -50286  -50301       8
   50244   50268  -50262  -50274       8   50241   50268  -50256  -50271       8
   50235   50262  -50244  -50265       8   50235   50256  -50241  -50259       8
   50979   51099  -51048  -51105       8   50976   51099  -51042  -51102       8
   50973   51090  -51036  -51096       8   50970   51090  -51030  -51093       8
   50967   51081  -51024  -51087       8   50964   51081  -51018  -51084       8
   50961   51075  -51012  -51078       8   50958   51075  -51006  -51072       8
   50955   51063  -51003  -51069       8   50952   51063  -50997  -51066       8
   50949   51054  -50988  -51060       8   50946   51054  -50982  -51057       8
   50940   51048  -50979  -51051       8   50940   51042  -50976  -51045       8
   50937   51036  -50973  -51039       8   50937   51030  -50970  -51033       8
   50931   51024  -50967  -51027       8   50931   51018  -50964  -51021       8
   50928   51012  -50961  -51015       8   50928   51006  -50958  -51009       8
   50925   51003  -50955  -51000       8   50925   50997  -50952  -50994       8
   50922   50988  -50949  -50991       8   50922   50982  -50946  -50985       8
   50883   50886  -50916  -50943       8   50871   50877  -50907  -50934       8
   50916   50853  -50886  -50919       8   50907   50847  -50877  -50910       8
   50838   50865  -50859  -50898       8   50832   50883  -50850  -50880       8
   50829   50871  -50844  -50874       8   50826   50865  -50841  -50868       8
   50859   50823  -50838  -50862       8   50778   50814  -50799  -50820       8
   50775   50814  -50793  -50817       8   50772   50805  -50787  -50811       8
   50766   50799  -50778  -50802       8   50766   50793  -50775  -50796       8
   50763   50787  -50772  -50790       8   50763   50781  -50769  -50784       8
   50727   50751  -50745  -50757       8   50724   50751  -50739  -50754       8
   50718   50745  -50727  -50748       8   50718   50739  -50724  -50742       8
   51462   51582  -51531  -51588       8   51459   51582  -51525  -51585       8
   51456   51573  -51519  -51579       8   51453   51573  -51513  -51576       8
   51450   51564  -51507  -51570       8   51447   51564  -51501  -51567       8
   51444   51558  -51495  -51561       8   51441   51558  -51489  -51555       8
   51438   51546  -51486  -51552       8   51435   51546  -51480  -51549       8
   51432   51537  -51471  -51543       8   51429   51537  -51465  -51540       8
   51423   51531  -51462  -51534       8   51423   51525  -51459  -51528       8
   51420   51519  -51456  -51522       8   51420   51513  -51453  -51516       8
   51414   51507  -51450  -51510       8   51414   51501  -51447  -51504       8
   51411   51495  -51444  -51498       8   51411   51489  -51441  -51492       8
   51408   51486  -51438  -51483       8   51408   51480  -51435  -51477       8
   51405   51471  -51432  -51474       8   51405   51465  -51429  -51468       8
   51366   51369  -51399  -51426       8   51354   51360  -51390  -51417       8
   51399   51336  -51369  -51402       8   51390   51330  -51360  -51393       8
   51321   51348  -51342  -51381       8   51315   51366  -51333  -51363       8
   51312   51354  -51327  -51357       8   51309   51348  -51324  -51351       8
   51342   51306  -51321  -51345       8   51261   51297  -51282  -51303       8
   51258   51297  -51276  -51300       8   51255   51288  -51270  -51294       8
   51249   51282  -51261  -51285       8   51249   51276  -51258  -51279       8
   51246   51270  -51255  -51273       8   51246   51264  -51252  -51267       8
   51210   51234  -51228  -51240       8   51207   51234  -51222  -51237       8
   51201   51228  -51210  -51231       8   51201   51222  -51207  -51225       8
   51945   52065  -52014  -52071       8   51942   52065  -52008  -52068       8
   51939   52056  -52002  -52062       8   51936   52056  -51996  -52059       8
   51933   52047  -51990  -52053       8   51930   52047  -51984  -52050       8
   51927   52041  -51978  -52044       8   51924   52041  -51972  -52038       8
   51921   52029  -51969  -52035       8   51918   52029  -51963  -52032       8
   51915   52020  -51954  -52026       8   51912   52020  -51948  -52023       8
   51906   52014  -51945  -52017       8   51906   52008  -51942  -52011       8
   51903   52002  -51939  -52005       8   51903   51996  -51936  -51999       8
   51897   51990  -51933  -51993       8   51897   51984  -51930  -51987       8
   51894   51978  -51927  -51981       8   51894   51972  -51924  -51975       8
   51891   51969  -51921  -51966       8   51891   51963  -51918  -51960       8
   51888   51954  -51915  -51957       8   51888   51948  -51912  -51951       8
   51849   51852  -51882  -51909       8   51837   51843  -51873  -51900       8
   51882   51819  -51852  -51885       8   51873   51813  -51843  -51876       8
   51804   51831  -51825  -51864       8   51798   51849  -51816  -51846       8
   51795   51837  -51810  -51840       8   51792   51831  -51807  -51834       8
   51825   51789  -51804  -51828       8   51744   51780  -51765  -51786       8
   51741   51780  -51759  -51783       8   51738   51771  -51753  -51777       8
   51732   51765  -51744  -51768       8   51732   51759  -51741  -51762       8
   51729   51753  -51738  -51756       8   51729   51747  -51735  -51750       8
   51693   51717  -51711  -51723       8   51690   51717  -51705  -51720       8
   51684   51711  -51693  -51714       8   51684   51705  -51690  -51708       8
   52428   52548  -52497  -52554       8   52425   52548  -52491  -52551       8
   52422   52539  -52485  -52545       8   52419   52539  -52479  -52542       8
   52416   52530  -52473  -52536       8   52413   52530  -52467  -52533       8
   52410   52524  -52461  -52527       8   52407   52524  -52455  -52521       8
   52404   52512  -52452  -52518       8   52401   52512  -52446  -52515       8
   52398   52503  -52437  -52509       8   52395   52503  -52431  -52506       8
   52389   52497  -52428  -52500       8   52389   52491  -52425  -52494       8
   52386   52485  -52422  -52488       8   52386   52479  -52419  -52482       8
   52380   52473  -52416  -52476       8   52380   52467  -52413  -52470       8
   52377   52461  -52410  -52464       8   52377   52455  -52407  -52458       8
   52374   52452  -52404  -52449       8   52374   52446  -52401  -52443       8
   52371   52437  -52398  -52440       8   52371   52431  -52395  -52434       8
   52332   52335  -52365  -52392       8   52320   52326  -52356  -52383       8
   52365   52302  -52335  -52368       8   52356   52296  -52326  -52359       8
   52287   52314  -52308  -52347       8   52281   52332  -52299  -52329       8
   52278   52320  -52293  -52323       8   52275   52314  -52290  -52317       8
   52308   52272  -52287  -52311       8   52227   52263  -52248  -52269       8
   52224   52263  -52242  -52266       8   52221   52254  -52236  -52260       8
   52215   52248  -52227  -52251       8   52215   52242  -52224  -52245       8
   52212   52236  -52221  -52239       8   52212   52230  -52218  -52233       8
   52176   52200  -52194  -52206       8   52173   52200  -52188  -52203       8
   52167   52194  -52176  -52197       8   52167   52188  -52173  -52191       8
   52911   53031  -52980  -53037       8   52908   53031  -52974  -53034       8
   52905   53022  -52968  -53028       8   52902   53022  -52962  -53025       8
   52899   53013  -52956  -53019       8   52896   53013  -52950  -53016       8
   52893   53007  -52944  -53010       8   52890   53007  -52938  -53004       8
   52887   52995  -52935  -53001       8   52884   52995  -52929  -52998       8
   52881   52986  -52920  -52992       8   52878   52986  -52914  -52989       8
   52872   52980  -52911  -52983       8   52872   52974  -52908  -52977       8
   52869   52968  -52905  -52971       8   52869   52962  -52902  -52965       8
   52863   52956  -52899  -52959       8   52863   52950  -52896  -52953       8
   52860   52944  -52893  -52947       8   52860   52938  -52890  -52941       8
   52857   52935  -52887  -52932       8   52857   52929  -52884  -52926       8
   52854   52920  -52881  -52923       8   52854   52914  -52878  -52917       8
   52815   52818  -52848  -52875       8   52803   52809  -52839  -52866       8
   52848   52785  -52818  -52851       8   52839   52779  -52809  -52842       8
   52770   52797  -52791  -52830       8   52764   52815  -52782  -52812       8
   52761   52803  -52776  -52806       8   52758   52797  -52773  -52800       8
   52791   52755  -52770  -52794       8   52710   52746  -52731  -52752       8
   52707   52746  -52725  -52749       8   52704   52737  -52719  -52743       8
   52698   52731  -52710  -52734       8   52698   52725  -52707  -52728       8
   52695   52719  -52704  -52722       8   52695   52713  -52701  -52716       8
   52659   52683  -52677  -52689       8   52656   52683  -52671  -52686       8
   52650   52677  -52659  -52680       8   52650   52671  -52656  -52674       8
   53394   53514  -53463  -53520       8   53391   53514  -53457  -53517       8
   53388   53505  -53451  -53511       8   53385   53505  -53445  -53508       8
   53382   53496  -53439  -53502       8   53379   53496  -53433  -53499       8
   53376   53490  -53427  -53493       8   53373   53490  -53421  -53487       8
   53370   53478  -53418  -53484       8   53367   53478  -53412  -53481       8
   53364   53469  -53403  -53475       8   53361   53469  -53397  -53472       8
   53355   53463  -53394  -53466       8   53355   53457  -53391  -53460       8
   53352   53451  -53388  -53454       8   53352   53445  -53385  -53448       8
   53346   53439  -53382  -53442       8   53346   53433  -53379  -53436       8
   53343   53427  -53376  -53430       8   53343   53421  -53373  -53424       8
   53340   53418  -53370  -53415       8   53340   53412  -53367  -53409       8
   53337   53403  -53364  -53406       8   53337   53397  -53361  -53400       8
   53298   53301  -53331  -53358       8   53286   53292  -53322  -53349       8
   53331   53268  -53301  -53334       8   53322   53262  -53292  -53325       8
   53253   53280  -53274  -53313       8   53247   53298  -53265  -53295       8
   53244   53286  -53259  -53289       8   53241   53280  -53256  -53283       8
   53274   53238  -53253  -53277       8   53193   53229  -53214  -53235       8
   53190   53229  -53208  -53232       8   53187   53220  -53202  -53226       8
   53181   53214  -53193  -53217       8   53181   53208  -53190  -53211       8
   53178   53202  -53187  -53205       8   53178   53196  -53184  -53199       8
   53142   53166  -53160  -53172       8   53139   53166  -53154  -53169       8
   53133   53160  -53142  -53163       8   53133   53154  -53139  -53157       8
   53877   53997  -53946  -54003       8   53874   53997  -53940  -54000       8
   53871   53988  -53934  -53994       8   53868   53988  -53928  -53991       8
   53865   53979  -53922  -53985       8   53862   53979  -53916  -53982       8
   53859   53973  -53910  -53976       8   53856   53973  -53904  -53970       8
   53853   53961  -53901  -53967       8   53850   53961  -53895  -53964       8
   53847   53952  -53886  -53958       8   53844   53952  -53880  -53955       8
   53838   53946  -53877  -53949       8   53838   53940  -53874  -53943       8
   53835   53934  -53871  -53937       8   53835   53928  -53868  -53931       8
   53829   53922  -53865  -53925       8   53829   53916  -53862  -53919       8
   53826   53910  -53859  -53913       8   53826   53904  -53856  -53907       8
   53823   53901  -53853  -53898       8   53823   53895  -53850  -53892       8
   53820   53886  -53847  -53889       8   53820   53880  -53844  -53883       8
   53781   53784  -53814  -53841       8   53769   53775  -53805  -53832       8
   53814   53751  -53784  -53817       8   53805   53745  -53775  -53808       8
   53736   53763  -53757  -53796       8   53730   53781  -53748  -53778       8
   53727   53769  -53742  -53772       8   53724   53763  -53739  -53766       8
   53757   53721  -53736  -53760       8   53676   53712  -53697  -53718       8
   53673   53712  -53691  -53715       8   53670   53703  -53685  -53709       8
   53664   53697  -53676  -53700       8   53664   53691  -53673  -53694       8
   53661   53685  -53670  -53688       8   53661   53679  -53667  -53682       8
   53625   53649  -53643  -53655       8   53622   53649  -53637  -53652       8
   53616   53643  -53625  -53646       8   53616   53637  -53622  -53640       8
   54360   54480  -54429  -54486       8   54357   54480  -54423  -54483       8
   54354   54471  -54417  -54477       8   54351   54471  -54411  -54474       8
   54348   54462  -54405  -54468       8   54345   54462  -54399  -54465       8
   54342   54456  -54393  -54459       8   54339   54456  -54387  -54453       8
   54336   54444  -54384  -54450       8   54333   54444  -54378  -54447       8
   54330   54435  -54369  -54441       8   54327   54435  -54363  -54438       8
   54321   54429  -54360  -54432       8   54321   54423  -54357  -54426       8
   54318   54417  -54354  -54420       8   54318   54411  -54351  -54414       8
   54312   54405  -54348  -54408       8   54312   54399  -54345  -54402       8
   54309   54393  -54342  -54396       8   54309   54387  -54339  -54390       8
   54306   54384  -54336  -54381       8   54306   54378  -54333  -54375       8
   54303   54369  -54330  -54372       8   54303   54363  -54327  -54366       8
   54264   54267  -54297  -54324       8   54252   54258  -54288  -54315       8
   54297   54234  -54267  -54300       8   54288   54228  -54258  -54291       8
   54219   54246  -54240  -54279       8   54213   54264  -54231  -54261       8
   54210   54252  -54225  -54255       8   54207   54246  -54222  -54249       8
   54240   54204  -54219  -54243       8   54159   54195  -54180  -54201       8
   54156   54195  -54174  -54198       8   54153   54186  -54168  -54192       8
   54147   54180  -54159  -54183       8   54147   54174  -54156  -54177       8
   54144   54168  -54153  -54171       8   54144   54162  -54150  -54165       8
   54108   54132  -54126  -54138       8   54105   54132  -54120  -54135       8
   54099   54126  -54108  -54129       8   54099   54120  -54105  -54123       8
   54843   54963  -54912  -54969       8   54840   54963  -54906  -54966       8
   54837   54954  -54900  -54960       8   54834   54954  -54894  -54957       8
   54831   54945  -54888  -54951       8   54828   54945  -54882  -54948       8
   54825   54939  -54876  -54942       8   54822   54939  -54870  -54936       8
   54819   54927  -54867  -54933       8   54816   54927  -54861  -54930       8
   54813   54918  -54852  -54924       8   54810   54918  -54846  -54921       8
   54804   54912  -54843  -54915       8   54804   54906  -54840  -54909       8
   54801   54900  -54837  -54903       8   54801   54894  -54834  -54897       8
   54795   54888  -54831  -54891       8   54795   54882  -54828  -54885       8
   54792   54876  -54825  -54879       8   54792   54870  -54822  -54873       8
   54789   54867  -54819  -54864       8   54789   54861  -54816  -54858       8
   54786   54852  -54813  -54855       8   54786   54846  -54810  -54849       8
   54747   54750  -54780  -54807       8   54735   54741  -54771  -54798       8
   54780   54717  -54750  -54783       8   54771   54711  -54741  -54774       8
   54702   54729  -54723  -54762       8   54696   54747  -54714  -54744       8
   54693   54735  -54708  -54738       8   54690   54729  -54705  -54732       8
   54723   54687  -54702  -54726       8   54642   54678  -54663  -54684       8
   54639   54678  -54657  -54681       8   54636   54669  -54651  -54675       8
   54630   54663  -54642  -54666       8   54630   54657  -54639  -54660       8
   54627   54651  -54636  -54654       8   54627   54645  -54633  -54648       8
   54591   54615  -54609  -54621       8   54588   54615  -54603  -54618       8
   54582   54609  -54591  -54612       8   54582   54603  -54588  -54606       8
   55326   55446  -55395  -55452       8   55323   55446  -55389  -55449       8
   55320   55437  -55383  -55443       8   55317   55437  -55377  -55440       8
   55314   55428  -55371  -55434       8   55311   55428  -55365  -55431       8
   55308   55422  -55359  -55425       8   55305   55422  -55353  -55419       8
   55302   55410  -55350  -55416       8   55299   55410  -55344  -55413       8
   55296   55401  -55335  -55407       8   55293   55401  -55329  -55404       8
   55287   55395  -55326  -55398       8   55287   55389  -55323  -55392       8
   55284   55383  -55320  -55386       8   55284   55377  -55317  -55380       8
   55278   55371  -55314  -55374       8   55278   55365  -55311  -55368       8
   55275   55359  -55308  -55362       8   55275   55353  -55305  -55356       8
   55272   55350  -55302  -55347       8   55272   55344  -55299  -55341       8
   55269   55335  -55296  -55338       8   55269   55329  -55293  -55332       8
   55230   55233  -55263  -55290       8   55218   55224  -55254  -55281       8
   55263   55200  -55233  -55266       8   55254   55194  -55224  -55257       8
   55185   55212  -55206  -55245       8   55179   55230  -55197  -55227       8
   55176   55218  -55191  -55221       8   55173   55212  -55188  -55215       8
   55206   55170  -55185  -55209       8   55125   55161  -55146  -55167       8
   55122   55161  -55140  -55164       8   55119   55152  -55134  -55158       8
   55113   55146  -55125  -55149       8   55113   55140  -55122  -55143       8
   55110   55134  -55119  -55137       8   55110   55128  -55116  -55131       8
   55074   55098  -55092  -55104       8   55071   55098  -55086  -55101       8
   55065   55092  -55074  -55095       8   55065   55086  -55071  -55089       8
   55809   55929  -55878  -55935       8   55806   55929  -55872  -55932       8
   55803   55920  -55866  -55926       8   55800   55920  -55860  -55923       8
   55797   55911  -55854  -55917       8   55794   55911  -55848  -55914       8
   55791   55905  -55842  -55908       8   55788   55905  -55836  -55902       8
   55785   55893  -55833  -55899       8   55782   55893  -55827  -55896       8
   55779   55884  -55818  -55890       8   55776   55884  -55812  -55887       8
   55770   55878  -55809  -55881       8   55770   55872  -55806  -55875       8
   55767   55866  -55803  -55869       8   55767   55860  -55800  -55863       8
   55761   55854  -55797  -55857       8   55761   55848  -55794  -55851       8
   55758   55842  -55791  -55845       8   55758   55836  -55788  -55839       8
   55755   55833  -55785  -55830       8   55755   55827  -55782  -55824       8
   55752   55818  -55779  -55821       8   55752   55812  -55776  -55815       8
   55713   55716  -55746  -55773       8   55701   55707  -55737  -55764       8
   55746   55683  -55716  -55749       8   55737   55677  -55707  -55740       8
   55668   55695  -55689  -55728       8   55662   55713  -55680  -55710       8
   55659   55701  -55674  -55704       8   55656   55695  -55671  -55698       8
   55689   55653  -55668  -55692       8   55608   55644  -55629  -55650       8
   55605   55644  -55623  -55647       8   55602   55635  -55617  -55641       8
   55596   55629  -55608  -55632       8   55596   55623  -55605  -55626       8
   55593   55617  -55602  -55620       8   55593   55611  -55599  -55614       8
   55557   55581  -55575  -55587       8   55554   55581  -55569  -55584       8
   55548   55575  -55557  -55578       8   55548   55569  -55554  -55572       8
   56292   56412  -56361  -56418       8   56289   56412  -56355  -56415       8
   56286   56403  -56349  -56409       8   56283   56403  -56343  -56406       8
   56280   56394  -56337  -56400       8   56277   56394  -56331  -56397       8
   56274   56388  -56325  -56391       8   56271   56388  -56319  -56385       8
   56268   56376  -56316  -56382       8   56265   56376  -56310  -56379       8
   56262   56367  -56301  -56373       8   56259   56367  -56295  -56370       8
   56253   56361  -56292  -56364       8   56253   56355  -56289  -56358       8
   56250   56349  -56286  -56352       8   56250   56343  -56283  -56346       8
   56244   56337  -56280  -56340       8   56244   56331  -56277  -56334       8
   56241   56325  -56274  -56328       8   56241   56319  -56271  -56322       8
   56238   56316  -56268  -56313       8   56238   56310  -56265  -56307       8
   56235   56301  -56262  -56304       8   56235   56295  -56259  -56298       8
   56196   56199  -56229  -56256       8   56184   56190  -56220  -56247       8
   56229   56166  -56199  -56232       8   56220   56160  -56190  -56223       8
   56151   56178  -56172  -56211       8   56145   56196  -56163  -56193       8
   56142   56184  -56157  -56187       8   56139   56178  -56154  -56181       8
   56172   56136  -56151  -56175       8   56091   56127  -56112  -56133       8
   56088   56127  -56106  -56130       8   56085   56118  -56100  -56124       8
   56079   56112  -56091  -56115       8   56079   56106  -56088  -56109       8
   56076   56100  -56085  -56103       8   56076   56094  -56082  -56097       8
   56040   56064  -56058  -56070       8   56037   56064  -56052  -56067       8
   56031   56058  -56040  -56061       8   56031   56052  -56037  -56055       8
   56775   56895  -56844  -56901       8   56772   56895  -56838  -56898       8
   56769   56886  -56832  -56892       8   56766   56886  -56826  -56889       8
   56763   56877  -56820  -56883       8   56760   56877  -56814  -56880       8
   56757   56871  -56808  -56874       8   56754   56871  -56802  -56868       8
   56751   56859  -56799  -56865       8   56748   56859  -56793  -56862       8
   56745   56850  -56784  -56856       8   56742   56850  -56778  -56853       8
   56736   56844  -56775  -56847       8   56736   56838  -56772  -56841       8
   56733   56832  -56769  -56835       8   56733   56826  -56766  -56829       8
   56727   56820  -56763  -56823       8   56727   56814  -56760  -56817       8
   56724   56808  -56757  -56811       8   56724   56802  -56754  -56805       8
   56721   56799  -56751  -56796       8   56721   56793  -56748  -56790       8
   56718   56784  -56745  -56787       8   56718   56778  -56742  -56781       8
   56679   56682  -56712  -56739       8   56667   56673  -56703  -56730       8
   56712   56649  -56682  -56715       8   56703   56643  -56673  -56706       8
   56634   56661  -56655  -56694       8   56628   56679  -56646  -56676       8
   56625   56667  -56640  -56670       8   56622   56661  -56637  -56664       8
   56655   56619  -56634  -56658       8   56574   56610  -56595  -56616       8
   56571   56610  -56589  -56613       8   56568   56601  -56583  -56607       8
   56562   56595  -56574  -56598       8   56562   56589  -56571  -56592       8
   56559   56583  -56568  -56586       8   56559   56577  -56565  -56580       8
   56523   56547  -56541  -56553       8   56520   56547  -56535  -56550       8
   56514   56541  -56523  -56544       8   56514   56535  -56520  -56538       8
   57258   57378  -57327  -57384       8   57255   57378  -57321  -57381       8
   57252   57369  -57315  -57375       8   57249   57369  -57309  -57372       8
   57246   57360  -57303  -57366       8   57243   57360  -57297  -57363       8
   57240   57354  -57291  -57357       8   57237   57354  -57285  -57351       8
   57234   57342  -57282  -57348       8   57231   57342  -57276  -57345       8
   57228   57333  -57267  -57339       8   57225   57333  -57261  -57336       8
   57219   57327  -57258  -57330       8   57219   57321  -57255  -57324       8
   57216   57315  -57252  -57318       8   57216   57309  -57249  -57312       8
   57210   57303  -57246  -57306       8   57210   57297  -57243  -57300       8
   57207   57291  -57240  -57294       8   57207   57285  -57237  -57288       8
   57204   57282  -57234  -57279       8   57204   57276  -57231  -57273       8
   57201   57267  -57228  -57270       8   57201   57261  -57225  -57264       8
   57162   57165  -57195  -57222       8   57150   57156  -57186  -57213       8
   57195   57132  -57165  -57198       8   57186   57126  -57156  -57189       8
   57117   57144  -57138  -57177       8   57111   57162  -57129  -57159       8
   57108   57150  -57123  -57153       8   57105   57144  -57120  -57147       8
   57138   57102  -57117  -57141       8   57057   57093  -57078  -57099       8
   57054   57093  -57072  -57096       8   57051   57084  -57066  -57090       8
   57045   57078  -57057  -57081       8   57045   57072  -57054  -57075       8
   57042   57066  -57051  -57069       8   57042   57060  -57048  -57063       8
   57006   57030  -57024  -57036       8   57003   57030  -57018  -57033       8
   56997   57024  -57006  -57027       8   56997   57018  -57003  -57021       8
   57741   57861  -57810  -57867       8   57738   57861  -57804  -57864       8
   57735   57852  -57798  -57858       8   57732   57852  -57792  -57855       8
   57729   57843  -57786  -57849       8   57726   57843  -57780  -57846       8
   57723   57837  -57774  -57840       8   57720   57837  -57768  -57834       8
   57717   57825  -57765  -57831       8   57714   57825  -57759  -57828       8
   57711   57816  -57750  -57822       8   57708   57816  -57744  -57819       8
   57702   57810  -57741  -57813       8   57702   57804  -57738  -57807       8
   57699   57798  -57735  -57801       8   57699   57792  -57732  -57795       8
   57693   57786  -57729  -57789       8   57693   57780  -57726  -57783       8
   57690   57774  -57723  -57777       8   57690   57768  -57720  -57771       8
   57687   57765  -57717  -57762       8   57687   57759  -57714  -57756       8
   57684   57750  -57711  -57753       8   57684   57744  -57708  -57747       8
   57645   57648  -57678  -57705       8   57633   57639  -57669  -57696       8
   57678   57615  -57648  -57681       8   57669   57609  -57639  -57672       8
   57600   57627  -57621  -57660       8   57594   57645  -57612  -57642       8
   57591   57633  -57606  -57636       8   57588   57627  -57603  -57630       8
   57621   57585  -57600  -57624       8   57540   57576  -57561  -57582       8
   57537   57576  -57555  -57579       8   57534   57567  -57549  -57573       8
   57528   57561  -57540  -57564       8   57528   57555  -57537  -57558       8
   57525   57549  -57534  -57552       8   57525   57543  -57531  -57546       8
   57489   57513  -57507  -57519       8   57486   57513  -57501  -57516       8
   57480   57507  -57489  -57510       8   57480   57501  -57486  -57504       8
   58224   58344  -58293  -58350       8   58221   58344  -58287  -58347       8
   58218   58335  -58281  -58341       8   58215   58335  -58275  -58338       8
   58212   58326  -58269  -58332       8   58209   58326  -58263  -58329       8
   58206   58320  -58257  -58323       8   58203   58320  -58251  -58317       8
   58200   58308  -58248  -58314       8   58197   58308  -58242  -58311       8
   58194   58299  -58233  -58305       8   58191   58299  -58227  -58302       8
   58185   58293  -58224  -58296       8   58185   58287  -58221  -58290       8
   58182   58281  -58218  -58284       8   58182   58275  -58215  -58278       8
   58176   58269  -58212  -58272       8   58176   58263  -58209  -58266       8
   58173   58257  -58206  -58260       8   58173   58251  -58203  -58254       8
   58170   58248  -58200  -58245       8   58170   58242  -58197  -58239       8
   58167   58233  -58194  -58236       8   58167   58227  -58191  -58230       8
   58128   58131  -58161  -58188       8   58116   58122  -58152  -58179       8
   58161   58098  -58131  -58164       8   58152   58092  -58122  -58155       8
   58083   58110  -58104  -58143       8   58077   58128  -58095  -58125       8
   58074   58116  -58089  -58119       8   58071   58110  -58086  -58113       8
   58104   58068  -58083  -58107       8   58023   58059  -58044  -58065       8
   58020   58059  -58038  -58062       8   58017   58050  -58032  -58056       8
   58011   58044  -58023  -58047       8   58011   58038  -58020  -58041       8
   58008   58032  -58017  -58035       8   58008   58026  -58014  -58029       8
   57972   57996  -57990  -58002       8   57969   57996  -57984  -57999       8
   57963   57990  -57972  -57993       8   57963   57984  -57969  -57987       8
   58707   58827  -58776  -58833       8   58704   58827  -58770  -58830       8
   58701   58818  -58764  -58824       8   58698   58818  -58758  -58821       8
   58695   58809  -58752  -58815       8   58692   58809  -58746  -58812       8
   58689   58803  -58740  -58806       8   58686   58803  -58734  -58800       8
   58683   58791  -58731  -58797       8   58680   58791  -58725  -58794       8
   58677   58782  -58716  -58788       8   58674   58782  -58710  -58785       8
   58668   58776  -58707  -58779       8   58668   58770  -58704  -58773       8
   58665   58764  -58701  -58767       8   58665   58758  -58698  -58761       8
   58659   58752  -58695  -58755       8   58659   58746  -58692  -58749       8
   58656   58740  -58689  -58743       8   58656   58734  -58686  -58737       8
   58653   58731  -58683  -58728       8   58653   58725  -58680  -58722       8
   58650   58716  -58677  -58719       8   58650   58710  -58674  -58713       8
   58611   58614  -58644  -58671       8   58599   58605  -58635  -58662       8
   58644   58581  -58614  -58647       8   58635   58575  -58605  -58638       8
   58566   58593  -58587  -58626       8   58560   58611  -58578  -58608       8
   58557   58599  -58572  -58602       8   58554   58593  -58569  -58596       8
   58587   58551  -58566  -58590       8   58506   58542  -58527  -58548       8
   58503   58542  -58521  -58545       8   58500   58533  -58515  -58539       8
   58494   58527  -58506  -58530       8   58494   58521  -58503  -58524       8
   58491   58515  -58500  -58518       8   58491   58509  -58497  -58512       8
   58455   58479  -58473  -58485       8   58452   58479  -58467  -58482       8
   58446   58473  -58455  -58476       8   58446   58467  -58452  -58470       8
   59190   59310  -59259  -59316       8   59187   59310  -59253  -59313       8
   59184   59301  -59247  -59307       8   59181   59301  -59241  -59304       8
   59178   59292  -59235  -59298       8   59175   59292  -59229  -59295       8
   59172   59286  -59223  -59289       8   59169   59286  -59217  -59283       8
   59166   59274  -59214  -59280       8   59163   59274  -59208  -59277       8
   59160   59265  -59199  -59271       8   59157   59265  -59193  -59268       8
   59151   59259  -59190  -59262       8   59151   59253  -59187  -59256       8
   59148   59247  -59184  -59250       8   59148   59241  -59181  -59244       8
   59142   59235  -59178  -59238       8   59142   59229  -59175  -59232       8
   59139   59223  -59172  -59226       8   59139   59217  -59169  -59220       8
   59136   59214  -59166  -59211       8   59136   59208  -59163  -59205       8
   59133   59199  -59160  -59202       8   59133   59193  -59157  -59196       8
   59094   59097  -59127  -59154       8   59082   59088  -59118  -59145       8
   59127   59064  -59097  -59130       8   59118   59058  -59088  -59121       8
   59049   59076  -59070  -59109       8   59043   59094  -59061  -59091       8
   59040   59082  -59055  -59085       8   59037   59076  -59052  -59079       8
   59070   59034  -59049  -59073       8   58989   59025  -59010  -59031       8
   58986   59025  -59004  -59028       8   58983   59016  -58998  -59022       8
   58977   59010  -58989  -59013       8   58977   59004  -58986  -59007       8
   58974   58998  -58983  -59001       8   58974   58992  -58980  -58995       8
   58938   58962  -58956  -58968       8   58935   58962  -58950  -58965       8
   58929   58956  -58938  -58959       8   58929   58950  -58935  -58953       8
   59673   59793  -59742  -59799       8   59670   59793  -59736  -59796       8
   59667   59784  -59730  -59790       8   59664   59784  -59724  -59787       8
   59661   59775  -59718  -59781       8   59658   59775  -59712  -59778       8
   59655   59769  -59706  -59772       8   59652   59769  -59700  -59766       8
   59649   59757  -59697  -59763       8   59646   59757  -59691  -59760       8
   59643   59748  -59682  -59754       8   59640   59748  -59676  -59751       8
   59634   59742  -59673  -59745       8   59634   59736  -59670  -59739       8
   59631   59730  -59667  -59733       8   59631   59724  -59664  -59727       8
   59625   59718  -59661  -59721       8   59625   59712  -59658  -59715       8
   59622   59706  -59655  -59709       8   59622   59700  -59652  -59703       8
   59619   59697  -59649  -59694       8   59619   59691  -59646  -59688       8
   59616   59682  -59643  -59685       8   59616   59676  -59640  -59679       8
   59577   59580  -59610  -59637       8   59565   59571  -59601  -59628       8
   59610   59547  -59580  -59613       8   59601   59541  -59571  -59604       8
   59532   59559  -59553  -59592       8   59526   59577  -59544  -59574       8
   59523   59565  -59538  -59568       8   59520   59559  -59535  -59562       8
   59553   59517  -59532  -59556       8   59472   59508  -59493  -59514       8
   59469   59508  -59487  -59511       8   59466   59499  -59481  -59505       8
   59460   59493  -59472  -59496       8   59460   59487  -59469  -59490       8
   59457   59481  -59466  -59484       8   59457   59475  -59463  -59478       8
   59421   59445  -59439  -59451       8   59418   59445  -59433  -59448       8
   59412   59439  -59421  -59442       8   59412   59433  -59418  -59436       8
   60156   60276  -60225  -60282       8   60153   60276  -60219  -60279       8
   60150   60267  -60213  -60273       8   60147   60267  -60207  -60270       8
   60144   60258  -60201  -60264       8   60141   60258  -60195  -60261       8
   60138   60252  -60189  -60255       8   60135   60252  -60183  -60249       8
   60132   60240  -60180  -60246       8   60129   60240  -60174  -60243       8
   60126   60231  -60165  -60237       8   60123   60231  -60159  -60234       8
   60117   60225  -60156  -60228       8   60117   60219  -60153  -60222       8
   60114   60213  -60150  -60216       8   60114   60207  -60147  -60210       8
   60108   60201  -60144  -60204       8   60108   60195  -60141  -60198       8
   60105   60189  -60138  -60192       8   60105   60183  -60135  -60186       8
   60102   60180  -60132  -60177       8   60102   60174  -60129  -60171       8
   60099   60165  -60126  -60168       8   60099   60159  -60123  -60162       8
   60060   60063  -60093  -60120       8   60048   60054  -60084  -60111       8
   60093   60030  -60063  -60096       8   60084   60024  -60054  -60087       8
   60015   60042  -60036  -60075       8   60009   60060  -60027  -60057       8
   60006   60048  -60021  -60051       8   60003   60042  -60018  -60045       8
   60036   60000  -60015  -60039       8   59955   59991  -59976  -59997       8
   59952   59991  -59970  -59994       8   59949   59982  -59964  -59988       8
   59943   59976  -59955  -59979       8   59943   59970  -59952  -59973       8
   59940   59964  -59949  -59967       8   59940   59958  -59946  -59961       8
   59904   59928  -59922  -59934       8   59901   59928  -59916  -59931       8
   59895   59922  -59904  -59925       8   59895   59916  -59901  -59919       8
   60639   60759  -60708  -60765       8   60636   60759  -60702  -60762       8
   60633   60750  -60696  -60756       8   60630   60750  -60690  -60753       8
   60627   60741  -60684  -60747       8   60624   60741  -60678  -60744       8
   60621   60735  -60672  -60738       8   60618   60735  -60666  -60732       8
   60615   60723  -60663  -60729       8   60612   60723  -60657  -60726       8
   60609   60714  -60648  -60720       8   60606   60714  -60642  -60717       8
   60600   60708  -60639  -60711       8   60600   60702  -60636  -60705       8
   60597   60696  -60633  -60699       8   60597   60690  -60630  -60693       8
   60591   60684  -60627  -60687       8   60591   60678  -60624  -60681       8
   60588   60672  -60621  -60675       8   60588   60666  -60618  -60669       8
   60585   60663  -60615  -60660       8   60585   60657  -60612  -60654       8
   60582   60648  -60609  -60651       8   60582   60642  -60606  -60645       8
   60543   60546  -60576  -60603       8   60531   60537  -60567  -60594       8
   60576   60513  -60546  -60579       8   60567   60507  -60537  -60570       8
   60498   60525  -60519  -60558       8   60492   60543  -60510  -60540       8
   60489   60531  -60504  -60534       8   60486   60525  -60501  -60528       8
   60519   60483  -60498  -60522       8   60438   60474  -60459  -60480       8
   60435   60474  -60453  -60477       8   60432   60465  -60447  -60471       8
   60426   60459  -60438  -60462       8   60426   60453  -60435  -60456       8
   60423   60447  -60432  -60450       8   60423   60441  -60429  -60444       8
   60387   60411  -60405  -60417       8   60384   60411  -60399  -60414       8
   60378   60405  -60387  -60408       8   60378   60399  -60384  -60402       8
   61122   61242  -61191  -61248       8   61119   61242  -61185  -61245       8
   61116   61233  -61179  -61239       8   61113   61233  -61173  -61236       8
   61110   61224  -61167  -61230       8   61107   61224  -61161  -61227       8
   61104   61218  -61155  -61221       8   61101   61218  -61149  -61215       8
   61098   61206  -61146  -61212       8   61095   61206  -61140  -61209       8
   61092   61197  -61131  -61203       8   61089   61197  -61125  -61200       8
   61083   61191  -61122  -61194       8   61083   61185  -61119  -61188       8
   61080   61179  -61116  -61182       8   61080   61173  -61113  -61176       8
   61074   61167  -61110  -61170       8   61074   61161  -61107  -61164       8
   61071   61155  -61104  -61158       8   61071   61149  -61101  -61152       8
   61068   61146  -61098  -61143       8   61068   61140  -61095  -61137       8
   61065   61131  -61092  -61134       8   61065   61125  -61089  -61128       8
   61026   61029  -61059  -61086       8   61014   61020  -61050  -61077       8
   61059   60996  -61029  -61062       8   61050   60990  -61020  -61053       8
   60981   61008  -61002  -61041       8   60975   61026  -60993  -61023       8
   60972   61014  -60987  -61017       8   60969   61008  -60984  -61011       8
   61002   60966  -60981  -61005       8   60921   60957  -60942  -60963       8
   60918   60957  -60936  -60960       8   60915   60948  -60930  -60954       8
   60909   60942  -60921  -60945       8   60909   60936  -60918  -60939       8
   60906   60930  -60915  -60933       8   60906   60924  -60912  -60927       8
   60870   60894  -60888  -60900       8   60867   60894  -60882  -60897       8
   60861   60888  -60870  -60891       8   60861   60882  -60867  -60885       8
   61605   61725  -61674  -61731       8   61602   61725  -61668  -61728       8
   61599   61716  -61662  -61722       8   61596   61716  -61656  -61719       8
   61593   61707  -61650  -61713       8   61590   61707  -61644  -61710       8
   61587   61701  -61638  -61704       8   61584   61701  -61632  -61698       8
   61581   61689  -61629  -61695       8   61578   61689  -61623  -61692       8
   61575   61680  -61614  -61686       8   61572   61680  -61608  -61683       8
   61566   61674  -61605  -61677       8   61566   61668  -61602  -61671       8
   61563   61662  -61599  -61665       8   61563   61656  -61596  -61659       8
   61557   61650  -61593  -61653       8   61557   61644  -61590  -61647       8
   61554   61638  -61587  -61641       8   61554   61632  -61584  -61635       8
   61551   61629  -61581  -61626       8   61551   61623  -61578  -61620       8
   61548   61614  -61575  -61617       8   61548   61608  -61572  -61611       8
   61509   61512  -61542  -61569       8   61497   61503  -61533  -61560       8
   61542   61479  -61512  -61545       8   61533   61473  -61503  -61536       8
   61464   61491  -61485  -61524       8   61458   61509  -61476  -61506       8
   61455   61497  -61470  -61500       8   61452   61491  -61467  -61494       8
   61485   61449  -61464  -61488       8   61404   61440  -61425  -61446       8
   61401   61440  -61419  -61443       8   61398   61431  -61413  -61437       8
   61392   61425  -61404  -61428       8   61392   61419  -61401  -61422       8
   61389   61413  -61398  -61416       8   61389   61407  -61395  -61410       8
   61353   61377  -61371  -61383       8   61350   61377  -61365  -61380       8
   61344   61371  -61353  -61374       8   61344   61365  -61350  -61368       8
   62088   62208  -62157  -62214       8   62085   62208  -62151  -62211       8
   62082   62199  -62145  -62205       8   62079   62199  -62139  -62202       8
   62076   62190  -62133  -62196       8   62073   62190  -62127  -62193       8
   62070   62184  -62121  -62187       8   62067   62184  -62115  -62181       8
   62064   62172  -62112  -62178       8   62061   62172  -62106  -62175       8
   62058   62163  -62097  -62169       8   62055   62163  -62091  -62166       8
   62049   62157  -62088  -62160       8   62049   62151  -62085  -62154       8
   62046   62145  -62082  -62148       8   62046   62139  -62079  -62142       8
   62040   62133  -62076  -62136       8   62040   62127  -62073  -62130       8
   62037   62121  -62070  -62124       8   62037   62115  -62067  -62118       8
   62034   62112  -62064  -62109       8   62034   62106  -62061  -62103       8
   62031   62097  -62058  -62100       8   62031   62091  -62055  -62094       8
   61992   61995  -62025  -62052       8   61980   61986  -62016  -62043       8
   62025   61962  -61995  -62028       8   62016   61956  -61986  -62019       8
   61947   61974  -61968  -62007       8   61941   61992  -61959  -61989       8
   61938   61980  -61953  -61983       8   61935   61974  -61950  -61977       8
   61968   61932  -61947  -61971       8   61887   61923  -61908  -61929       8
   61884   61923  -61902  -61926       8   61881   61914  -61896  -61920       8
   61875   61908  -61887  -61911       8   61875   61902  -61884  -61905       8
   61872   61896  -61881  -61899       8   61872   61890  -61878  -61893       8
   61836   61860  -61854  -61866       8   61833   61860  -61848  -61863       8
   61827   61854  -61836  -61857       8   61827   61848  -61833  -61851       8
   62571   62691  -62640  -62697       8   62568   62691  -62634  -62694       8
   62565   62682  -62628  -62688       8   62562   62682  -62622  -62685       8
   62559   62673  -62616  -62679       8   62556   62673  -62610  -62676       8
   62553   62667  -62604  -62670       8   62550   62667  -62598  -62664       8
   62547   62655  -62595  -62661       8   62544   62655  -62589  -62658       8
   62541   62646  -62580  -62652       8   62538   62646  -62574  -62649       8
   62532   62640  -62571  -62643       8   62532   62634  -62568  -62637       8
   62529   62628  -62565  -62631       8   62529   62622  -62562  -62625       8
   62523   62616  -62559  -62619       8   62523   62610  -62556  -62613       8
   62520   62604  -62553  -62607       8   62520   62598  -62550  -62601       8
   62517   62595  -62547  -62592       8   62517   62589  -62544  -62586       8
   62514   62580  -62541  -62583       8   62514   62574  -62538  -62577       8
   62475   62478  -62508  -62535       8   62463   62469  -62499  -62526       8
   62508   62445  -62478  -62511       8   62499   62439  -62469  -62502       8
   62430   62457  -62451  -62490       8   62424   62475  -62442  -62472       8
   62421   62463  -62436  -62466       8   62418   62457  -62433  -62460       8
   62451   62415  -62430  -62454       8   62370   62406  -62391  -62412       8
   62367   62406  -62385  -62409       8   62364   62397  -62379  -62403       8
   62358   62391  -62370  -62394       8   62358   62385  -62367  -62388       8
   62355   62379  -62364  -62382       8   62355   62373  -62361  -62376       8
   62319   62343  -62337  -62349       8   62316   62343  -62331  -62346       8
   62310   62337  -62319  -62340       8   62310   62331  -62316  -62334       8
   63054   63174  -63123  -63180       8   63051   63174  -63117  -63177       8
   63048   63165  -63111  -63171       8   63045   63165  -63105  -63168       8
   63042   63156  -63099  -63162       8   63039   63156  -63093  -63159       8
   63036   63150  -63087  -63153       8   63033   63150  -63081  -63147       8
   63030   63138  -63078  -63144       8   63027   63138  -63072  -63141       8
   63024   63129  -63063  -63135       8   63021   63129  -63057  -63132       8
   63015   63123  -63054  -63126       8   63015   63117  -63051  -63120       8
   63012   63111  -63048  -63114       8   63012   63105  -63045  -63108       8
   63006   63099  -63042  -63102       8   63006   63093  -63039  -63096       8
   63003   63087  -63036  -63090       8   63003   63081  -63033  -63084       8
   63000   63078  -63030  -63075       8   63000   63072  -63027  -63069       8
   62997   63063  -63024  -63066       8   62997   63057  -63021  -63060       8
   62958   62961  -62991  -63018       8   62946   62952  -62982  -63009       8
   62991   62928  -62961  -62994       8   62982   62922  -62952  -62985       8
   62913   62940  -62934  -62973       8   62907   62958  -62925  -62955       8
   62904   62946  -62919  -62949       8   62901   62940  -62916  -62943       8
   62934   62898  -62913  -62937       8   62853   62889  -62874  -62895       8
   62850   62889  -62868  -62892       8   62847   62880  -62862  -62886       8
   62841   62874  -62853  -62877       8   62841   62868  -62850  -62871       8
   62838   62862  -62847  -62865       8   62838   62856  -62844  -62859       8
   62802   62826  -62820  -62832       8   62799   62826  -62814  -62829       8
   62793   62820  -62802  -62823       8   62793   62814  -62799  -62817       8
   63537   63657  -63606  -63663       8   63534   63657  -63600  -63660       8
   63531   63648  -63594  -63654       8   63528   63648  -63588  -63651       8
   63525   63639  -63582  -63645       8   63522   63639  -63576  -63642       8
   63519   63633  -63570  -63636       8   63516   63633  -63564  -63630       8
   63513   63621  -63561  -63627       8   63510   63621  -63555  -63624       8
   63507   63612  -63546  -63618       8   63504   63612  -63540  -63615       8
   63498   63606  -63537  -63609       8   63498   63600  -63534  -63603       8
   63495   63594  -63531  -63597       8   63495   63588  -63528  -63591       8
   63489   63582  -63525  -63585       8   63489   63576  -63522  -63579       8
   63486   63570  -63519  -63573       8   63486   63564  -63516  -63567       8
   63483   63561  -63513  -63558       8   63483   63555  -63510  -63552       8
   63480   63546  -63507  -63549       8   63480   63540  -63504  -63543       8
   63441   63444  -63474  -63501       8   63429   63435  -63465  -63492       8
   63474   63411  -63444  -63477       8   63465   63405  -63435  -63468       8
   63396   63423  -63417  -63456       8   63390   63441  -63408  -63438       8
   63387   63429  -63402  -63432       8   63384   63423  -63399  -63426       8
   63417   63381  -63396  -63420       8   63336   63372  -63357  -63378       8
   63333   63372  -63351  -63375       8   63330   63363  -63345  -63369       8
   63324   63357  -63336  -63360       8   63324   63351  -63333  -63354       8
   63321   63345  -63330  -63348       8   63321   63339  -63327  -63342       8
   63285   63309  -63303  -63315       8   63282   63309  -63297  -63312       8
   63276   63303  -63285  -63306       8   63276   63297  -63282  -63300       8
   64020   64140  -64089  -64146       8   64017   64140  -64083  -64143       8
   64014   64131  -64077  -64137       8   64011   64131  -64071  -64134       8
   64008   64122  -64065  -64128       8   64005   64122  -64059  -64125       8
   64002   64116  -64053  -64119       8   63999   64116  -64047  -64113       8
   63996   64104  -64044  -64110       8   63993   64104  -64038  -64107       8
   63990   64095  -64029  -64101       8   63987   64095  -64023  -64098       8
   63981   64089  -64020  -64092       8   63981   64083  -64017  -64086       8
   63978   64077  -64014  -64080       8   63978   64071  -64011  -64074       8
   63972   64065  -64008  -64068       8   63972   64059  -64005  -64062       8
   63969   64053  -64002  -64056       8   63969   64047  -63999  -64050       8
   63966   64044  -63996  -64041       8   63966   64038  -63993  -64035       8
   63963   64029  -63990  -64032       8   63963   64023  -63987  -64026       8
   63924   63927  -63957  -63984       8   63912   63918  -63948  -63975       8
   63957   63894  -63927  -63960       8   63948   63888  -63918  -63951       8
   63879   63906  -63900  -63939       8   63873   63924  -63891  -63921       8
   63870   63912  -63885  -63915       8   63867   63906  -63882  -63909       8
   63900   63864  -63879  -63903       8   63819   63855  -63840  -63861       8
   63816   63855  -63834  -63858       8   63813   63846  -63828  -63852       8
   63807   63840  -63819  -63843       8   63807   63834  -63816  -63837       8
   63804   63828  -63813  -63831       8   63804   63822  -63810  -63825       8
   63768   63792  -63786  -63798       8   63765   63792  -63780  -63795       8
   63759   63786  -63768  -63789       8   63759   63780  -63765  -63783       8
   64503   64623  -64572  -64629       8   64500   64623  -64566  -64626       8
   64497   64614  -64560  -64620       8   64494   64614  -64554  -64617       8
   64491   64605  -64548  -64611       8   64488   64605  -64542  -64608       8
   64485   64599  -64536  -64602       8   64482   64599  -64530  -64596       8
   64479   64587  -64527  -64593       8   64476   64587  -64521  -64590       8
   64473   64578  -64512  -64584       8   64470   64578  -64506  -64581       8
   64464   64572  -64503  -64575       8   64464   64566  -64500  -64569       8
   64461   64560  -64497  -64563       8   64461   64554  -64494  -64557       8
   64455   64548  -64491  -64551       8   64455   64542  -64488  -64545       8
   64452   64536  -64485  -64539       8   64452   64530  -64482  -64533       8
   64449   64527  -64479  -64524       8   64449   64521  -64476  -64518       8
   64446   64512  -64473  -64515       8   64446   64506  -64470  -64509       8
   64407   64410  -64440  -64467       8   64395   64401  -64431  -64458       8
   64440   64377  -64410  -64443       8   64431   64371  -64401  -64434       8
   64362   64389  -64383  -64422       8   64356   64407  -64374  -64404       8
   64353   64395  -64368  -64398       8   64350   64389  -64365  -64392       8
   64383   64347  -64362  -64386       8   64302   64338  -64323  -64344       8
   64299   64338  -64317  -64341       8   64296   64329  -64311  -64335       8
   64290   64323  -64302  -64326       8   64290   64317  -64299  -64320       8
   64287   64311  -64296  -64314       8   64287   64305  -64293  -64308       8
   64251   64275  -64269  -64281       8   64248   64275  -64263  -64278       8
   64242   64269  -64251  -64272       8   64242   64263  -64248  -64266       8
   64986   65106  -65055  -65112       8   64983   65106  -65049  -65109       8
   64980   65097  -65043  -65103       8   64977   65097  -65037  -65100       8
   64974   65088  -65031  -65094       8   64971   65088  -65025  -65091       8
   64968   65082  -65019  -65085       8   64965   65082  -65013  -65079       8
   64962   65070  -65010  -65076       8   64959   65070  -65004  -65073       8
   64956   65061  -64995  -65067       8   64953   65061  -64989  -65064       8
   64947   65055  -64986  -65058       8   64947   65049  -64983  -65052       8
   64944   65043  -64980  -65046       8   64944   65037  -64977  -65040       8
   64938   65031  -64974  -65034       8   64938   65025  -64971  -65028       8
   64935   65019  -64968  -65022       8   64935   65013  -64965  -65016       8
   64932   65010  -64962  -65007       8   64932   65004  -64959  -65001       8
   64929   64995  -64956  -64998       8   64929   64989  -64953  -64992       8
   64890   64893  -64923  -64950       8   64878   64884  -64914  -64941       8
   64923   64860  -64893  -64926       8   64914   64854  -64884  -64917       8
   64845   64872  -64866  -64905       8   64839   64890  -64857  -64887       8
   64836   64878  -64851  -64881       8   64833   64872  -64848  -64875       8
   64866   64830  -64845  -64869       8   64785   64821  -64806  -64827       8
   64782   64821  -64800  -64824       8   64779   64812  -64794  -64818       8
   64773   64806  -64785  -64809       8   64773   64800  -64782  -64803       8
   64770   64794  -64779  -64797       8   64770   64788  -64776  -64791       8
   64734   64758  -64752  -64764       8   64731   64758  -64746  -64761       8
   64725   64752  -64734  -64755       8   64725   64746  -64731  -64749       8
   65469   65589  -65538  -65595       8   65466   65589  -65532  -65592       8
   65463   65580  -65526  -65586       8   65460   65580  -65520  -65583       8
   65457   65571  -65514  -65577       8   65454   65571  -65508  -65574       8
   65451   65565  -65502  -65568       8   65448   65565  -65496  -65562       8
   65445   65553  -65493  -65559       8   65442   65553  -65487  -65556       8
   65439   65544  -65478  -65550       8   65436   65544  -65472  -65547       8
   65430   65538  -65469  -65541       8   65430   65532  -65466  -65535       8
   65427   65526  -65463  -65529       8   65427   65520  -65460  -65523       8
   65421   65514  -65457  -65517       8   65421   65508  -65454  -65511       8
   65418   65502  -65451  -65505       8   65418   65496  -65448  -65499       8
   65415   65493  -65445  -65490       8   65415   65487  -65442  -65484       8
   65412   65478  -65439  -65481       8   65412   65472  -65436  -65475       8
   65373   65376  -65406  -65433       8   65361   65367  -65397  -65424       8
   65406   65343  -65376  -65409       8   65397   65337  -65367  -65400       8
   65328   65355  -65349  -65388       8   65322   65373  -65340  -65370       8
   65319   65361  -65334  -65364       8   65316   65355  -65331  -65358       8
   65349   65313  -65328  -65352       8   65268   65304  -65289  -65310       8
   65265   65304  -65283  -65307       8   65262   65295  -65277  -65301       8
   65256   65289  -65268  -65292       8   65256   65283  -65265  -65286       8
   65253   65277  -65262  -65280       8   65253   65271  -65259  -65274       8
   65217   65241  -65235  -65247       8   65214   65241  -65229  -65244       8
   65208   65235  -65217  -65238       8   65208   65229  -65214  -65232       8
   65952   66072  -66021  -66078       8   65949   66072  -66015  -66075       8
   65946   66063  -66009  -66069       8   65943   66063  -66003  -66066       8
   65940   66054  -65997  -66060       8   65937   66054  -65991  -66057       8
   65934   66048  -65985  -66051       8   65931   66048  -65979  -66045       8
   65928   66036  -65976  -66042       8   65925   66036  -65970  -66039       8
   65922   66027  -65961  -66033       8   65919   66027  -65955  -66030       8
   65913   66021  -65952  -66024       8   65913   66015  -65949  -66018       8
   65910   66009  -65946  -66012       8   65910   66003  -65943  -66006       8
   65904   65997  -65940  -66000       8   65904   65991  -65937  -65994       8
   65901   65985  -65934  -65988       8   65901   65979  -65931  -65982       8
   65898   65976  -65928  -65973       8   65898   65970  -65925  -65967       8
   65895   65961  -65922  -65964       8   65895   65955  -65919  -65958       8
   65856   65859  -65889  -65916       8   65844   65850  -65880  -65907       8
   65889   65826  -65859  -65892       8   65880   65820  -65850  -65883       8
   65811   65838  -65832  -65871       8   65805   65856  -65823  -65853       8
   65802   65844  -65817  -65847       8   65799   65838  -65814  -65841       8
   65832   65796  -65811  -65835       8   65751   65787  -65772  -65793       8
   65748   65787  -65766  -65790       8   65745   65778  -65760  -65784       8
   65739   65772  -65751  -65775       8   65739   65766  -65748  -65769       8
   65736   65760  -65745  -65763       8   65736   65754  -65742  -65757       8
   65700   65724  -65718  -65730       8   65697   65724  -65712  -65727       8
   65691   65718  -65700  -65721       8   65691   65712  -65697  -65715       8
   66435   66555  -66504  -66561       8   66432   66555  -66498  -66558       8
   66429   66546  -66492  -66552       8   66426   66546  -66486  -66549       8
   66423   66537  -66480  -66543       8   66420   66537  -66474  -66540       8
   66417   66531  -66468  -66534       8   66414   66531  -66462  -66528       8
   66411   66519  -66459  -66525       8   66408   66519  -66453  -66522       8
   66405   66510  -66444  -66516       8   66402   66510  -66438  -66513       8
   66396   66504  -66435  -66507       8   66396   66498  -66432  -66501       8
   66393   66492  -66429  -66495       8   66393   66486  -66426  -66489       8
   66387   66480  -66423  -66483       8   66387   66474  -66420  -66477       8
   66384   66468  -66417  -66471       8   66384   66462  -66414  -66465       8
   66381   66459  -66411  -66456       8   66381   66453  -66408  -66450       8
   66378   66444  -66405  -66447       8   66378   66438  -66402  -66441       8
   66339   66342  -66372  -66399       8   66327   66333  -66363  -66390       8
   66372   66309  -66342  -66375       8   66363   66303  -66333  -66366       8
   66294   66321  -66315  -66354       8   66288   66339  -66306  -66336       8
   66285   66327  -66300  -66330       8   66282   66321  -66297  -66324       8
   66315   66279  -66294  -66318       8   66234   66270  -66255  -66276       8
   66231   66270  -66249  -66273       8   66228   66261  -66243  -66267       8
   66222   66255  -66234  -66258       8   66222   66249  -66231  -66252       8
   66219   66243  -66228  -66246       8   66219   66237  -66225  -66240       8
   66183   66207  -66201  -66213       8   66180   66207  -66195  -66210       8
   66174   66201  -66183  -66204       8   66174   66195  -66180  -66198       8
   66918   67038  -66987  -67044       8   66915   67038  -66981  -67041       8
   66912   67029  -66975  -67035       8   66909   67029  -66969  -67032       8
   66906   67020  -66963  -67026       8   66903   67020  -66957  -67023       8
   66900   67014  -66951  -67017       8   66897   67014  -66945  -67011       8
   66894   67002  -66942  -67008       8   66891   67002  -66936  -67005       8
   66888   66993  -66927  -66999       8   66885   66993  -66921  -66996       8
   66879   66987  -66918  -66990       8   66879   66981  -66915  -66984       8
   66876   66975  -66912  -66978       8   66876   66969  -66909  -66972       8
   66870   66963  -66906  -66966       8   66870   66957  -66903  -66960       8
   66867   66951  -66900  -66954       8   66867   66945  -66897  -66948       8
   66864   66942  -66894  -66939       8   66864   66936  -66891  -66933       8
   66861   66927  -66888  -66930       8   66861   66921  -66885  -66924       8
   66822   66825  -66855  -66882       8   66810   66816  -66846  -66873       8
   66855   66792  -66825  -66858       8   66846   66786  -66816  -66849       8
   66777   66804  -66798  -66837       8   66771   66822  -66789  -66819       8
   66768   66810  -66783  -66813       8   66765   66804  -66780  -66807       8
   66798   66762  -66777  -66801       8   66717   66753  -66738  -66759       8
   66714   66753  -66732  -66756       8   66711   66744  -66726  -66750       8
   66705   66738  -66717  -66741       8   66705   66732  -66714  -66735       8
   66702   66726  -66711  -66729       8   66702   66720  -66708  -66723       8
   66666   66690  -66684  -66696       8   66663   66690  -66678  -66693       8
   66657   66684  -66666  -66687       8   66657   66678  -66663  -66681       8
   67401   67521  -67470  -67527       8   67398   67521  -67464  -67524       8
   67395   67512  -67458  -67518       8   67392   67512  -67452  -67515       8
   67389   67503  -67446  -67509       8   67386   67503  -67440  -67506       8
   67383   67497  -67434  -67500       8   67380   67497  -67428  -67494       8
   67377   67485  -67425  -67491       8   67374   67485  -67419  -67488       8
   67371   67476  -67410  -67482       8   67368   67476  -67404  -67479       8
   67362   67470  -67401  -67473       8   67362   67464  -67398  -67467       8
   67359   67458  -67395  -67461       8   67359   67452  -67392  -67455       8
   67353   67446  -67389  -67449       8   67353   67440  -67386  -67443       8
   67350   67434  -67383  -67437       8   67350   67428  -67380  -67431       8
   67347   67425  -67377  -67422       8   67347   67419  -67374  -67416       8
   67344   67410  -67371  -67413       8   67344   67404  -67368  -67407       8
   67305   67308  -67338  -67365       8   67293   67299  -67329  -67356       8
   67338   67275  -67308  -67341       8   67329   67269  -67299  -67332       8
   67260   67287  -67281  -67320       8   67254   67305  -67272  -67302       8
   67251   67293  -67266  -67296       8   67248   67287  -67263  -67290       8
   67281   67245  -67260  -67284       8   67200   67236  -67221  -67242       8
   67197   67236  -67215  -67239       8   67194   67227  -67209  -67233       8
   67188   67221  -67200  -67224       8   67188   67215  -67197  -67218       8
   67185   67209  -67194  -67212       8   67185   67203  -67191  -67206       8
   67149   67173  -67167  -67179       8   67146   67173  -67161  -67176       8
   67140   67167  -67149  -67170       8   67140   67161  -67146  -67164       8
   67884   68004  -67953  -68010       8   67881   68004  -67947  -68007       8
   67878   67995  -67941  -68001       8   67875   67995  -67935  -67998       8
   67872   67986  -67929  -67992       8   67869   67986  -67923  -67989       8
   67866   67980  -67917  -67983       8   67863   67980  -67911  -67977       8
   67860   67968  -67908  -67974       8   67857   67968  -67902  -67971       8
   67854   67959  -67893  -67965       8   67851   67959  -67887  -67962       8
   67845   67953  -67884  -67956       8   67845   67947  -67881  -67950       8
   67842   67941  -67878  -67944       8   67842   67935  -67875  -67938       8
   67836   67929  -67872  -67932       8   67836   67923  -67869  -67926       8
   67833   67917  -67866  -67920       8   67833   67911  -67863  -67914       8
   67830   67908  -67860  -67905       8   67830   67902  -67857  -67899       8
   67827   67893  -67854  -67896       8   67827   67887  -67851  -67890       8
   67788   67791  -67821  -67848       8   67776   67782  -67812  -67839       8
   67821   67758  -67791  -67824       8   67812   67752  -67782  -67815       8
   67743   67770  -67764  -67803       8   67737   67788  -67755  -67785       8
   67734   67776  -67749  -67779       8   67731   67770  -67746  -67773       8
   67764   67728  -67743  -67767       8   67683   67719  -67704  -67725       8
   67680   67719  -67698  -67722       8   67677   67710  -67692  -67716       8
   67671   67704  -67683  -67707       8   67671   67698  -67680  -67701       8
   67668   67692  -67677  -67695       8   67668   67686  -67674  -67689       8
   67632   67656  -67650  -67662       8   67629   67656  -67644  -67659       8
   67623   67650  -67632  -67653       8   67623   67644  -67629  -67647       8
   68367   68487  -68436  -68493       8   68364   68487  -68430  -68490       8
   68361   68478  -68424  -68484       8   68358   68478  -68418  -68481       8
   68355   68469  -68412  -68475       8   68352   68469  -68406  -68472       8
   68349   68463  -68400  -68466       8   68346   68463  -68394  -68460       8
   68343   68451  -68391  -68457       8   68340   68451  -68385  -68454       8
   68337   68442  -68376  -68448       8   68334   68442  -68370  -68445       8
   68328   68436  -68367  -68439       8   68328   68430  -68364  -68433       8
   68325   68424  -68361  -68427       8   68325   68418  -68358  -68421       8
   68319   68412  -68355  -68415       8   68319   68406  -68352  -68409       8
   68316   68400  -68349  -68403       8   68316   68394  -68346  -68397       8
   68313   68391  -68343  -68388       8   68313   68385  -68340  -68382       8
   68310   68376  -68337  -68379       8   68310   68370  -68334  -68373       8
   68271   68274  -68304  -68331       8   68259   68265  -68295  -68322       8
   68304   68241  -68274  -68307       8   68295   68235  -68265  -68298       8
   68226   68253  -68247  -68286       8   68220   68271  -68238  -68268       8
   68217   68259  -68232  -68262       8   68214   68253  -68229  -68256       8
   68247   68211  -68226  -68250       8   68166   68202  -68187  -68208       8
   68163   68202  -68181  -68205       8   68160   68193  -68175  -68199       8
   68154   68187  -68166  -68190       8   68154   68181  -68163  -68184       8
   68151   68175  -68160  -68178       8   68151   68169  -68157  -68172       8
   68115   68139  -68133  -68145       8   68112   68139  -68127  -68142       8
   68106   68133  -68115  -68136       8   68106   68127  -68112  -68130       8
   68850   68970  -68919  -68976       8   68847   68970  -68913  -68973       8
   68844   68961  -68907  -68967       8   68841   68961  -68901  -68964       8
   68838   68952  -68895  -68958       8   68835   68952  -68889  -68955       8
   68832   68946  -68883  -68949       8   68829   68946  -68877  -68943       8
   68826   68934  -68874  -68940       8   68823   68934  -68868  -68937       8
   68820   68925  -68859  -68931       8   68817   68925  -68853  -68928       8
   68811   68919  -68850  -68922       8   68811   68913  -68847  -68916       8
   68808   68907  -68844  -68910       8   68808   68901  -68841  -68904       8
   68802   68895  -68838  -68898       8   68802   68889  -68835  -68892       8
   68799   68883  -68832  -68886       8   68799   68877  -68829  -68880       8
   68796   68874  -68826  -68871       8   68796   68868  -68823  -68865       8
   68793   68859  -68820  -68862       8   68793   68853  -68817  -68856       8
   68754   68757  -68787  -68814       8   68742   68748  -68778  -68805       8
   68787   68724  -68757  -68790       8   68778   68718  -68748  -68781       8
   68709   68736  -68730  -68769       8   68703   68754  -68721  -68751       8
   68700   68742  -68715  -68745       8   68697   68736  -68712  -68739       8
   68730   68694  -68709  -68733       8   68649   68685  -68670  -68691       8
   68646   68685  -68664  -68688       8   68643   68676  -68658  -68682       8
   68637   68670  -68649  -68673       8   68637   68664  -68646  -68667       8
   68634   68658  -68643  -68661       8   68634   68652  -68640  -68655       8
   68598   68622  -68616  -68628       8   68595   68622  -68610  -68625       8
   68589   68616  -68598  -68619       8   68589   68610  -68595  -68613       8
   69333   69453  -69402  -69459       8   69330   69453  -69396  -69456       8
   69327   69444  -69390  -69450       8   69324   69444  -69384  -69447       8
   69321   69435  -69378  -69441       8   69318   69435  -69372  -69438       8
   69315   69429  -69366  -69432       8   69312   69429  -69360  -69426       8
   69309   69417  -69357  -69423       8   69306   69417  -69351  -69420       8
   69303   69408  -69342  -69414       8   69300   69408  -69336  -69411       8
   69294   69402  -69333  -69405       8   69294   69396  -69330  -69399       8
   69291   69390  -69327  -69393       8   69291   69384  -69324  -69387       8
   69285   69378  -69321  -69381       8   69285   69372  -69318  -69375       8
   69282   69366  -69315  -69369       8   69282   69360  -69312  -69363       8
   69279   69357  -69309  -69354       8   69279   69351  -69306  -69348       8
   69276   69342  -69303  -69345       8   69276   69336  -69300  -69339       8
   69237   69240  -69270  -69297       8   69225   69231  -69261  -69288       8
   69270   69207  -69240  -69273       8   69261   69201  -69231  -69264       8
   69192   69219  -69213  -69252       8   69186   69237  -69204  -69234       8
   69183   69225  -69198  -69228       8   69180   69219  -69195  -69222       8
   69213   69177  -69192  -69216       8   69132   69168  -69153  -69174       8
   69129   69168  -69147  -69171       8   69126   69159  -69141  -69165       8
   69120   69153  -69132  -69156       8   69120   69147  -69129  -69150       8
   69117   69141  -69126  -69144       8   69117   69135  -69123  -69138       8
   69081   69105  -69099  -69111       8   69078   69105  -69093  -69108       8
   69072   69099  -69081  -69102       8   69072   69093  -69078  -69096       8
   69816   69936  -69885  -69942       8   69813   69936  -69879  -69939       8
   69810   69927  -69873  -69933       8   69807   69927  -69867  -69930       8
   69804   69918  -69861  -69924       8   69801   69918  -69855  -69921       8
   69798   69912  -69849  -69915       8   69795   69912  -69843  -69909       8
   69792   69900  -69840  -69906       8   69789   69900  -69834  -69903       8
   69786   69891  -69825  -69897       8   69783   69891  -69819  -69894       8
   69777   69885  -69816  -69888       8   69777   69879  -69813  -69882       8
   69774   69873  -69810  -69876       8   69774   69867  -69807  -69870       8
   69768   69861  -69804  -69864       8   69768   69855  -69801  -69858       8
   69765   69849  -69798  -69852       8   69765   69843  -69795  -69846       8
   69762   69840  -69792  -69837       8   69762   69834  -69789  -69831       8
   69759   69825  -69786  -69828       8   69759   69819  -69783  -69822       8
   69720   69723  -69753  -69780       8   69708   69714  -69744  -69771       8
   69753   69690  -69723  -69756       8   69744   69684  -69714  -69747       8
   69675   69702  -69696  -69735       8   69669   69720  -69687  -69717       8
   69666   69708  -69681  -69711       8   69663   69702  -69678  -69705       8
   69696   69660  -69675  -69699       8   69615   69651  -69636  -69657       8
   69612   69651  -69630  -69654       8   69609   69642  -69624  -69648       8
   69603   69636  -69615  -69639       8   69603   69630  -69612  -69633       8
   69600   69624  -69609  -69627       8   69600   69618  -69606  -69621       8
   69564   69588  -69582  -69594       8   69561   69588  -69576  -69591       8
   69555   69582  -69564  -69585       8   69555   69576  -69561  -69579       8
   70299   70419  -70368  -70425       8   70296   70419  -70362  -70422       8
   70293   70410  -70356  -70416       8   70290   70410  -70350  -70413       8
   70287   70401  -70344  -70407       8   70284   70401  -70338  -70404       8
   70281   70395  -70332  -70398       8   70278   70395  -70326  -70392       8
   70275   70383  -70323  -70389       8   70272   70383  -70317  -70386       8
   70269   70374  -70308  -70380       8   70266   70374  -70302  -70377       8
   70260   70368  -70299  -70371       8   70260   70362  -70296  -70365       8
   70257   70356  -70293  -70359       8   70257   70350  -70290  -70353       8
   70251   70344  -70287  -70347       8   70251   70338  -70284  -70341       8
   70248   70332  -70281  -70335       8   70248   70326  -70278  -70329       8
   70245   70323  -70275  -70320       8   70245   70317  -70272  -70314       8
   70242   70308  -70269  -70311       8   70242   70302  -70266  -70305       8
   70203   70206  -70236  -70263       8   70191   70197  -70227  -70254       8
   70236   70173  -70206  -70239       8   70227   70167  -70197  -70230       8
   70158   70185  -70179  -70218       8   70152   70203  -70170  -70200       8
   70149   70191  -70164  -70194       8   70146   70185  -70161  -70188       8
   70179   70143  -70158  -70182       8   70098   70134  -70119  -70140       8
   70095   70134  -70113  -70137       8   70092   70125  -70107  -70131       8
   70086   70119  -70098  -70122       8   70086   70113  -70095  -70116       8
   70083   70107  -70092  -70110       8   70083   70101  -70089  -70104       8
   70047   70071  -70065  -70077       8   70044   70071  -70059  -70074       8
   70038   70065  -70047  -70068       8   70038   70059  -70044  -70062       8
   70782   70902  -70851  -70908       8   70779   70902  -70845  -70905       8
   70776   70893  -70839  -70899       8   70773   70893  -70833  -70896       8
   70770   70884  -70827  -70890       8   70767   70884  -70821  -70887       8
   70764   70878  -70815  -70881       8   70761   70878  -70809  -70875       8
   70758   70866  -70806  -70872       8   70755   70866  -70800  -70869       8
   70752   70857  -70791  -70863       8   70749   70857  -70785  -70860       8
   70743   70851  -70782  -70854       8   70743   70845  -70779  -70848       8
   70740   70839  -70776  -70842       8   70740   70833  -70773  -70836       8
   70734   70827  -70770  -70830       8   70734   70821  -70767  -70824       8
   70731   70815  -70764  -70818       8   70731   70809  -70761  -70812       8
   70728   70806  -70758  -70803       8   70728   70800  -70755  -70797       8
   70725   70791  -70752  -70794       8   70725   70785  -70749  -70788       8
   70686   70689  -70719  -70746       8   70674   70680  -70710  -70737       8
   70719   70656  -70689  -70722       8   70710   70650  -70680  -70713       8
   70641   70668  -70662  -70701       8   70635   70686  -70653  -70683       8
   70632   70674  -70647  -70677       8   70629   70668  -70644  -70671       8
   70662   70626  -70641  -70665       8   70581   70617  -70602  -70623       8
   70578   70617  -70596  -70620       8   70575   70608  -70590  -70614       8
   70569   70602  -70581  -70605       8   70569   70596  -70578  -70599       8
   70566   70590  -70575  -70593       8   70566   70584  -70572  -70587       8
   70530   70554  -70548  -70560       8   70527   70554  -70542  -70557       8
   70521   70548  -70530  -70551       8   70521   70542  -70527  -70545       8
   71265   71385  -71334  -71391       8   71262   71385  -71328  -71388       8
   71259   71376  -71322  -71382       8   71256   71376  -71316  -71379       8
   71253   71367  -71310  -71373       8   71250   71367  -71304  -71370       8
   71247   71361  -71298  -71364       8   71244   71361  -71292  -71358       8
   71241   71349  -71289  -71355       8   71238   71349  -71283  -71352       8
   71235   71340  -71274  -71346       8   71232   71340  -71268  -71343       8
   71226   71334  -71265  -71337       8   71226   71328  -71262  -71331       8
   71223   71322  -71259  -71325       8   71223   71316  -71256  -71319       8
   71217   71310  -71253  -71313       8   71217   71304  -71250  -71307       8
   71214   71298  -71247  -71301       8   71214   71292  -71244  -71295       8
   71211   71289  -71241  -71286       8   71211   71283  -71238  -71280       8
   71208   71274  -71235  -71277       8   71208   71268  -71232  -71271       8
   71169   71172  -71202  -71229       8   71157   71163  -71193  -71220       8
   71202   71139  -71172  -71205       8   71193   71133  -71163  -71196       8
   71124   71151  -71145  -71184       8   71118   71169  -71136  -71166       8
   71115   71157  -71130  -71160       8   71112   71151  -71127  -71154       8
   71145   71109  -71124  -71148       8   71064   71100  -71085  -71106       8
   71061   71100  -71079  -71103       8   71058   71091  -71073  -71097       8
   71052   71085  -71064  -71088       8   71052   71079  -71061  -71082       8
   71049   71073  -71058  -71076       8   71049   71067  -71055  -71070       8
   71013   71037  -71031  -71043       8   71010   71037  -71025  -71040       8
   71004   71031  -71013  -71034       8   71004   71025  -71010  -71028       8
   71748   71868  -71817  -71874       8   71745   71868  -71811  -71871       8
   71742   71859  -71805  -71865       8   71739   71859  -71799  -71862       8
   71736   71850  -71793  -71856       8   71733   71850  -71787  -71853       8
   71730   71844  -71781  -71847       8   71727   71844  -71775  -71841       8
   71724   71832  -71772  -71838       8   71721   71832  -71766  -71835       8
   71718   71823  -71757  -71829       8   71715   71823  -71751  -71826       8
   71709   71817  -71748  -71820       8   71709   71811  -71745  -71814       8
   71706   71805  -71742  -71808       8   71706   71799  -71739  -71802       8
   71700   71793  -71736  -71796       8   71700   71787  -71733  -71790       8
   71697   71781  -71730  -71784       8   71697   71775  -71727  -71778       8
   71694   71772  -71724  -71769       8   71694   71766  -71721  -71763       8
   71691   71757  -71718  -71760       8   71691   71751  -71715  -71754       8
   71652   71655  -71685  -71712       8   71640   71646  -71676  -71703       8
   71685   71622  -71655  -71688       8   71676   71616  -71646  -71679       8
   71607   71634  -71628  -71667       8   71601   71652  -71619  -71649       8
   71598   71640  -71613  -71643       8   71595   71634  -71610  -71637       8
   71628   71592  -71607  -71631       8   71547   71583  -71568  -71589       8
   71544   71583  -71562  -71586       8   71541   71574  -71556  -71580       8
   71535   71568  -71547  -71571       8   71535   71562  -71544  -71565       8
   71532   71556  -71541  -71559       8   71532   71550  -71538  -71553       8
   71496   71520  -71514  -71526       8   71493   71520  -71508  -71523       8
   71487   71514  -71496  -71517       8   71487   71508  -71493  -71511       8
   72231   72351  -72300  -72357       8   72228   72351  -72294  -72354       8
   72225   72342  -72288  -72348       8   72222   72342  -72282  -72345       8
   72219   72333  -72276  -72339       8   72216   72333  -72270  -72336       8
   72213   72327  -72264  -72330       8   72210   72327  -72258  -72324       8
   72207   72315  -72255  -72321       8   72204   72315  -72249  -72318       8
   72201   72306  -72240  -72312       8   72198   72306  -72234  -72309       8
   72192   72300  -72231  -72303       8   72192   72294  -72228  -72297       8
   72189   72288  -72225  -72291       8   72189   72282  -72222  -72285       8
   72183   72276  -72219  -72279       8   72183   72270  -72216  -72273       8
   72180   72264  -72213  -72267       8   72180   72258  -72210  -72261       8
   72177   72255  -72207  -72252       8   72177   72249  -72204  -72246       8
   72174   72240  -72201  -72243       8   72174   72234  -72198  -72237       8
   72135   72138  -72168  -72195       8   72123   72129  -72159  -72186       8
   72168   72105  -72138  -72171       8   72159   72099  -72129  -72162       8
   72090   72117  -72111  -72150       8   72084   72135  -72102  -72132       8
   72081   72123  -72096  -72126       8   72078   72117  -72093  -72120       8
   72111   72075  -72090  -72114       8   72030   72066  -72051  -72072       8
   72027   72066  -72045  -72069       8   72024   72057  -72039  -72063       8
   72018   72051  -72030  -72054       8   72018   72045  -72027  -72048       8
   72015   72039  -72024  -72042       8   72015   72033  -72021  -72036       8
   71979   72003  -71997  -72009       8   71976   72003  -71991  -72006       8
   71970   71997  -71979  -72000       8   71970   71991  -71976  -71994       8
%FLAG DIHEDRALS_WITHOUT_HYDROGEN                                                
%FORMAT(10I8)                                                                   
     333     384     408     426       3     327     384     408     426       3
     321     375     405     423       3     315     375     405     423       3
     309     366     402     420       3     303     366     402     420       3
     297     360     399     417       3     291     360     399     417       3
     288     348     396     414       3     282     348     396     414       3
     273     339     393     411       3     267     339     393     411       3
     264     225     261     327       1     264     333    -384     327       1
     264     333     384     408       1     261     225     264     333       1
     261     327    -384     333       1     261     327     384     408       1
     258     222     255     315       1     258     321    -375     315       1
     258     321     375     405       1     255     222     258     321       1
     255     315    -375     321       1     255     315     375     405       1
     252     216     249     303       1     252     309    -366     303       1
     252     309     366     402       1     249     216     252     309       1
     249     303    -366     309       1     249     303     366     402       1
     246     213     243     291       1     246     297    -360     291       1
     246     297     360     399       1     243     213     246     297       1
     243     291    -360     297       1     243     291     360     399       1
     240     210     237     282       1     240     288    -348     282       1
     240     288     348     396       1     237     210     240     288       1
     237     282    -348     288       1     237     282     348     396       1
     234     207     231     267       1     234     273    -339     267       1
     234     273     339     393       1     231     207     234     273       1
     231     267    -339     273       1     231     267     339     393       1
     225     198     222     255       4     225     198     222     258       4
     225     261     327     384       1     225     264    -333     384       1
     222     198     225     261       4     222     198     225     264       4
     222     255     315     375       1     222     258    -321     375       1
     216     189     213     243       4     216     189     213     246       4
     216     249     303     366       1     216     252    -309     366       1
     213     189     216     249       4     213     189     216     252       4
     213     243     291     360       1     213     246    -297     360       1
     210     186     207     231       4     210     186     207     234       4
     210     237     282     348       1     210     240    -288     348       1
     207     186     210     237       4     207     186     210     240       4
     207     231     267     339       1     207     234    -273     339       1
     201     168     198     222       4     201     168     198     225       4
     198     222     255     315       1     198     222     258     321       1
     198     225     261     327       1     198     225     264     333       1
     192     156     189     213       4     192     156     189     216       4
     189     213     243     291       1     189     213     246     297       1
     189     216     249     303       1     189     216     252     309       1
     186     207     231     267       1     186     207     234     273       1
     186     210     237     282       1     186     210     240     288       1
     171     201     168     198       1     168     198     222     255       4
     168     198     222     258       4     168     198     225     261       4
     168     198     225     264       4     162     132     138     171       5
     162     192     156     189       1     156     189     213     243       4
     156     189     213     246       4     156     189     216     249       4
     156     189     216     252       4     150     186     207     231       4
     150     186     207     234       4     150     186     210     237       4
     150     186     210     240       4     144     150     186     207       4
     144     150     186     210       4     138     117     135     168       1
     138     132     162     192       1     138     171    -201     168       1
     135     117     138     171       1     135     168     198     222       4
     135     168     198     225       4     135     168    -201     171       1
     132     114     129     156       1     132     138     117     135       1
     132     138     171     201       1     132     162    -192     156       1
     129     114     132     138       1     129     114     132     162       1
     129     156     189     213       4     129     156     189     216       4
     129     156    -192     162       1     126     150     186     207       4
     126     150     186     210       4     123     108     111     126       1
     123     144    -150     126       1     123     144     150     186       1
     117      93     111     126       6     117      93     114     129       6
     117      93    -114     132       7     117     135     168     198       1
     117     135     168     201       1     117     138     132     162       5
     117     138    -171     201       1     114      93     111     126       6
     114      93     117     135       6     114      93    -117     138       7
     114     129     156     189       1     114     129     156     192       1
     114     132    -138     117       5     114     132     138     171       5
     114     132    -162     192       1     111      93     114     129       6
     111      93     114     132       7     111      93     117     135       6
     111      93     117     138       7     111     108     123     144       1
     111     126    -150     144       1     111     126     150     186       1
     108     111      93     114       7     108     111      93     117       7
     108     111     126     150       1     108     123    -144     150       1
      93      66     -90     108       1      93     111     108     123       1
      93     111     126     150       1      93     114     129     156       1
      93     114    -132     138       1      93     114     132     162       1
      93     117     135     168       1      93     117    -138     132       1
      93     117     138     171       1      90      66     -93     111       7
      90      66      93     114       7      90      66      93     117       7
      90     108    -111      93       1      90     108     111     126       1
      90     108     123     144       1      84      99     120     141       3
      78      99     120     141       3      72      90      66      93       1
      72      90     108     111       5      72      90     108     123       5
      66      90    -108     111       5      66      90     108     123       5
      66      93    -111     108       7      66      93     111     126       6
      66      93     114     129       6      66      93     114     132       7
      66      93     117     135       6      66      93     117     138       7
      63      51      60      78       1      63      84     -99      78       1
      63      84      99     120       1      60      51      63      84       1
      60      78     -99      84       1      60      78      99     120       1
      57      48      54      66       1      57      72     -90      66       1
      57      72      90     108       1      54      48      57      72       1
      54      66     -90      72       1      54      66      90     108       1
      54      66      93     111       6      54      66      93     114       6
      54      66      93     117       6      51      45      48      54       4
      51      45      48      57       4      51      60      78      99       1
      51      63     -84      99       1      48      45      51      60       4
      48      45      51      63       4      48      54      66      90       1
      48      54      66      93       1      48      57     -72      90       1
      45      48      54      66       1      45      48      57      72       1
      45      51      60      78       1      45      51      63      84       1
      36      45      48      54       4      36      45      48      57       4
      36      45      51      60       4      36      45      51      63       4
      30      36      45      48       4      30      36      45      51       4
      24      36      45      48       4      24      36      45      51       4
      12       3       9      24       1      12      30     -36      24       1
      12      30      36      45       1       9       3      12      30       1
       9      24     -36      30       1       9      24      36      45       1
       6       0       3       9       3       6       0       3      12       3
       3       9      24      36       1       3      12     -30      36       1
       0       3       9      24       1       0       3      12      30       1
     816     867     891     909       3     810     867     891     909       3
     804     858     888     906       3     798     858     888     906       3
     792     849     885     903       3     786     849     885     903       3
     780     843     882     900       3     774     843     882     900       3
     771     831     879     897       3     765     831     879     897       3
     756     822     876     894       3     750     822     876     894       3
     747     708     744     810       1     747     816    -867     810       1
     747     816     867     891       1     744     708     747     816       1
     744     810    -867     816       1     744     810     867     891       1
     741     705     738     798       1     741     804    -858     798       1
     741     804     858     888       1     738     705     741     804       1
     738     798    -858     804       1     738     798     858     888       1
     735     699     732     786       1     735     792    -849     786       1
     735     792     849     885       1     732     699     735     792       1
     732     786    -849     792       1     732     786     849     885       1
     729     696     726     774       1     729     780    -843     774       1
     729     780     843     882       1     726     696     729     780       1
     726     774    -843     780       1     726     774     843     882       1
     723     693     720     765       1     723     771    -831     765       1
     723     771     831     879       1     720     693     723     771       1
     720     765    -831     771       1     720     765     831     879       1
     717     690     714     750       1     717     756    -822     750       1
     717     756     822     876       1     714     690     717     756       1
     714     750    -822     756       1     714     750     822     876       1
     708     681     705     738       4     708     681     705     741       4
     708     744     810     867       1     708     747    -816     867       1
     705     681     708     744       4     705     681     708     747       4
     705     738     798     858       1     705     741    -804     858       1
     699     672     696     726       4     699     672     696     729       4
     699     732     786     849       1     699     735    -792     849       1
     696     672     699     732       4     696     672     699     735       4
     696     726     774     843       1     696     729    -780     843       1
     693     669     690     714       4     693     669     690     717       4
     693     720     765     831       1     693     723    -771     831       1
     690     669     693     720       4     690     669     693     723       4
     690     714     750     822       1     690     717    -756     822       1
     684     651     681     705       4     684     651     681     708       4
     681     705     738     798       1     681     705     741     804       1
     681     708     744     810       1     681     708     747     816       1
     675     639     672     696       4     675     639     672     699       4
     672     696     726     774       1     672     696     729     780       1
     672     699     732     786       1     672     699     735     792       1
     669     690     714     750       1     669     690     717     756       1
     669     693     720     765       1     669     693     723     771       1
     654     684     651     681       1     651     681     705     738       4
     651     681     705     741       4     651     681     708     744       4
     651     681     708     747       4     645     615     621     654       5
     645     675     639     672       1     639     672     696     726       4
     639     672     696     729       4     639     672     699     732       4
     639     672     699     735       4     633     669     690     714       4
     633     669     690     717       4     633     669     693     720       4
     633     669     693     723       4     627     633     669     690       4
     627     633     669     693       4     621     600     618     651       1
     621     615     645     675       1     621     654    -684     651       1
     618     600     621     654       1     618     651     681     705       4
     618     651     681     708       4     618     651    -684     654       1
     615     597     612     639       1     615     621     600     618       1
     615     621     654     684       1     615     645    -675     639       1
     612     597     615     621       1     612     597     615     645       1
     612     639     672     696       4     612     639     672     699       4
     612     639    -675     645       1     609     633     669     690       4
     609     633     669     693       4     606     591     594     609       1
     606     627    -633     609       1     606     627     633     669       1
     600     576     594     609       6     600     576     597     612       6
     600     576    -597     615       7     600     618     651     681       1
     600     618     651     684       1     600     621     615     645       5
     600     621    -654     684       1     597     576     594     609       6
     597     576     600     618       6     597     576    -600     621       7
     597     612     639     672       1     597     612     639     675       1
     597     615    -621     600       5     597     615     621     654       5
     597     615    -645     675       1     594     576     597     612       6
     594     576     597     615       7     594     576     600     618       6
     594     576     600     621       7     594     591     606     627       1
     594     609    -633     627       1     594     609     633     669       1
     591     594     576     597       7     591     594     576     600       7
     591     594     609     633       1     591     606    -627     633       1
     576     549    -573     591       1     576     594     591     606       1
     576     594     609     633       1     576     597     612     639       1
     576     597    -615     621       1     576     597     615     645       1
     576     600     618     651       1     576     600    -621     615       1
     576     600     621     654       1     573     549    -576     594       7
     573     549     576     597       7     573     549     576     600       7
     573     591    -594     576       1     573     591     594     609       1
     573     591     606     627       1     567     582     603     624       3
     561     582     603     624       3     555     573     549     576       1
     555     573     591     594       5     555     573     591     606       5
     549     573    -591     594       5     549     573     591     606       5
     549     576    -594     591       7     549     576     594     609       6
     549     576     597     612       6     549     576     597     615       7
     549     576     600     618       6     549     576     600     621       7
     546     534     543     561       1     546     567    -582     561       1
     546     567     582     603       1     543     534     546     567       1
     543     561    -582     567       1     543     561     582     603       1
     540     531     537     549       1     540     555    -573     549       1
     540     555     573     591       1     537     531     540     555       1
     537     549    -573     555       1     537     549     573     591       1
     537     549     576     594       6     537     549     576     597       6
     537     549     576     600       6     534     528     531     537       4
     534     528     531     540       4     534     543     561     582       1
     534     546    -567     582       1     531     528     534     543       4
     531     528     534     546       4     531     537     549     573       1
     531     537     549     576       1     531     540    -555     573       1
     528     531     537     549       1     528     531     540     555       1
     528     534     543     561       1     528     534     546     567       1
     519     528     531     537       4     519     528     531     540       4
     519     528     534     543       4     519     528     534     546       4
     513     519     528     531       4     513     519     528     534       4
     507     519     528     531       4     507     519     528     534       4
     495     486     492     507       1     495     513    -519     507       1
     495     513     519     528       1     492     486     495     513       1
     492     507    -519     513       1     492     507     519     528       1
     489     483     486     492       3     489     483     486     495       3
     486     492     507     519       1     486     495    -513     519       1
     483     486     492     507       1     483     486     495     513       1
    1299    1350    1374    1392       3    1293    1350    1374    1392       3
    1287    1341    1371    1389       3    1281    1341    1371    1389       3
    1275    1332    1368    1386       3    1269    1332    1368    1386       3
    1263    1326    1365    1383       3    1257    1326    1365    1383       3
    1254    1314    1362    1380       3    1248    1314    1362    1380       3
    1239    1305    1359    1377       3    1233    1305    1359    1377       3
    1230    1191    1227    1293       1    1230    1299   -1350    1293       1
    1230    1299    1350    1374       1    1227    1191    1230    1299       1
    1227    1293   -1350    1299       1    1227    1293    1350    1374       1
    1224    1188    1221    1281       1    1224    1287   -1341    1281       1
    1224    1287    1341    1371       1    1221    1188    1224    1287       1
    1221    1281   -1341    1287       1    1221    1281    1341    1371       1
    1218    1182    1215    1269       1    1218    1275   -1332    1269       1
    1218    1275    1332    1368       1    1215    1182    1218    1275       1
    1215    1269   -1332    1275       1    1215    1269    1332    1368       1
    1212    1179    1209    1257       1    1212    1263   -1326    1257       1
    1212    1263    1326    1365       1    1209    1179    1212    1263       1
    1209    1257   -1326    1263       1    1209    1257    1326    1365       1
    1206    1176    1203    1248       1    1206    1254   -1314    1248       1
    1206    1254    1314    1362       1    1203    1176    1206    1254       1
    1203    1248   -1314    1254       1    1203    1248    1314    1362       1
    1200    1173    1197    1233       1    1200    1239   -1305    1233       1
    1200    1239    1305    1359       1    1197    1173    1200    1239       1
    1197    1233   -1305    1239       1    1197    1233    1305    1359       1
    1191    1164    1188    1221       4    1191    1164    1188    1224       4
    1191    1227    1293    1350       1    1191    1230   -1299    1350       1
    1188    1164    1191    1227       4    1188    1164    1191    1230       4
    1188    1221    1281    1341       1    1188    1224   -1287    1341       1
    1182    1155    1179    1209       4    1182    1155    1179    1212       4
    1182    1215    1269    1332       1    1182    1218   -1275    1332       1
    1179    1155    1182    1215       4    1179    1155    1182    1218       4
    1179    1209    1257    1326       1    1179    1212   -1263    1326       1
    1176    1152    1173    1197       4    1176    1152    1173    1200       4
    1176    1203    1248    1314       1    1176    1206   -1254    1314       1
    1173    1152    1176    1203       4    1173    1152    1176    1206       4
    1173    1197    1233    1305       1    1173    1200   -1239    1305       1
    1167    1134    1164    1188       4    1167    1134    1164    1191       4
    1164    1188    1221    1281       1    1164    1188    1224    1287       1
    1164    1191    1227    1293       1    1164    1191    1230    1299       1
    1158    1122    1155    1179       4    1158    1122    1155    1182       4
    1155    1179    1209    1257       1    1155    1179    1212    1263       1
    1155    1182    1215    1269       1    1155    1182    1218    1275       1
    1152    1173    1197    1233       1    1152    1173    1200    1239       1
    1152    1176    1203    1248       1    1152    1176    1206    1254       1
    1137    1167    1134    1164       1    1134    1164    1188    1221       4
    1134    1164    1188    1224       4    1134    1164    1191    1227       4
    1134    1164    1191    1230       4    1128    1098    1104    1137       5
    1128    1158    1122    1155       1    1122    1155    1179    1209       4
    1122    1155    1179    1212       4    1122    1155    1182    1215       4
    1122    1155    1182    1218       4    1116    1152    1173    1197       4
    1116    1152    1173    1200       4    1116    1152    1176    1203       4
    1116    1152    1176    1206       4    1110    1116    1152    1173       4
    1110    1116    1152    1176       4    1104    1083    1101    1134       1
    1104    1098    1128    1158       1    1104    1137   -1167    1134       1
    1101    1083    1104    1137       1    1101    1134    1164    1188       4
    1101    1134    1164    1191       4    1101    1134   -1167    1137       1
    1098    1080    1095    1122       1    1098    1104    1083    1101       1
    1098    1104    1137    1167       1    1098    1128   -1158    1122       1
    1095    1080    1098    1104       1    1095    1080    1098    1128       1
    1095    1122    1155    1179       4    1095    1122    1155    1182       4
    1095    1122   -1158    1128       1    1092    1116    1152    1173       4
    1092    1116    1152    1176       4    1089    1074    1077    1092       1
    1089    1110   -1116    1092       1    1089    1110    1116    1152       1
    1083    1059    1077    1092       6    1083    1059    1080    1095       6
    1083    1059   -1080    1098       7    1083    1101    1134    1164       1
    1083    1101    1134    1167       1    1083    1104    1098    1128       5
    1083    1104   -1137    1167       1    1080    1059    1077    1092       6
    1080    1059    1083    1101       6    1080    1059   -1083    1104       7
    1080    1095    1122    1155       1    1080    1095    1122    1158       1
    1080    1098   -1104    1083       5    1080    1098    1104    1137       5
    1080    1098   -1128    1158       1    1077    1059    1080    1095       6
    1077    1059    1080    1098       7    1077    1059    1083    1101       6
    1077    1059    1083    1104       7    1077    1074    1089    1110       1
    1077    1092   -1116    1110       1    1077    1092    1116    1152       1
    1074    1077    1059    1080       7    1074    1077    1059    1083       7
    1074    1077    1092    1116       1    1074    1089   -1110    1116       1
    1059    1032   -1056    1074       1    1059    1077    1074    1089       1
    1059    1077    1092    1116       1    1059    1080    1095    1122       1
    1059    1080   -1098    1104       1    1059    1080    1098    1128       1
    1059    1083    1101    1134       1    1059    1083   -1104    1098       1
    1059    1083    1104    1137       1    1056    1032   -1059    1077       7
    1056    1032    1059    1080       7    1056    1032    1059    1083       7
    1056    1074   -1077    1059       1    1056    1074    1077    1092       1
    1056    1074    1089    1110       1    1050    1065    1086    1107       3
    1044    1065    1086    1107       3    1038    1056    1032    1059       1
    1038    1056    1074    1077       5    1038    1056    1074    1089       5
    1032    1056   -1074    1077       5    1032    1056    1074    1089       5
    1032    1059   -1077    1074       7    1032    1059    1077    1092       6
    1032    1059    1080    1095       6    1032    1059    1080    1098       7
    1032    1059    1083    1101       6    1032    1059    1083    1104       7
    1029    1017    1026    1044       1    1029    1050   -1065    1044       1
    1029    1050    1065    1086       1    1026    1017    1029    1050       1
    1026    1044   -1065    1050       1    1026    1044    1065    1086       1
    1023    1014    1020    1032       1    1023    1038   -1056    1032       1
    1023    1038    1056    1074       1    1020    1014    1023    1038       1
    1020    1032   -1056    1038       1    1020    1032    1056    1074       1
    1020    1032    1059    1077       6    1020    1032    1059    1080       6
    1020    1032    1059    1083       6    1017    1011    1014    1020       4
    1017    1011    1014    1023       4    1017    1026    1044    1065       1
    1017    1029   -1050    1065       1    1014    1011    1017    1026       4
    1014    1011    1017    1029       4    1014    1020    1032    1056       1
    1014    1020    1032    1059       1    1014    1023   -1038    1056       1
    1011    1014    1020    1032       1    1011    1014    1023    1038       1
    1011    1017    1026    1044       1    1011    1017    1029    1050       1
    1002    1011    1014    1020       4    1002    1011    1014    1023       4
    1002    1011    1017    1026       4    1002    1011    1017    1029       4
     996    1002    1011    1014       4     996    1002    1011    1017       4
     990    1002    1011    1014       4     990    1002    1011    1017       4
     978     969     975     990       1     978     996   -1002     990       1
     978     996    1002    1011       1     975     969     978     996       1
     975     990   -1002     996       1     975     990    1002    1011       1
     972     966     969     975       3     972     966     969     978       3
     969     975     990    1002       1     969     978    -996    1002       1
     966     969     975     990       1     966     969     978     996       1
    1782    1833    1857    1875       3    1776    1833    1857    1875       3
    1770    1824    1854    1872       3    1764    1824    1854    1872       3
    1758    1815    1851    1869       3    1752    1815    1851    1869       3
    1746    1809    1848    1866       3    1740    1809    1848    1866       3
    1737    1797    1845    1863       3    1731    1797    1845    1863       3
    1722    1788    1842    1860       3    1716    1788    1842    1860       3
    1713    1674    1710    1776       1    1713    1782   -1833    1776       1
    1713    1782    1833    1857       1    1710    1674    1713    1782       1
    1710    1776   -1833    1782       1    1710    1776    1833    1857       1
    1707    1671    1704    1764       1    1707    1770   -1824    1764       1
    1707    1770    1824    1854       1    1704    1671    1707    1770       1
    1704    1764   -1824    1770       1    1704    1764    1824    1854       1
    1701    1665    1698    1752       1    1701    1758   -1815    1752       1
    1701    1758    1815    1851       1    1698    1665    1701    1758       1
    1698    1752   -1815    1758       1    1698    1752    1815    1851       1
    1695    1662    1692    1740       1    1695    1746   -1809    1740       1
    1695    1746    1809    1848       1    1692    1662    1695    1746       1
    1692    1740   -1809    1746       1    1692    1740    1809    1848       1
    1689    1659    1686    1731       1    1689    1737   -1797    1731       1
    1689    1737    1797    1845       1    1686    1659    1689    1737       1
    1686    1731   -1797    1737       1    1686    1731    1797    1845       1
    1683    1656    1680    1716       1    1683    1722   -1788    1716       1
    1683    1722    1788    1842       1    1680    1656    1683    1722       1
    1680    1716   -1788    1722       1    1680    1716    1788    1842       1
    1674    1647    1671    1704       4    1674    1647    1671    1707       4
    1674    1710    1776    1833       1    1674    1713   -1782    1833       1
    1671    1647    1674    1710       4    1671    1647    1674    1713       4
    1671    1704    1764    1824       1    1671    1707   -1770    1824       1
    1665    1638    1662    1692       4    1665    1638    1662    1695       4
    1665    1698    1752    1815       1    1665    1701   -1758    1815       1
    1662    1638    1665    1698       4    1662    1638    1665    1701       4
    1662    1692    1740    1809       1    1662    1695   -1746    1809       1
    1659    1635    1656    1680       4    1659    1635    1656    1683       4
    1659    1686    1731    1797       1    1659    1689   -1737    1797       1
    1656    1635    1659    1686       4    1656    1635    1659    1689       4
    1656    1680    1716    1788       1    1656    1683   -1722    1788       1
    1650    1617    1647    1671       4    1650    1617    1647    1674       4
    1647    1671    1704    1764       1    1647    1671    1707    1770       1
    1647    1674    1710    1776       1    1647    1674    1713    1782       1
    1641    1605    1638    1662       4    1641    1605    1638    1665       4
    1638    1662    1692    1740       1    1638    1662    1695    1746       1
    1638    1665    1698    1752       1    1638    1665    1701    1758       1
    1635    1656    1680    1716       1    1635    1656    1683    1722       1
    1635    1659    1686    1731       1    1635    1659    1689    1737       1
    1620    1650    1617    1647       1    1617    1647    1671    1704       4
    1617    1647    1671    1707       4    1617    1647    1674    1710       4
    1617    1647    1674    1713       4    1611    1581    1587    1620       5
    1611    1641    1605    1638       1    1605    1638    1662    1692       4
    1605    1638    1662    1695       4    1605    1638    1665    1698       4
    1605    1638    1665    1701       4    1599    1635    1656    1680       4
    1599    1635    1656    1683       4    1599    1635    1659    1686       4
    1599    1635    1659    1689       4    1593    1599    1635    1656       4
    1593    1599    1635    1659       4    1587    1566    1584    1617       1
    1587    1581    1611    1641       1    1587    1620   -1650    1617       1
    1584    1566    1587    1620       1    1584    1617    1647    1671       4
    1584    1617    1647    1674       4    1584    1617   -1650    1620       1
    1581    1563    1578    1605       1    1581    1587    1566    1584       1
    1581    1587    1620    1650       1    1581    1611   -1641    1605       1
    1578    1563    1581    1587       1    1578    1563    1581    1611       1
    1578    1605    1638    1662       4    1578    1605    1638    1665       4
    1578    1605   -1641    1611       1    1575    1599    1635    1656       4
    1575    1599    1635    1659       4    1572    1557    1560    1575       1
    1572    1593   -1599    1575       1    1572    1593    1599    1635       1
    1566    1542    1560    1575       6    1566    1542    1563    1578       6
    1566    1542   -1563    1581       7    1566    1584    1617    1647       1
    1566    1584    1617    1650       1    1566    1587    1581    1611       5
    1566    1587   -1620    1650       1    1563    1542    1560    1575       6
    1563    1542    1566    1584       6    1563    1542   -1566    1587       7
    1563    1578    1605    1638       1    1563    1578    1605    1641       1
    1563    1581   -1587    1566       5    1563    1581    1587    1620       5
    1563    1581   -1611    1641       1    1560    1542    1563    1578       6
    1560    1542    1563    1581       7    1560    1542    1566    1584       6
    1560    1542    1566    1587       7    1560    1557    1572    1593       1
    1560    1575   -1599    1593       1    1560    1575    1599    1635       1
    1557    1560    1542    1563       7    1557    1560    1542    1566       7
    1557    1560    1575    1599       1    1557    1572   -1593    1599       1
    1542    1515   -1539    1557       1    1542    1560    1557    1572       1
    1542    1560    1575    1599       1    1542    1563    1578    1605       1
    1542    1563   -1581    1587       1    1542    1563    1581    1611       1
    1542    1566    1584    1617       1    1542    1566   -1587    1581       1
    1542    1566    1587    1620       1    1539    1515   -1542    1560       7
    1539    1515    1542    1563       7    1539    1515    1542    1566       7
    1539    1557   -1560    1542       1    1539    1557    1560    1575       1
    1539    1557    1572    1593       1    1533    1548    1569    1590       3
    1527    1548    1569    1590       3    1521    1539    1515    1542       1
    1521    1539    1557    1560       5    1521    1539    1557    1572       5
    1515    1539   -1557    1560       5    1515    1539    1557    1572       5
    1515    1542   -1560    1557       7    1515    1542    1560    1575       6
    1515    1542    1563    1578       6    1515    1542    1563    1581       7
    1515    1542    1566    1584       6    1515    1542    1566    1587       7
    1512    1500    1509    1527       1    1512    1533   -1548    1527       1
    1512    1533    1548    1569       1    1509    1500    1512    1533       1
    1509    1527   -1548    1533       1    1509    1527    1548    1569       1
    1506    1497    1503    1515       1    1506    1521   -1539    1515       1
    1506    1521    1539    1557       1    1503    1497    1506    1521       1
    1503    1515   -1539    1521       1    1503    1515    1539    1557       1
    1503    1515    1542    1560       6    1503    1515    1542    1563       6
    1503    1515    1542    1566       6    1500    1494    1497    1503       4
    1500    1494    1497    1506       4    1500    1509    1527    1548       1
    1500    1512   -1533    1548       1    1497    1494    1500    1509       4
    1497    1494    1500    1512       4    1497    1503    1515    1539       1
    1497    1503    1515    1542       1    1497    1506   -1521    1539       1
    1494    1497    1503    1515       1    1494    1497    1506    1521       1
    1494    1500    1509    1527       1    1494    1500    1512    1533       1
    1485    1494    1497    1503       4    1485    1494    1497    1506       4
    1485    1494    1500    1509       4    1485    1494    1500    1512       4
    1479    1485    1494    1497       4    1479    1485    1494    1500       4
    1473    1485    1494    1497       4    1473    1485    1494    1500       4
    1461    1452    1458    1473       1    1461    1479   -1485    1473       1
    1461    1479    1485    1494       1    1458    1452    1461    1479       1
    1458    1473   -1485    1479       1    1458    1473    1485    1494       1
    1455    1449    1452    1458       3    1455    1449    1452    1461       3
    1452    1458    1473    1485       1    1452    1461   -1479    1485       1
    1449    1452    1458    1473       1    1449    1452    1461    1479       1
    2265    2316    2340    2358       3    2259    2316    2340    2358       3
    2253    2307    2337    2355       3    2247    2307    2337    2355       3
    2241    2298    2334    2352       3    2235    2298    2334    2352       3
    2229    2292    2331    2349       3    2223    2292    2331    2349       3
    2220    2280    2328    2346       3    2214    2280    2328    2346       3
    2205    2271    2325    2343       3    2199    2271    2325    2343       3
    2196    2157    2193    2259       1    2196    2265   -2316    2259       1
    2196    2265    2316    2340       1    2193    2157    2196    2265       1
    2193    2259   -2316    2265       1    2193    2259    2316    2340       1
    2190    2154    2187    2247       1    2190    2253   -2307    2247       1
    2190    2253    2307    2337       1    2187    2154    2190    2253       1
    2187    2247   -2307    2253       1    2187    2247    2307    2337       1
    2184    2148    2181    2235       1    2184    2241   -2298    2235       1
    2184    2241    2298    2334       1    2181    2148    2184    2241       1
    2181    2235   -2298    2241       1    2181    2235    2298    2334       1
    2178    2145    2175    2223       1    2178    2229   -2292    2223       1
    2178    2229    2292    2331       1    2175    2145    2178    2229       1
    2175    2223   -2292    2229       1    2175    2223    2292    2331       1
    2172    2142    2169    2214       1    2172    2220   -2280    2214       1
    2172    2220    2280    2328       1    2169    2142    2172    2220       1
    2169    2214   -2280    2220       1    2169    2214    2280    2328       1
    2166    2139    2163    2199       1    2166    2205   -2271    2199       1
    2166    2205    2271    2325       1    2163    2139    2166    2205       1
    2163    2199   -2271    2205       1    2163    2199    2271    2325       1
    2157    2130    2154    2187       4    2157    2130    2154    2190       4
    2157    2193    2259    2316       1    2157    2196   -2265    2316       1
    2154    2130    2157    2193       4    2154    2130    2157    2196       4
    2154    2187    2247    2307       1    2154    2190   -2253    2307       1
    2148    2121    2145    2175       4    2148    2121    2145    2178       4
    2148    2181    2235    2298       1    2148    2184   -2241    2298       1
    2145    2121    2148    2181       4    2145    2121    2148    2184       4
    2145    2175    2223    2292       1    2145    2178   -2229    2292       1
    2142    2118    2139    2163       4    2142    2118    2139    2166       4
    2142    2169    2214    2280       1    2142    2172   -2220    2280       1
    2139    2118    2142    2169       4    2139    2118    2142    2172       4
    2139    2163    2199    2271       1    2139    2166   -2205    2271       1
    2133    2100    2130    2154       4    2133    2100    2130    2157       4
    2130    2154    2187    2247       1    2130    2154    2190    2253       1
    2130    2157    2193    2259       1    2130    2157    2196    2265       1
    2124    2088    2121    2145       4    2124    2088    2121    2148       4
    2121    2145    2175    2223       1    2121    2145    2178    2229       1
    2121    2148    2181    2235       1    2121    2148    2184    2241       1
    2118    2139    2163    2199       1    2118    2139    2166    2205       1
    2118    2142    2169    2214       1    2118    2142    2172    2220       1
    2103    2133    2100    2130       1    2100    2130    2154    2187       4
    2100    2130    2154    2190       4    2100    2130    2157    2193       4
    2100    2130    2157    2196       4    2094    2064    2070    2103       5
    2094    2124    2088    2121       1    2088    2121    2145    2175       4
    2088    2121    2145    2178       4    2088    2121    2148    2181       4
    2088    2121    2148    2184       4    2082    2118    2139    2163       4
    2082    2118    2139    2166       4    2082    2118    2142    2169       4
    2082    2118    2142    2172       4    2076    2082    2118    2139       4
    2076    2082    2118    2142       4    2070    2049    2067    2100       1
    2070    2064    2094    2124       1    2070    2103   -2133    2100       1
    2067    2049    2070    2103       1    2067    2100    2130    2154       4
    2067    2100    2130    2157       4    2067    2100   -2133    2103       1
    2064    2046    2061    2088       1    2064    2070    2049    2067       1
    2064    2070    2103    2133       1    2064    2094   -2124    2088       1
    2061    2046    2064    2070       1    2061    2046    2064    2094       1
    2061    2088    2121    2145       4    2061    2088    2121    2148       4
    2061    2088   -2124    2094       1    2058    2082    2118    2139       4
    2058    2082    2118    2142       4    2055    2040    2043    2058       1
    2055    2076   -2082    2058       1    2055    2076    2082    2118       1
    2049    2025    2043    2058       6    2049    2025    2046    2061       6
    2049    2025   -2046    2064       7    2049    2067    2100    2130       1
    2049    2067    2100    2133       1    2049    2070    2064    2094       5
    2049    2070   -2103    2133       1    2046    2025    2043    2058       6
    2046    2025    2049    2067       6    2046    2025   -2049    2070       7
    2046    2061    2088    2121       1    2046    2061    2088    2124       1
    2046    2064   -2070    2049       5    2046    2064    2070    2103       5
    2046    2064   -2094    2124       1    2043    2025    2046    2061       6
    2043    2025    2046    2064       7    2043    2025    2049    2067       6
    2043    2025    2049    2070       7    2043    2040    2055    2076       1
    2043    2058   -2082    2076       1    2043    2058    2082    2118       1
    2040    2043    2025    2046       7    2040    2043    2025    2049       7
    2040    2043    2058    2082       1    2040    2055   -2076    2082       1
    2025    1998   -2022    2040       1    2025    2043    2040    2055       1
    2025    2043    2058    2082       1    2025    2046    2061    2088       1
    2025    2046   -2064    2070       1    2025    2046    2064    2094       1
    2025    2049    2067    2100       1    2025    2049   -2070    2064       1
    2025    2049    2070    2103       1    2022    1998   -2025    2043       7
    2022    1998    2025    2046       7    2022    1998    2025    2049       7
    2022    2040   -2043    2025       1    2022    2040    2043    2058       1
    2022    2040    2055    2076       1    2016    2031    2052    2073       3
    2010    2031    2052    2073       3    2004    2022    1998    2025       1
    2004    2022    2040    2043       5    2004    2022    2040    2055       5
    1998    2022   -2040    2043       5    1998    2022    2040    2055       5
    1998    2025   -2043    2040       7    1998    2025    2043    2058       6
    1998    2025    2046    2061       6    1998    2025    2046    2064       7
    1998    2025    2049    2067       6    1998    2025    2049    2070       7
    1995    1983    1992    2010       1    1995    2016   -2031    2010       1
    1995    2016    2031    2052       1    1992    1983    1995    2016       1
    1992    2010   -2031    2016       1    1992    2010    2031    2052       1
    1989    1980    1986    1998       1    1989    2004   -2022    1998       1
    1989    2004    2022    2040       1    1986    1980    1989    2004       1
    1986    1998   -2022    2004       1    1986    1998    2022    2040       1
    1986    1998    2025    2043       6    1986    1998    2025    2046       6
    1986    1998    2025    2049       6    1983    1977    1980    1986       4
    1983    1977    1980    1989       4    1983    1992    2010    2031       1
    1983    1995   -2016    2031       1    1980    1977    1983    1992       4
    1980    1977    1983    1995       4    1980    1986    1998    2022       1
    1980    1986    1998    2025       1    1980    1989   -2004    2022       1
    1977    1980    1986    1998       1    1977    1980    1989    2004       1
    1977    1983    1992    2010       1    1977    1983    1995    2016       1
    1968    1977    1980    1986       4    1968    1977    1980    1989       4
    1968    1977    1983    1992       4    1968    1977    1983    1995       4
    1962    1968    1977    1980       4    1962    1968    1977    1983       4
    1956    1968    1977    1980       4    1956    1968    1977    1983       4
    1944    1935    1941    1956       1    1944    1962   -1968    1956       1
    1944    1962    1968    1977       1    1941    1935    1944    1962       1
    1941    1956   -1968    1962       1    1941    1956    1968    1977       1
    1938    1932    1935    1941       3    1938    1932    1935    1944       3
    1935    1941    1956    1968       1    1935    1944   -1962    1968       1
    1932    1935    1941    1956       1    1932    1935    1944    1962       1
    2748    2799    2823    2841       3    2742    2799    2823    2841       3
    2736    2790    2820    2838       3    2730    2790    2820    2838       3
    2724    2781    2817    2835       3    2718    2781    2817    2835       3
    2712    2775    2814    2832       3    2706    2775    2814    2832       3
    2703    2763    2811    2829       3    2697    2763    2811    2829       3
    2688    2754    2808    2826       3    2682    2754    2808    2826       3
    2679    2640    2676    2742       1    2679    2748   -2799    2742       1
    2679    2748    2799    2823       1    2676    2640    2679    2748       1
    2676    2742   -2799    2748       1    2676    2742    2799    2823       1
    2673    2637    2670    2730       1    2673    2736   -2790    2730       1
    2673    2736    2790    2820       1    2670    2637    2673    2736       1
    2670    2730   -2790    2736       1    2670    2730    2790    2820       1
    2667    2631    2664    2718       1    2667    2724   -2781    2718       1
    2667    2724    2781    2817       1    2664    2631    2667    2724       1
    2664    2718   -2781    2724       1    2664    2718    2781    2817       1
    2661    2628    2658    2706       1    2661    2712   -2775    2706       1
    2661    2712    2775    2814       1    2658    2628    2661    2712       1
    2658    2706   -2775    2712       1    2658    2706    2775    2814       1
    2655    2625    2652    2697       1    2655    2703   -2763    2697       1
    2655    2703    2763    2811       1    2652    2625    2655    2703       1
    2652    2697   -2763    2703       1    2652    2697    2763    2811       1
    2649    2622    2646    2682       1    2649    2688   -2754    2682       1
    2649    2688    2754    2808       1    2646    2622    2649    2688       1
    2646    2682   -2754    2688       1    2646    2682    2754    2808       1
    2640    2613    2637    2670       4    2640    2613    2637    2673       4
    2640    2676    2742    2799       1    2640    2679   -2748    2799       1
    2637    2613    2640    2676       4    2637    2613    2640    2679       4
    2637    2670    2730    2790       1    2637    2673   -2736    2790       1
    2631    2604    2628    2658       4    2631    2604    2628    2661       4
    2631    2664    2718    2781       1    2631    2667   -2724    2781       1
    2628    2604    2631    2664       4    2628    2604    2631    2667       4
    2628    2658    2706    2775       1    2628    2661   -2712    2775       1
    2625    2601    2622    2646       4    2625    2601    2622    2649       4
    2625    2652    2697    2763       1    2625    2655   -2703    2763       1
    2622    2601    2625    2652       4    2622    2601    2625    2655       4
    2622    2646    2682    2754       1    2622    2649   -2688    2754       1
    2616    2583    2613    2637       4    2616    2583    2613    2640       4
    2613    2637    2670    2730       1    2613    2637    2673    2736       1
    2613    2640    2676    2742       1    2613    2640    2679    2748       1
    2607    2571    2604    2628       4    2607    2571    2604    2631       4
    2604    2628    2658    2706       1    2604    2628    2661    2712       1
    2604    2631    2664    2718       1    2604    2631    2667    2724       1
    2601    2622    2646    2682       1    2601    2622    2649    2688       1
    2601    2625    2652    2697       1    2601    2625    2655    2703       1
    2586    2616    2583    2613       1    2583    2613    2637    2670       4
    2583    2613    2637    2673       4    2583    2613    2640    2676       4
    2583    2613    2640    2679       4    2577    2547    2553    2586       5
    2577    2607    2571    2604       1    2571    2604    2628    2658       4
    2571    2604    2628    2661       4    2571    2604    2631    2664       4
    2571    2604    2631    2667       4    2565    2601    2622    2646       4
    2565    2601    2622    2649       4    2565    2601    2625    2652       4
    2565    2601    2625    2655       4    2559    2565    2601    2622       4
    2559    2565    2601    2625       4    2553    2532    2550    2583       1
    2553    2547    2577    2607       1    2553    2586   -2616    2583       1
    2550    2532    2553    2586       1    2550    2583    2613    2637       4
    2550    2583    2613    2640       4    2550    2583   -2616    2586       1
    2547    2529    2544    2571       1    2547    2553    2532    2550       1
    2547    2553    2586    2616       1    2547    2577   -2607    2571       1
    2544    2529    2547    2553       1    2544    2529    2547    2577       1
    2544    2571    2604    2628       4    2544    2571    2604    2631       4
    2544    2571   -2607    2577       1    2541    2565    2601    2622       4
    2541    2565    2601    2625       4    2538    2523    2526    2541       1
    2538    2559   -2565    2541       1    2538    2559    2565    2601       1
    2532    2508    2526    2541       6    2532    2508    2529    2544       6
    2532    2508   -2529    2547       7    2532    2550    2583    2613       1
    2532    2550    2583    2616       1    2532    2553    2547    2577       5
    2532    2553   -2586    2616       1    2529    2508    2526    2541       6
    2529    2508    2532    2550       6    2529    2508   -2532    2553       7
    2529    2544    2571    2604       1    2529    2544    2571    2607       1
    2529    2547   -2553    2532       5    2529    2547    2553    2586       5
    2529    2547   -2577    2607       1    2526    2508    2529    2544       6
    2526    2508    2529    2547       7    2526    2508    2532    2550       6
    2526    2508    2532    2553       7    2526    2523    2538    2559       1
    2526    2541   -2565    2559       1    2526    2541    2565    2601       1
    2523    2526    2508    2529       7    2523    2526    2508    2532       7
    2523    2526    2541    2565       1    2523    2538   -2559    2565       1
    2508    2481   -2505    2523       1    2508    2526    2523    2538       1
    2508    2526    2541    2565       1    2508    2529    2544    2571       1
    2508    2529   -2547    2553       1    2508    2529    2547    2577       1
    2508    2532    2550    2583       1    2508    2532   -2553    2547       1
    2508    2532    2553    2586       1    2505    2481   -2508    2526       7
    2505    2481    2508    2529       7    2505    2481    2508    2532       7
    2505    2523   -2526    2508       1    2505    2523    2526    2541       1
    2505    2523    2538    2559       1    2499    2514    2535    2556       3
    2493    2514    2535    2556       3    2487    2505    2481    2508       1
    2487    2505    2523    2526       5    2487    2505    2523    2538       5
    2481    2505   -2523    2526       5    2481    2505    2523    2538       5
    2481    2508   -2526    2523       7    2481    2508    2526    2541       6
    2481    2508    2529    2544       6    2481    2508    2529    2547       7
    2481    2508    2532    2550       6    2481    2508    2532    2553       7
    2478    2466    2475    2493       1    2478    2499   -2514    2493       1
    2478    2499    2514    2535       1    2475    2466    2478    2499       1
    2475    2493   -2514    2499       1    2475    2493    2514    2535       1
    2472    2463    2469    2481       1    2472    2487   -2505    2481       1
    2472    2487    2505    2523       1    2469    2463    2472    2487       1
    2469    2481   -2505    2487       1    2469    2481    2505    2523       1
    2469    2481    2508    2526       6    2469    2481    2508    2529       6
    2469    2481    2508    2532       6    2466    2460    2463    2469       4
    2466    2460    2463    2472       4    2466    2475    2493    2514       1
    2466    2478   -2499    2514       1    2463    2460    2466    2475       4
    2463    2460    2466    2478       4    2463    2469    2481    2505       1
    2463    2469    2481    2508       1    2463    2472   -2487    2505       1
    2460    2463    2469    2481       1    2460    2463    2472    2487       1
    2460    2466    2475    2493       1    2460    2466    2478    2499       1
    2451    2460    2463    2469       4    2451    2460    2463    2472       4
    2451    2460    2466    2475       4    2451    2460    2466    2478       4
    2445    2451    2460    2463       4    2445    2451    2460    2466       4
    2439    2451    2460    2463       4    2439    2451    2460    2466       4
    2427    2418    2424    2439       1    2427    2445   -2451    2439       1
    2427    2445    2451    2460       1    2424    2418    2427    2445       1
    2424    2439   -2451    2445       1    2424    2439    2451    2460       1
    2421    2415    2418    2424       3    2421    2415    2418    2427       3
    2418    2424    2439    2451       1    2418    2427   -2445    2451       1
    2415    2418    2424    2439       1    2415    2418    2427    2445       1
    3231    3282    3306    3324       3    3225    3282    3306    3324       3
    3219    3273    3303    3321       3    3213    3273    3303    3321       3
    3207    3264    3300    3318       3    3201    3264    3300    3318       3
    3195    3258    3297    3315       3    3189    3258    3297    3315       3
    3186    3246    3294    3312       3    3180    3246    3294    3312       3
    3171    3237    3291    3309       3    3165    3237    3291    3309       3
    3162    3123    3159    3225       1    3162    3231   -3282    3225       1
    3162    3231    3282    3306       1    3159    3123    3162    3231       1
    3159    3225   -3282    3231       1    3159    3225    3282    3306       1
    3156    3120    3153    3213       1    3156    3219   -3273    3213       1
    3156    3219    3273    3303       1    3153    3120    3156    3219       1
    3153    3213   -3273    3219       1    3153    3213    3273    3303       1
    3150    3114    3147    3201       1    3150    3207   -3264    3201       1
    3150    3207    3264    3300       1    3147    3114    3150    3207       1
    3147    3201   -3264    3207       1    3147    3201    3264    3300       1
    3144    3111    3141    3189       1    3144    3195   -3258    3189       1
    3144    3195    3258    3297       1    3141    3111    3144    3195       1
    3141    3189   -3258    3195       1    3141    3189    3258    3297       1
    3138    3108    3135    3180       1    3138    3186   -3246    3180       1
    3138    3186    3246    3294       1    3135    3108    3138    3186       1
    3135    3180   -3246    3186       1    3135    3180    3246    3294       1
    3132    3105    3129    3165       1    3132    3171   -3237    3165       1
    3132    3171    3237    3291       1    3129    3105    3132    3171       1
    3129    3165   -3237    3171       1    3129    3165    3237    3291       1
    3123    3096    3120    3153       4    3123    3096    3120    3156       4
    3123    3159    3225    3282       1    3123    3162   -3231    3282       1
    3120    3096    3123    3159       4    3120    3096    3123    3162       4
    3120    3153    3213    3273       1    3120    3156   -3219    3273       1
    3114    3087    3111    3141       4    3114    3087    3111    3144       4
    3114    3147    3201    3264       1    3114    3150   -3207    3264       1
    3111    3087    3114    3147       4    3111    3087    3114    3150       4
    3111    3141    3189    3258       1    3111    3144   -3195    3258       1
    3108    3084    3105    3129       4    3108    3084    3105    3132       4
    3108    3135    3180    3246       1    3108    3138   -3186    3246       1
    3105    3084    3108    3135       4    3105    3084    3108    3138       4
    3105    3129    3165    3237       1    3105    3132   -3171    3237       1
    3099    3066    3096    3120       4    3099    3066    3096    3123       4
    3096    3120    3153    3213       1    3096    3120    3156    3219       1
    3096    3123    3159    3225       1    3096    3123    3162    3231       1
    3090    3054    3087    3111       4    3090    3054    3087    3114       4
    3087    3111    3141    3189       1    3087    3111    3144    3195       1
    3087    3114    3147    3201       1    3087    3114    3150    3207       1
    3084    3105    3129    3165       1    3084    3105    3132    3171       1
    3084    3108    3135    3180       1    3084    3108    3138    3186       1
    3069    3099    3066    3096       1    3066    3096    3120    3153       4
    3066    3096    3120    3156       4    3066    3096    3123    3159       4
    3066    3096    3123    3162       4    3060    3030    3036    3069       5
    3060    3090    3054    3087       1    3054    3087    3111    3141       4
    3054    3087    3111    3144       4    3054    3087    3114    3147       4
    3054    3087    3114    3150       4    3048    3084    3105    3129       4
    3048    3084    3105    3132       4    3048    3084    3108    3135       4
    3048    3084    3108    3138       4    3042    3048    3084    3105       4
    3042    3048    3084    3108       4    3036    3015    3033    3066       1
    3036    3030    3060    3090       1    3036    3069   -3099    3066       1
    3033    3015    3036    3069       1    3033    3066    3096    3120       4
    3033    3066    3096    3123       4    3033    3066   -3099    3069       1
    3030    3012    3027    3054       1    3030    3036    3015    3033       1
    3030    3036    3069    3099       1    3030    3060   -3090    3054       1
    3027    3012    3030    3036       1    3027    3012    3030    3060       1
    3027    3054    3087    3111       4    3027    3054    3087    3114       4
    3027    3054   -3090    3060       1    3024    3048    3084    3105       4
    3024    3048    3084    3108       4    3021    3006    3009    3024       1
    3021    3042   -3048    3024       1    3021    3042    3048    3084       1
    3015    2991    3009    3024       6    3015    2991    3012    3027       6
    3015    2991   -3012    3030       7    3015    3033    3066    3096       1
    3015    3033    3066    3099       1    3015    3036    3030    3060       5
    3015    3036   -3069    3099       1    3012    2991    3009    3024       6
    3012    2991    3015    3033       6    3012    2991   -3015    3036       7
    3012    3027    3054    3087       1    3012    3027    3054    3090       1
    3012    3030   -3036    3015       5    3012    3030    3036    3069       5
    3012    3030   -3060    3090       1    3009    2991    3012    3027       6
    3009    2991    3012    3030       7    3009    2991    3015    3033       6
    3009    2991    3015    3036       7    3009    3006    3021    3042       1
    3009    3024   -3048    3042       1    3009    3024    3048    3084       1
    3006    3009    2991    3012       7    3006    3009    2991    3015       7
    3006    3009    3024    3048       1    3006    3021   -3042    3048       1
    2991    2964   -2988    3006       1    2991    3009    3006    3021       1
    2991    3009    3024    3048       1    2991    3012    3027    3054       1
    2991    3012   -3030    3036       1    2991    3012    3030    3060       1
    2991    3015    3033    3066       1    2991    3015   -3036    3030       1
    2991    3015    3036    3069       1    2988    2964   -2991    3009       7
    2988    2964    2991    3012       7    2988    2964    2991    3015       7
    2988    3006   -3009    2991       1    2988    3006    3009    3024       1
    2988    3006    3021    3042       1    2982    2997    3018    3039       3
    2976    2997    3018    3039       3    2970    2988    2964    2991       1
    2970    2988    3006    3009       5    2970    2988    3006    3021       5
    2964    2988   -3006    3009       5    2964    2988    3006    3021       5
    2964    2991   -3009    3006       7    2964    2991    3009    3024       6
    2964    2991    3012    3027       6    2964    2991    3012    3030       7
    2964    2991    3015    3033       6    2964    2991    3015    3036       7
    2961    2949    2958    2976       1    2961    2982   -2997    2976       1
    2961    2982    2997    3018       1    2958    2949    2961    2982       1
    2958    2976   -2997    2982       1    2958    2976    2997    3018       1
    2955    2946    2952    2964       1    2955    2970   -2988    2964       1
    2955    2970    2988    3006       1    2952    2946    2955    2970       1
    2952    2964   -2988    2970       1    2952    2964    2988    3006       1
    2952    2964    2991    3009       6    2952    2964    2991    3012       6
    2952    2964    2991    3015       6    2949    2943    2946    2952       4
    2949    2943    2946    2955       4    2949    2958    2976    2997       1
    2949    2961   -2982    2997       1    2946    2943    2949    2958       4
    2946    2943    2949    2961       4    2946    2952    2964    2988       1
    2946    2952    2964    2991       1    2946    2955   -2970    2988       1
    2943    2946    2952    2964       1    2943    2946    2955    2970       1
    2943    2949    2958    2976       1    2943    2949    2961    2982       1
    2934    2943    2946    2952       4    2934    2943    2946    2955       4
    2934    2943    2949    2958       4    2934    2943    2949    2961       4
    2928    2934    2943    2946       4    2928    2934    2943    2949       4
    2922    2934    2943    2946       4    2922    2934    2943    2949       4
    2910    2901    2907    2922       1    2910    2928   -2934    2922       1
    2910    2928    2934    2943       1    2907    2901    2910    2928       1
    2907    2922   -2934    2928       1    2907    2922    2934    2943       1
    2904    2898    2901    2907       3    2904    2898    2901    2910       3
    2901    2907    2922    2934       1    2901    2910   -2928    2934       1
    2898    2901    2907    2922       1    2898    2901    2910    2928       1
    3714    3765    3789    3807       3    3708    3765    3789    3807       3
    3702    3756    3786    3804       3    3696    3756    3786    3804       3
    3690    3747    3783    3801       3    3684    3747    3783    3801       3
    3678    3741    3780    3798       3    3672    3741    3780    3798       3
    3669    3729    3777    3795       3    3663    3729    3777    3795       3
    3654    3720    3774    3792       3    3648    3720    3774    3792       3
    3645    3606    3642    3708       1    3645    3714   -3765    3708       1
    3645    3714    3765    3789       1    3642    3606    3645    3714       1
    3642    3708   -3765    3714       1    3642    3708    3765    3789       1
    3639    3603    3636    3696       1    3639    3702   -3756    3696       1
    3639    3702    3756    3786       1    3636    3603    3639    3702       1
    3636    3696   -3756    3702       1    3636    3696    3756    3786       1
    3633    3597    3630    3684       1    3633    3690   -3747    3684       1
    3633    3690    3747    3783       1    3630    3597    3633    3690       1
    3630    3684   -3747    3690       1    3630    3684    3747    3783       1
    3627    3594    3624    3672       1    3627    3678   -3741    3672       1
    3627    3678    3741    3780       1    3624    3594    3627    3678       1
    3624    3672   -3741    3678       1    3624    3672    3741    3780       1
    3621    3591    3618    3663       1    3621    3669   -3729    3663       1
    3621    3669    3729    3777       1    3618    3591    3621    3669       1
    3618    3663   -3729    3669       1    3618    3663    3729    3777       1
    3615    3588    3612    3648       1    3615    3654   -3720    3648       1
    3615    3654    3720    3774       1    3612    3588    3615    3654       1
    3612    3648   -3720    3654       1    3612    3648    3720    3774       1
    3606    3579    3603    3636       4    3606    3579    3603    3639       4
    3606    3642    3708    3765       1    3606    3645   -3714    3765       1
    3603    3579    3606    3642       4    3603    3579    3606    3645       4
    3603    3636    3696    3756       1    3603    3639   -3702    3756       1
    3597    3570    3594    3624       4    3597    3570    3594    3627       4
    3597    3630    3684    3747       1    3597    3633   -3690    3747       1
    3594    3570    3597    3630       4    3594    3570    3597    3633       4
    3594    3624    3672    3741       1    3594    3627   -3678    3741       1
    3591    3567    3588    3612       4    3591    3567    3588    3615       4
    3591    3618    3663    3729       1    3591    3621   -3669    3729       1
    3588    3567    3591    3618       4    3588    3567    3591    3621       4
    3588    3612    3648    3720       1    3588    3615   -3654    3720       1
    3582    3549    3579    3603       4    3582    3549    3579    3606       4
    3579    3603    3636    3696       1    3579    3603    3639    3702       1
    3579    3606    3642    3708       1    3579    3606    3645    3714       1
    3573    3537    3570    3594       4    3573    3537    3570    3597       4
    3570    3594    3624    3672       1    3570    3594    3627    3678       1
    3570    3597    3630    3684       1    3570    3597    3633    3690       1
    3567    3588    3612    3648       1    3567    3588    3615    3654       1
    3567    3591    3618    3663       1    3567    3591    3621    3669       1
    3552    3582    3549    3579       1    3549    3579    3603    3636       4
    3549    3579    3603    3639       4    3549    3579    3606    3642       4
    3549    3579    3606    3645       4    3543    3513    3519    3552       5
    3543    3573    3537    3570       1    3537    3570    3594    3624       4
    3537    3570    3594    3627       4    3537    3570    3597    3630       4
    3537    3570    3597    3633       4    3531    3567    3588    3612       4
    3531    3567    3588    3615       4    3531    3567    3591    3618       4
    3531    3567    3591    3621       4    3525    3531    3567    3588       4
    3525    3531    3567    3591       4    3519    3498    3516    3549       1
    3519    3513    3543    3573       1    3519    3552   -3582    3549       1
    3516    3498    3519    3552       1    3516    3549    3579    3603       4
    3516    3549    3579    3606       4    3516    3549   -3582    3552       1
    3513    3495    3510    3537       1    3513    3519    3498    3516       1
    3513    3519    3552    3582       1    3513    3543   -3573    3537       1
    3510    3495    3513    3519       1    3510    3495    3513    3543       1
    3510    3537    3570    3594       4    3510    3537    3570    3597       4
    3510    3537   -3573    3543       1    3507    3531    3567    3588       4
    3507    3531    3567    3591       4    3504    3489    3492    3507       1
    3504    3525   -3531    3507       1    3504    3525    3531    3567       1
    3498    3474    3492    3507       6    3498    3474    3495    3510       6
    3498    3474   -3495    3513       7    3498    3516    3549    3579       1
    3498    3516    3549    3582       1    3498    3519    3513    3543       5
    3498    3519   -3552    3582       1    3495    3474    3492    3507       6
    3495    3474    3498    3516       6    3495    3474   -3498    3519       7
    3495    3510    3537    3570       1    3495    3510    3537    3573       1
    3495    3513   -3519    3498       5    3495    3513    3519    3552       5
    3495    3513   -3543    3573       1    3492    3474    3495    3510       6
    3492    3474    3495    3513       7    3492    3474    3498    3516       6
    3492    3474    3498    3519       7    3492    3489    3504    3525       1
    3492    3507   -3531    3525       1    3492    3507    3531    3567       1
    3489    3492    3474    3495       7    3489    3492    3474    3498       7
    3489    3492    3507    3531       1    3489    3504   -3525    3531       1
    3474    3447   -3471    3489       1    3474    3492    3489    3504       1
    3474    3492    3507    3531       1    3474    3495    3510    3537       1
    3474    3495   -3513    3519       1    3474    3495    3513    3543       1
    3474    3498    3516    3549       1    3474    3498   -3519    3513       1
    3474    3498    3519    3552       1    3471    3447   -3474    3492       7
    3471    3447    3474    3495       7    3471    3447    3474    3498       7
    3471    3489   -3492    3474       1    3471    3489    3492    3507       1
    3471    3489    3504    3525       1    3465    3480    3501    3522       3
    3459    3480    3501    3522       3    3453    3471    3447    3474       1
    3453    3471    3489    3492       5    3453    3471    3489    3504       5
    3447    3471   -3489    3492       5    3447    3471    3489    3504       5
    3447    3474   -3492    3489       7    3447    3474    3492    3507       6
    3447    3474    3495    3510       6    3447    3474    3495    3513       7
    3447    3474    3498    3516       6    3447    3474    3498    3519       7
    3444    3432    3441    3459       1    3444    3465   -3480    3459       1
    3444    3465    3480    3501       1    3441    3432    3444    3465       1
    3441    3459   -3480    3465       1    3441    3459    3480    3501       1
    3438    3429    3435    3447       1    3438    3453   -3471    3447       1
    3438    3453    3471    3489       1    3435    3429    3438    3453       1
    3435    3447   -3471    3453       1    3435    3447    3471    3489       1
    3435    3447    3474    3492       6    3435    3447    3474    3495       6
    3435    3447    3474    3498       6    3432    3426    3429    3435       4
    3432    3426    3429    3438       4    3432    3441    3459    3480       1
    3432    3444   -3465    3480       1    3429    3426    3432    3441       4
    3429    3426    3432    3444       4    3429    3435    3447    3471       1
    3429    3435    3447    3474       1    3429    3438   -3453    3471       1
    3426    3429    3435    3447       1    3426    3429    3438    3453       1
    3426    3432    3441    3459       1    3426    3432    3444    3465       1
    3417    3426    3429    3435       4    3417    3426    3429    3438       4
    3417    3426    3432    3441       4    3417    3426    3432    3444       4
    3411    3417    3426    3429       4    3411    3417    3426    3432       4
    3405    3417    3426    3429       4    3405    3417    3426    3432       4
    3393    3384    3390    3405       1    3393    3411   -3417    3405       1
    3393    3411    3417    3426       1    3390    3384    3393    3411       1
    3390    3405   -3417    3411       1    3390    3405    3417    3426       1
    3387    3381    3384    3390       3    3387    3381    3384    3393       3
    3384    3390    3405    3417       1    3384    3393   -3411    3417       1
    3381    3384    3390    3405       1    3381    3384    3393    3411       1
    4197    4248    4272    4290       3    4191    4248    4272    4290       3
    4185    4239    4269    4287       3    4179    4239    4269    4287       3
    4173    4230    4266    4284       3    4167    4230    4266    4284       3
    4161    4224    4263    4281       3    4155    4224    4263    4281       3
    4152    4212    4260    4278       3    4146    4212    4260    4278       3
    4137    4203    4257    4275       3    4131    4203    4257    4275       3
    4128    4089    4125    4191       1    4128    4197   -4248    4191       1
    4128    4197    4248    4272       1    4125    4089    4128    4197       1
    4125    4191   -4248    4197       1    4125    4191    4248    4272       1
    4122    4086    4119    4179       1    4122    4185   -4239    4179       1
    4122    4185    4239    4269       1    4119    4086    4122    4185       1
    4119    4179   -4239    4185       1    4119    4179    4239    4269       1
    4116    4080    4113    4167       1    4116    4173   -4230    4167       1
    4116    4173    4230    4266       1    4113    4080    4116    4173       1
    4113    4167   -4230    4173       1    4113    4167    4230    4266       1
    4110    4077    4107    4155       1    4110    4161   -4224    4155       1
    4110    4161    4224    4263       1    4107    4077    4110    4161       1
    4107    4155   -4224    4161       1    4107    4155    4224    4263       1
    4104    4074    4101    4146       1    4104    4152   -4212    4146       1
    4104    4152    4212    4260       1    4101    4074    4104    4152       1
    4101    4146   -4212    4152       1    4101    4146    4212    4260       1
    4098    4071    4095    4131       1    4098    4137   -4203    4131       1
    4098    4137    4203    4257       1    4095    4071    4098    4137       1
    4095    4131   -4203    4137       1    4095    4131    4203    4257       1
    4089    4062    4086    4119       4    4089    4062    4086    4122       4
    4089    4125    4191    4248       1    4089    4128   -4197    4248       1
    4086    4062    4089    4125       4    4086    4062    4089    4128       4
    4086    4119    4179    4239       1    4086    4122   -4185    4239       1
    4080    4053    4077    4107       4    4080    4053    4077    4110       4
    4080    4113    4167    4230       1    4080    4116   -4173    4230       1
    4077    4053    4080    4113       4    4077    4053    4080    4116       4
    4077    4107    4155    4224       1    4077    4110   -4161    4224       1
    4074    4050    4071    4095       4    4074    4050    4071    4098       4
    4074    4101    4146    4212       1    4074    4104   -4152    4212       1
    4071    4050    4074    4101       4    4071    4050    4074    4104       4
    4071    4095    4131    4203       1    4071    4098   -4137    4203       1
    4065    4032    4062    4086       4    4065    4032    4062    4089       4
    4062    4086    4119    4179       1    4062    4086    4122    4185       1
    4062    4089    4125    4191       1    4062    4089    4128    4197       1
    4056    4020    4053    4077       4    4056    4020    4053    4080       4
    4053    4077    4107    4155       1    4053    4077    4110    4161       1
    4053    4080    4113    4167       1    4053    4080    4116    4173       1
    4050    4071    4095    4131       1    4050    4071    4098    4137       1
    4050    4074    4101    4146       1    4050    4074    4104    4152       1
    4035    4065    4032    4062       1    4032    4062    4086    4119       4
    4032    4062    4086    4122       4    4032    4062    4089    4125       4
    4032    4062    4089    4128       4    4026    3996    4002    4035       5
    4026    4056    4020    4053       1    4020    4053    4077    4107       4
    4020    4053    4077    4110       4    4020    4053    4080    4113       4
    4020    4053    4080    4116       4    4014    4050    4071    4095       4
    4014    4050    4071    4098       4    4014    4050    4074    4101       4
    4014    4050    4074    4104       4    4008    4014    4050    4071       4
    4008    4014    4050    4074       4    4002    3981    3999    4032       1
    4002    3996    4026    4056       1    4002    4035   -4065    4032       1
    3999    3981    4002    4035       1    3999    4032    4062    4086       4
    3999    4032    4062    4089       4    3999    4032   -4065    4035       1
    3996    3978    3993    4020       1    3996    4002    3981    3999       1
    3996    4002    4035    4065       1    3996    4026   -4056    4020       1
    3993    3978    3996    4002       1    3993    3978    3996    4026       1
    3993    4020    4053    4077       4    3993    4020    4053    4080       4
    3993    4020   -4056    4026       1    3990    4014    4050    4071       4
    3990    4014    4050    4074       4    3987    3972    3975    3990       1
    3987    4008   -4014    3990       1    3987    4008    4014    4050       1
    3981    3957    3975    3990       6    3981    3957    3978    3993       6
    3981    3957   -3978    3996       7    3981    3999    4032    4062       1
    3981    3999    4032    4065       1    3981    4002    3996    4026       5
    3981    4002   -4035    4065       1    3978    3957    3975    3990       6
    3978    3957    3981    3999       6    3978    3957   -3981    4002       7
    3978    3993    4020    4053       1    3978    3993    4020    4056       1
    3978    3996   -4002    3981       5    3978    3996    4002    4035       5
    3978    3996   -4026    4056       1    3975    3957    3978    3993       6
    3975    3957    3978    3996       7    3975    3957    3981    3999       6
    3975    3957    3981    4002       7    3975    3972    3987    4008       1
    3975    3990   -4014    4008       1    3975    3990    4014    4050       1
    3972    3975    3957    3978       7    3972    3975    3957    3981       7
    3972    3975    3990    4014       1    3972    3987   -4008    4014       1
    3957    3930   -3954    3972       1    3957    3975    3972    3987       1
    3957    3975    3990    4014       1    3957    3978    3993    4020       1
    3957    3978   -3996    4002       1    3957    3978    3996    4026       1
    3957    3981    3999    4032       1    3957    3981   -4002    3996       1
    3957    3981    4002    4035       1    3954    3930   -3957    3975       7
    3954    3930    3957    3978       7    3954    3930    3957    3981       7
    3954    3972   -3975    3957       1    3954    3972    3975    3990       1
    3954    3972    3987    4008       1    3948    3963    3984    4005       3
    3942    3963    3984    4005       3    3936    3954    3930    3957       1
    3936    3954    3972    3975       5    3936    3954    3972    3987       5
    3930    3954   -3972    3975       5    3930    3954    3972    3987       5
    3930    3957   -3975    3972       7    3930    3957    3975    3990       6
    3930    3957    3978    3993       6    3930    3957    3978    3996       7
    3930    3957    3981    3999       6    3930    3957    3981    4002       7
    3927    3915    3924    3942       1    3927    3948   -3963    3942       1
    3927    3948    3963    3984       1    3924    3915    3927    3948       1
    3924    3942   -3963    3948       1    3924    3942    3963    3984       1
    3921    3912    3918    3930       1    3921    3936   -3954    3930       1
    3921    3936    3954    3972       1    3918    3912    3921    3936       1
    3918    3930   -3954    3936       1    3918    3930    3954    3972       1
    3918    3930    3957    3975       6    3918    3930    3957    3978       6
    3918    3930    3957    3981       6    3915    3909    3912    3918       4
    3915    3909    3912    3921       4    3915    3924    3942    3963       1
    3915    3927   -3948    3963       1    3912    3909    3915    3924       4
    3912    3909    3915    3927       4    3912    3918    3930    3954       1
    3912    3918    3930    3957       1    3912    3921   -3936    3954       1
    3909    3912    3918    3930       1    3909    3912    3921    3936       1
    3909    3915    3924    3942       1    3909    3915    3927    3948       1
    3900    3909    3912    3918       4    3900    3909    3912    3921       4
    3900    3909    3915    3924       4    3900    3909    3915    3927       4
    3894    3900    3909    3912       4    3894    3900    3909    3915       4
    3888    3900    3909    3912       4    3888    3900    3909    3915       4
    3876    3867    3873    3888       1    3876    3894   -3900    3888       1
    3876    3894    3900    3909       1    3873    3867    3876    3894       1
    3873    3888   -3900    3894       1    3873    3888    3900    3909       1
    3870    3864    3867    3873       3    3870    3864    3867    3876       3
    3867    3873    3888    3900       1    3867    3876   -3894    3900       1
    3864    3867    3873    3888       1    3864    3867    3876    3894       1
    4680    4731    4755    4773       3    4674    4731    4755    4773       3
    4668    4722    4752    4770       3    4662    4722    4752    4770       3
    4656    4713    4749    4767       3    4650    4713    4749    4767       3
    4644    4707    4746    4764       3    4638    4707    4746    4764       3
    4635    4695    4743    4761       3    4629    4695    4743    4761       3
    4620    4686    4740    4758       3    4614    4686    4740    4758       3
    4611    4572    4608    4674       1    4611    4680   -4731    4674       1
    4611    4680    4731    4755       1    4608    4572    4611    4680       1
    4608    4674   -4731    4680       1    4608    4674    4731    4755       1
    4605    4569    4602    4662       1    4605    4668   -4722    4662       1
    4605    4668    4722    4752       1    4602    4569    4605    4668       1
    4602    4662   -4722    4668       1    4602    4662    4722    4752       1
    4599    4563    4596    4650       1    4599    4656   -4713    4650       1
    4599    4656    4713    4749       1    4596    4563    4599    4656       1
    4596    4650   -4713    4656       1    4596    4650    4713    4749       1
    4593    4560    4590    4638       1    4593    4644   -4707    4638       1
    4593    4644    4707    4746       1    4590    4560    4593    4644       1
    4590    4638   -4707    4644       1    4590    4638    4707    4746       1
    4587    4557    4584    4629       1    4587    4635   -4695    4629       1
    4587    4635    4695    4743       1    4584    4557    4587    4635       1
    4584    4629   -4695    4635       1    4584    4629    4695    4743       1
    4581    4554    4578    4614       1    4581    4620   -4686    4614       1
    4581    4620    4686    4740       1    4578    4554    4581    4620       1
    4578    4614   -4686    4620       1    4578    4614    4686    4740       1
    4572    4545    4569    4602       4    4572    4545    4569    4605       4
    4572    4608    4674    4731       1    4572    4611   -4680    4731       1
    4569    4545    4572    4608       4    4569    4545    4572    4611       4
    4569    4602    4662    4722       1    4569    4605   -4668    4722       1
    4563    4536    4560    4590       4    4563    4536    4560    4593       4
    4563    4596    4650    4713       1    4563    4599   -4656    4713       1
    4560    4536    4563    4596       4    4560    4536    4563    4599       4
    4560    4590    4638    4707       1    4560    4593   -4644    4707       1
    4557    4533    4554    4578       4    4557    4533    4554    4581       4
    4557    4584    4629    4695       1    4557    4587   -4635    4695       1
    4554    4533    4557    4584       4    4554    4533    4557    4587       4
    4554    4578    4614    4686       1    4554    4581   -4620    4686       1
    4548    4515    4545    4569       4    4548    4515    4545    4572       4
    4545    4569    4602    4662       1    4545    4569    4605    4668       1
    4545    4572    4608    4674       1    4545    4572    4611    4680       1
    4539    4503    4536    4560       4    4539    4503    4536    4563       4
    4536    4560    4590    4638       1    4536    4560    4593    4644       1
    4536    4563    4596    4650       1    4536    4563    4599    4656       1
    4533    4554    4578    4614       1    4533    4554    4581    4620       1
    4533    4557    4584    4629       1    4533    4557    4587    4635       1
    4518    4548    4515    4545       1    4515    4545    4569    4602       4
    4515    4545    4569    4605       4    4515    4545    4572    4608       4
    4515    4545    4572    4611       4    4509    4479    4485    4518       5
    4509    4539    4503    4536       1    4503    4536    4560    4590       4
    4503    4536    4560    4593       4    4503    4536    4563    4596       4
    4503    4536    4563    4599       4    4497    4533    4554    4578       4
    4497    4533    4554    4581       4    4497    4533    4557    4584       4
    4497    4533    4557    4587       4    4491    4497    4533    4554       4
    4491    4497    4533    4557       4    4485    4464    4482    4515       1
    4485    4479    4509    4539       1    4485    4518   -4548    4515       1
    4482    4464    4485    4518       1    4482    4515    4545    4569       4
    4482    4515    4545    4572       4    4482    4515   -4548    4518       1
    4479    4461    4476    4503       1    4479    4485    4464    4482       1
    4479    4485    4518    4548       1    4479    4509   -4539    4503       1
    4476    4461    4479    4485       1    4476    4461    4479    4509       1
    4476    4503    4536    4560       4    4476    4503    4536    4563       4
    4476    4503   -4539    4509       1    4473    4497    4533    4554       4
    4473    4497    4533    4557       4    4470    4455    4458    4473       1
    4470    4491   -4497    4473       1    4470    4491    4497    4533       1
    4464    4440    4458    4473       6    4464    4440    4461    4476       6
    4464    4440   -4461    4479       7    4464    4482    4515    4545       1
    4464    4482    4515    4548       1    4464    4485    4479    4509       5
    4464    4485   -4518    4548       1    4461    4440    4458    4473       6
    4461    4440    4464    4482       6    4461    4440   -4464    4485       7
    4461    4476    4503    4536       1    4461    4476    4503    4539       1
    4461    4479   -4485    4464       5    4461    4479    4485    4518       5
    4461    4479   -4509    4539       1    4458    4440    4461    4476       6
    4458    4440    4461    4479       7    4458    4440    4464    4482       6
    4458    4440    4464    4485       7    4458    4455    4470    4491       1
    4458    4473   -4497    4491       1    4458    4473    4497    4533       1
    4455    4458    4440    4461       7    4455    4458    4440    4464       7
    4455    4458    4473    4497       1    4455    4470   -4491    4497       1
    4440    4413   -4437    4455       1    4440    4458    4455    4470       1
    4440    4458    4473    4497       1    4440    4461    4476    4503       1
    4440    4461   -4479    4485       1    4440    4461    4479    4509       1
    4440    4464    4482    4515       1    4440    4464   -4485    4479       1
    4440    4464    4485    4518       1    4437    4413   -4440    4458       7
    4437    4413    4440    4461       7    4437    4413    4440    4464       7
    4437    4455   -4458    4440       1    4437    4455    4458    4473       1
    4437    4455    4470    4491       1    4431    4446    4467    4488       3
    4425    4446    4467    4488       3    4419    4437    4413    4440       1
    4419    4437    4455    4458       5    4419    4437    4455    4470       5
    4413    4437   -4455    4458       5    4413    4437    4455    4470       5
    4413    4440   -4458    4455       7    4413    4440    4458    4473       6
    4413    4440    4461    4476       6    4413    4440    4461    4479       7
    4413    4440    4464    4482       6    4413    4440    4464    4485       7
    4410    4398    4407    4425       1    4410    4431   -4446    4425       1
    4410    4431    4446    4467       1    4407    4398    4410    4431       1
    4407    4425   -4446    4431       1    4407    4425    4446    4467       1
    4404    4395    4401    4413       1    4404    4419   -4437    4413       1
    4404    4419    4437    4455       1    4401    4395    4404    4419       1
    4401    4413   -4437    4419       1    4401    4413    4437    4455       1
    4401    4413    4440    4458       6    4401    4413    4440    4461       6
    4401    4413    4440    4464       6    4398    4392    4395    4401       4
    4398    4392    4395    4404       4    4398    4407    4425    4446       1
    4398    4410   -4431    4446       1    4395    4392    4398    4407       4
    4395    4392    4398    4410       4    4395    4401    4413    4437       1
    4395    4401    4413    4440       1    4395    4404   -4419    4437       1
    4392    4395    4401    4413       1    4392    4395    4404    4419       1
    4392    4398    4407    4425       1    4392    4398    4410    4431       1
    4383    4392    4395    4401       4    4383    4392    4395    4404       4
    4383    4392    4398    4407       4    4383    4392    4398    4410       4
    4377    4383    4392    4395       4    4377    4383    4392    4398       4
    4371    4383    4392    4395       4    4371    4383    4392    4398       4
    4359    4350    4356    4371       1    4359    4377   -4383    4371       1
    4359    4377    4383    4392       1    4356    4350    4359    4377       1
    4356    4371   -4383    4377       1    4356    4371    4383    4392       1
    4353    4347    4350    4356       3    4353    4347    4350    4359       3
    4350    4356    4371    4383       1    4350    4359   -4377    4383       1
    4347    4350    4356    4371       1    4347    4350    4359    4377       1
    5163    5214    5238    5256       3    5157    5214    5238    5256       3
    5151    5205    5235    5253       3    5145    5205    5235    5253       3
    5139    5196    5232    5250       3    5133    5196    5232    5250       3
    5127    5190    5229    5247       3    5121    5190    5229    5247       3
    5118    5178    5226    5244       3    5112    5178    5226    5244       3
    5103    5169    5223    5241       3    5097    5169    5223    5241       3
    5094    5055    5091    5157       1    5094    5163   -5214    5157       1
    5094    5163    5214    5238       1    5091    5055    5094    5163       1
    5091    5157   -5214    5163       1    5091    5157    5214    5238       1
    5088    5052    5085    5145       1    5088    5151   -5205    5145       1
    5088    5151    5205    5235       1    5085    5052    5088    5151       1
    5085    5145   -5205    5151       1    5085    5145    5205    5235       1
    5082    5046    5079    5133       1    5082    5139   -5196    5133       1
    5082    5139    5196    5232       1    5079    5046    5082    5139       1
    5079    5133   -5196    5139       1    5079    5133    5196    5232       1
    5076    5043    5073    5121       1    5076    5127   -5190    5121       1
    5076    5127    5190    5229       1    5073    5043    5076    5127       1
    5073    5121   -5190    5127       1    5073    5121    5190    5229       1
    5070    5040    5067    5112       1    5070    5118   -5178    5112       1
    5070    5118    5178    5226       1    5067    5040    5070    5118       1
    5067    5112   -5178    5118       1    5067    5112    5178    5226       1
    5064    5037    5061    5097       1    5064    5103   -5169    5097       1
    5064    5103    5169    5223       1    5061    5037    5064    5103       1
    5061    5097   -5169    5103       1    5061    5097    5169    5223       1
    5055    5028    5052    5085       4    5055    5028    5052    5088       4
    5055    5091    5157    5214       1    5055    5094   -5163    5214       1
    5052    5028    5055    5091       4    5052    5028    5055    5094       4
    5052    5085    5145    5205       1    5052    5088   -5151    5205       1
    5046    5019    5043    5073       4    5046    5019    5043    5076       4
    5046    5079    5133    5196       1    5046    5082   -5139    5196       1
    5043    5019    5046    5079       4    5043    5019    5046    5082       4
    5043    5073    5121    5190       1    5043    5076   -5127    5190       1
    5040    5016    5037    5061       4    5040    5016    5037    5064       4
    5040    5067    5112    5178       1    5040    5070   -5118    5178       1
    5037    5016    5040    5067       4    5037    5016    5040    5070       4
    5037    5061    5097    5169       1    5037    5064   -5103    5169       1
    5031    4998    5028    5052       4    5031    4998    5028    5055       4
    5028    5052    5085    5145       1    5028    5052    5088    5151       1
    5028    5055    5091    5157       1    5028    5055    5094    5163       1
    5022    4986    5019    5043       4    5022    4986    5019    5046       4
    5019    5043    5073    5121       1    5019    5043    5076    5127       1
    5019    5046    5079    5133       1    5019    5046    5082    5139       1
    5016    5037    5061    5097       1    5016    5037    5064    5103       1
    5016    5040    5067    5112       1    5016    5040    5070    5118       1
    5001    5031    4998    5028       1    4998    5028    5052    5085       4
    4998    5028    5052    5088       4    4998    5028    5055    5091       4
    4998    5028    5055    5094       4    4992    4962    4968    5001       5
    4992    5022    4986    5019       1    4986    5019    5043    5073       4
    4986    5019    5043    5076       4    4986    5019    5046    5079       4
    4986    5019    5046    5082       4    4980    5016    5037    5061       4
    4980    5016    5037    5064       4    4980    5016    5040    5067       4
    4980    5016    5040    5070       4    4974    4980    5016    5037       4
    4974    4980    5016    5040       4    4968    4947    4965    4998       1
    4968    4962    4992    5022       1    4968    5001   -5031    4998       1
    4965    4947    4968    5001       1    4965    4998    5028    5052       4
    4965    4998    5028    5055       4    4965    4998   -5031    5001       1
    4962    4944    4959    4986       1    4962    4968    4947    4965       1
    4962    4968    5001    5031       1    4962    4992   -5022    4986       1
    4959    4944    4962    4968       1    4959    4944    4962    4992       1
    4959    4986    5019    5043       4    4959    4986    5019    5046       4
    4959    4986   -5022    4992       1    4956    4980    5016    5037       4
    4956    4980    5016    5040       4    4953    4938    4941    4956       1
    4953    4974   -4980    4956       1    4953    4974    4980    5016       1
    4947    4923    4941    4956       6    4947    4923    4944    4959       6
    4947    4923   -4944    4962       7    4947    4965    4998    5028       1
    4947    4965    4998    5031       1    4947    4968    4962    4992       5
    4947    4968   -5001    5031       1    4944    4923    4941    4956       6
    4944    4923    4947    4965       6    4944    4923   -4947    4968       7
    4944    4959    4986    5019       1    4944    4959    4986    5022       1
    4944    4962   -4968    4947       5    4944    4962    4968    5001       5
    4944    4962   -4992    5022       1    4941    4923    4944    4959       6
    4941    4923    4944    4962       7    4941    4923    4947    4965       6
    4941    4923    4947    4968       7    4941    4938    4953    4974       1
    4941    4956   -4980    4974       1    4941    4956    4980    5016       1
    4938    4941    4923    4944       7    4938    4941    4923    4947       7
    4938    4941    4956    4980       1    4938    4953   -4974    4980       1
    4923    4896   -4920    4938       1    4923    4941    4938    4953       1
    4923    4941    4956    4980       1    4923    4944    4959    4986       1
    4923    4944   -4962    4968       1    4923    4944    4962    4992       1
    4923    4947    4965    4998       1    4923    4947   -4968    4962       1
    4923    4947    4968    5001       1    4920    4896   -4923    4941       7
    4920    4896    4923    4944       7    4920    4896    4923    4947       7
    4920    4938   -4941    4923       1    4920    4938    4941    4956       1
    4920    4938    4953    4974       1    4914    4929    4950    4971       3
    4908    4929    4950    4971       3    4902    4920    4896    4923       1
    4902    4920    4938    4941       5    4902    4920    4938    4953       5
    4896    4920   -4938    4941       5    4896    4920    4938    4953       5
    4896    4923   -4941    4938       7    4896    4923    4941    4956       6
    4896    4923    4944    4959       6    4896    4923    4944    4962       7
    4896    4923    4947    4965       6    4896    4923    4947    4968       7
    4893    4881    4890    4908       1    4893    4914   -4929    4908       1
    4893    4914    4929    4950       1    4890    4881    4893    4914       1
    4890    4908   -4929    4914       1    4890    4908    4929    4950       1
    4887    4878    4884    4896       1    4887    4902   -4920    4896       1
    4887    4902    4920    4938       1    4884    4878    4887    4902       1
    4884    4896   -4920    4902       1    4884    4896    4920    4938       1
    4884    4896    4923    4941       6    4884    4896    4923    4944       6
    4884    4896    4923    4947       6    4881    4875    4878    4884       4
    4881    4875    4878    4887       4    4881    4890    4908    4929       1
    4881    4893   -4914    4929       1    4878    4875    4881    4890       4
    4878    4875    4881    4893       4    4878    4884    4896    4920       1
    4878    4884    4896    4923       1    4878    4887   -4902    4920       1
    4875    4878    4884    4896       1    4875    4878    4887    4902       1
    4875    4881    4890    4908       1    4875    4881    4893    4914       1
    4866    4875    4878    4884       4    4866    4875    4878    4887       4
    4866    4875    4881    4890       4    4866    4875    4881    4893       4
    4860    4866    4875    4878       4    4860    4866    4875    4881       4
    4854    4866    4875    4878       4    4854    4866    4875    4881       4
    4842    4833    4839    4854       1    4842    4860   -4866    4854       1
    4842    4860    4866    4875       1    4839    4833    4842    4860       1
    4839    4854   -4866    4860       1    4839    4854    4866    4875       1
    4836    4830    4833    4839       3    4836    4830    4833    4842       3
    4833    4839    4854    4866       1    4833    4842   -4860    4866       1
    4830    4833    4839    4854       1    4830    4833    4842    4860       1
    5646    5697    5721    5739       3    5640    5697    5721    5739       3
    5634    5688    5718    5736       3    5628    5688    5718    5736       3
    5622    5679    5715    5733       3    5616    5679    5715    5733       3
    5610    5673    5712    5730       3    5604    5673    5712    5730       3
    5601    5661    5709    5727       3    5595    5661    5709    5727       3
    5586    5652    5706    5724       3    5580    5652    5706    5724       3
    5577    5538    5574    5640       1    5577    5646   -5697    5640       1
    5577    5646    5697    5721       1    5574    5538    5577    5646       1
    5574    5640   -5697    5646       1    5574    5640    5697    5721       1
    5571    5535    5568    5628       1    5571    5634   -5688    5628       1
    5571    5634    5688    5718       1    5568    5535    5571    5634       1
    5568    5628   -5688    5634       1    5568    5628    5688    5718       1
    5565    5529    5562    5616       1    5565    5622   -5679    5616       1
    5565    5622    5679    5715       1    5562    5529    5565    5622       1
    5562    5616   -5679    5622       1    5562    5616    5679    5715       1
    5559    5526    5556    5604       1    5559    5610   -5673    5604       1
    5559    5610    5673    5712       1    5556    5526    5559    5610       1
    5556    5604   -5673    5610       1    5556    5604    5673    5712       1
    5553    5523    5550    5595       1    5553    5601   -5661    5595       1
    5553    5601    5661    5709       1    5550    5523    5553    5601       1
    5550    5595   -5661    5601       1    5550    5595    5661    5709       1
    5547    5520    5544    5580       1    5547    5586   -5652    5580       1
    5547    5586    5652    5706       1    5544    5520    5547    5586       1
    5544    5580   -5652    5586       1    5544    5580    5652    5706       1
    5538    5511    5535    5568       4    5538    5511    5535    5571       4
    5538    5574    5640    5697       1    5538    5577   -5646    5697       1
    5535    5511    5538    5574       4    5535    5511    5538    5577       4
    5535    5568    5628    5688       1    5535    5571   -5634    5688       1
    5529    5502    5526    5556       4    5529    5502    5526    5559       4
    5529    5562    5616    5679       1    5529    5565   -5622    5679       1
    5526    5502    5529    5562       4    5526    5502    5529    5565       4
    5526    5556    5604    5673       1    5526    5559   -5610    5673       1
    5523    5499    5520    5544       4    5523    5499    5520    5547       4
    5523    5550    5595    5661       1    5523    5553   -5601    5661       1
    5520    5499    5523    5550       4    5520    5499    5523    5553       4
    5520    5544    5580    5652       1    5520    5547   -5586    5652       1
    5514    5481    5511    5535       4    5514    5481    5511    5538       4
    5511    5535    5568    5628       1    5511    5535    5571    5634       1
    5511    5538    5574    5640       1    5511    5538    5577    5646       1
    5505    5469    5502    5526       4    5505    5469    5502    5529       4
    5502    5526    5556    5604       1    5502    5526    5559    5610       1
    5502    5529    5562    5616       1    5502    5529    5565    5622       1
    5499    5520    5544    5580       1    5499    5520    5547    5586       1
    5499    5523    5550    5595       1    5499    5523    5553    5601       1
    5484    5514    5481    5511       1    5481    5511    5535    5568       4
    5481    5511    5535    5571       4    5481    5511    5538    5574       4
    5481    5511    5538    5577       4    5475    5445    5451    5484       5
    5475    5505    5469    5502       1    5469    5502    5526    5556       4
    5469    5502    5526    5559       4    5469    5502    5529    5562       4
    5469    5502    5529    5565       4    5463    5499    5520    5544       4
    5463    5499    5520    5547       4    5463    5499    5523    5550       4
    5463    5499    5523    5553       4    5457    5463    5499    5520       4
    5457    5463    5499    5523       4    5451    5430    5448    5481       1
    5451    5445    5475    5505       1    5451    5484   -5514    5481       1
    5448    5430    5451    5484       1    5448    5481    5511    5535       4
    5448    5481    5511    5538       4    5448    5481   -5514    5484       1
    5445    5427    5442    5469       1    5445    5451    5430    5448       1
    5445    5451    5484    5514       1    5445    5475   -5505    5469       1
    5442    5427    5445    5451       1    5442    5427    5445    5475       1
    5442    5469    5502    5526       4    5442    5469    5502    5529       4
    5442    5469   -5505    5475       1    5439    5463    5499    5520       4
    5439    5463    5499    5523       4    5436    5421    5424    5439       1
    5436    5457   -5463    5439       1    5436    5457    5463    5499       1
    5430    5406    5424    5439       6    5430    5406    5427    5442       6
    5430    5406   -5427    5445       7    5430    5448    5481    5511       1
    5430    5448    5481    5514       1    5430    5451    5445    5475       5
    5430    5451   -5484    5514       1    5427    5406    5424    5439       6
    5427    5406    5430    5448       6    5427    5406   -5430    5451       7
    5427    5442    5469    5502       1    5427    5442    5469    5505       1
    5427    5445   -5451    5430       5    5427    5445    5451    5484       5
    5427    5445   -5475    5505       1    5424    5406    5427    5442       6
    5424    5406    5427    5445       7    5424    5406    5430    5448       6
    5424    5406    5430    5451       7    5424    5421    5436    5457       1
    5424    5439   -5463    5457       1    5424    5439    5463    5499       1
    5421    5424    5406    5427       7    5421    5424    5406    5430       7
    5421    5424    5439    5463       1    5421    5436   -5457    5463       1
    5406    5379   -5403    5421       1    5406    5424    5421    5436       1
    5406    5424    5439    5463       1    5406    5427    5442    5469       1
    5406    5427   -5445    5451       1    5406    5427    5445    5475       1
    5406    5430    5448    5481       1    5406    5430   -5451    5445       1
    5406    5430    5451    5484       1    5403    5379   -5406    5424       7
    5403    5379    5406    5427       7    5403    5379    5406    5430       7
    5403    5421   -5424    5406       1    5403    5421    5424    5439       1
    5403    5421    5436    5457       1    5397    5412    5433    5454       3
    5391    5412    5433    5454       3    5385    5403    5379    5406       1
    5385    5403    5421    5424       5    5385    5403    5421    5436       5
    5379    5403   -5421    5424       5    5379    5403    5421    5436       5
    5379    5406   -5424    5421       7    5379    5406    5424    5439       6
    5379    5406    5427    5442       6    5379    5406    5427    5445       7
    5379    5406    5430    5448       6    5379    5406    5430    5451       7
    5376    5364    5373    5391       1    5376    5397   -5412    5391       1
    5376    5397    5412    5433       1    5373    5364    5376    5397       1
    5373    5391   -5412    5397       1    5373    5391    5412    5433       1
    5370    5361    5367    5379       1    5370    5385   -5403    5379       1
    5370    5385    5403    5421       1    5367    5361    5370    5385       1
    5367    5379   -5403    5385       1    5367    5379    5403    5421       1
    5367    5379    5406    5424       6    5367    5379    5406    5427       6
    5367    5379    5406    5430       6    5364    5358    5361    5367       4
    5364    5358    5361    5370       4    5364    5373    5391    5412       1
    5364    5376   -5397    5412       1    5361    5358    5364    5373       4
    5361    5358    5364    5376       4    5361    5367    5379    5403       1
    5361    5367    5379    5406       1    5361    5370   -5385    5403       1
    5358    5361    5367    5379       1    5358    5361    5370    5385       1
    5358    5364    5373    5391       1    5358    5364    5376    5397       1
    5349    5358    5361    5367       4    5349    5358    5361    5370       4
    5349    5358    5364    5373       4    5349    5358    5364    5376       4
    5343    5349    5358    5361       4    5343    5349    5358    5364       4
    5337    5349    5358    5361       4    5337    5349    5358    5364       4
    5325    5316    5322    5337       1    5325    5343   -5349    5337       1
    5325    5343    5349    5358       1    5322    5316    5325    5343       1
    5322    5337   -5349    5343       1    5322    5337    5349    5358       1
    5319    5313    5316    5322       3    5319    5313    5316    5325       3
    5316    5322    5337    5349       1    5316    5325   -5343    5349       1
    5313    5316    5322    5337       1    5313    5316    5325    5343       1
    6129    6180    6204    6222       3    6123    6180    6204    6222       3
    6117    6171    6201    6219       3    6111    6171    6201    6219       3
    6105    6162    6198    6216       3    6099    6162    6198    6216       3
    6093    6156    6195    6213       3    6087    6156    6195    6213       3
    6084    6144    6192    6210       3    6078    6144    6192    6210       3
    6069    6135    6189    6207       3    6063    6135    6189    6207       3
    6060    6021    6057    6123       1    6060    6129   -6180    6123       1
    6060    6129    6180    6204       1    6057    6021    6060    6129       1
    6057    6123   -6180    6129       1    6057    6123    6180    6204       1
    6054    6018    6051    6111       1    6054    6117   -6171    6111       1
    6054    6117    6171    6201       1    6051    6018    6054    6117       1
    6051    6111   -6171    6117       1    6051    6111    6171    6201       1
    6048    6012    6045    6099       1    6048    6105   -6162    6099       1
    6048    6105    6162    6198       1    6045    6012    6048    6105       1
    6045    6099   -6162    6105       1    6045    6099    6162    6198       1
    6042    6009    6039    6087       1    6042    6093   -6156    6087       1
    6042    6093    6156    6195       1    6039    6009    6042    6093       1
    6039    6087   -6156    6093       1    6039    6087    6156    6195       1
    6036    6006    6033    6078       1    6036    6084   -6144    6078       1
    6036    6084    6144    6192       1    6033    6006    6036    6084       1
    6033    6078   -6144    6084       1    6033    6078    6144    6192       1
    6030    6003    6027    6063       1    6030    6069   -6135    6063       1
    6030    6069    6135    6189       1    6027    6003    6030    6069       1
    6027    6063   -6135    6069       1    6027    6063    6135    6189       1
    6021    5994    6018    6051       4    6021    5994    6018    6054       4
    6021    6057    6123    6180       1    6021    6060   -6129    6180       1
    6018    5994    6021    6057       4    6018    5994    6021    6060       4
    6018    6051    6111    6171       1    6018    6054   -6117    6171       1
    6012    5985    6009    6039       4    6012    5985    6009    6042       4
    6012    6045    6099    6162       1    6012    6048   -6105    6162       1
    6009    5985    6012    6045       4    6009    5985    6012    6048       4
    6009    6039    6087    6156       1    6009    6042   -6093    6156       1
    6006    5982    6003    6027       4    6006    5982    6003    6030       4
    6006    6033    6078    6144       1    6006    6036   -6084    6144       1
    6003    5982    6006    6033       4    6003    5982    6006    6036       4
    6003    6027    6063    6135       1    6003    6030   -6069    6135       1
    5997    5964    5994    6018       4    5997    5964    5994    6021       4
    5994    6018    6051    6111       1    5994    6018    6054    6117       1
    5994    6021    6057    6123       1    5994    6021    6060    6129       1
    5988    5952    5985    6009       4    5988    5952    5985    6012       4
    5985    6009    6039    6087       1    5985    6009    6042    6093       1
    5985    6012    6045    6099       1    5985    6012    6048    6105       1
    5982    6003    6027    6063       1    5982    6003    6030    6069       1
    5982    6006    6033    6078       1    5982    6006    6036    6084       1
    5967    5997    5964    5994       1    5964    5994    6018    6051       4
    5964    5994    6018    6054       4    5964    5994    6021    6057       4
    5964    5994    6021    6060       4    5958    5928    5934    5967       5
    5958    5988    5952    5985       1    5952    5985    6009    6039       4
    5952    5985    6009    6042       4    5952    5985    6012    6045       4
    5952    5985    6012    6048       4    5946    5982    6003    6027       4
    5946    5982    6003    6030       4    5946    5982    6006    6033       4
    5946    5982    6006    6036       4    5940    5946    5982    6003       4
    5940    5946    5982    6006       4    5934    5913    5931    5964       1
    5934    5928    5958    5988       1    5934    5967   -5997    5964       1
    5931    5913    5934    5967       1    5931    5964    5994    6018       4
    5931    5964    5994    6021       4    5931    5964   -5997    5967       1
    5928    5910    5925    5952       1    5928    5934    5913    5931       1
    5928    5934    5967    5997       1    5928    5958   -5988    5952       1
    5925    5910    5928    5934       1    5925    5910    5928    5958       1
    5925    5952    5985    6009       4    5925    5952    5985    6012       4
    5925    5952   -5988    5958       1    5922    5946    5982    6003       4
    5922    5946    5982    6006       4    5919    5904    5907    5922       1
    5919    5940   -5946    5922       1    5919    5940    5946    5982       1
    5913    5889    5907    5922       6    5913    5889    5910    5925       6
    5913    5889   -5910    5928       7    5913    5931    5964    5994       1
    5913    5931    5964    5997       1    5913    5934    5928    5958       5
    5913    5934   -5967    5997       1    5910    5889    5907    5922       6
    5910    5889    5913    5931       6    5910    5889   -5913    5934       7
    5910    5925    5952    5985       1    5910    5925    5952    5988       1
    5910    5928   -5934    5913       5    5910    5928    5934    5967       5
    5910    5928   -5958    5988       1    5907    5889    5910    5925       6
    5907    5889    5910    5928       7    5907    5889    5913    5931       6
    5907    5889    5913    5934       7    5907    5904    5919    5940       1
    5907    5922   -5946    5940       1    5907    5922    5946    5982       1
    5904    5907    5889    5910       7    5904    5907    5889    5913       7
    5904    5907    5922    5946       1    5904    5919   -5940    5946       1
    5889    5862   -5886    5904       1    5889    5907    5904    5919       1
    5889    5907    5922    5946       1    5889    5910    5925    5952       1
    5889    5910   -5928    5934       1    5889    5910    5928    5958       1
    5889    5913    5931    5964       1    5889    5913   -5934    5928       1
    5889    5913    5934    5967       1    5886    5862   -5889    5907       7
    5886    5862    5889    5910       7    5886    5862    5889    5913       7
    5886    5904   -5907    5889       1    5886    5904    5907    5922       1
    5886    5904    5919    5940       1    5880    5895    5916    5937       3
    5874    5895    5916    5937       3    5868    5886    5862    5889       1
    5868    5886    5904    5907       5    5868    5886    5904    5919       5
    5862    5886   -5904    5907       5    5862    5886    5904    5919       5
    5862    5889   -5907    5904       7    5862    5889    5907    5922       6
    5862    5889    5910    5925       6    5862    5889    5910    5928       7
    5862    5889    5913    5931       6    5862    5889    5913    5934       7
    5859    5847    5856    5874       1    5859    5880   -5895    5874       1
    5859    5880    5895    5916       1    5856    5847    5859    5880       1
    5856    5874   -5895    5880       1    5856    5874    5895    5916       1
    5853    5844    5850    5862       1    5853    5868   -5886    5862       1
    5853    5868    5886    5904       1    5850    5844    5853    5868       1
    5850    5862   -5886    5868       1    5850    5862    5886    5904       1
    5850    5862    5889    5907       6    5850    5862    5889    5910       6
    5850    5862    5889    5913       6    5847    5841    5844    5850       4
    5847    5841    5844    5853       4    5847    5856    5874    5895       1
    5847    5859   -5880    5895       1    5844    5841    5847    5856       4
    5844    5841    5847    5859       4    5844    5850    5862    5886       1
    5844    5850    5862    5889       1    5844    5853   -5868    5886       1
    5841    5844    5850    5862       1    5841    5844    5853    5868       1
    5841    5847    5856    5874       1    5841    5847    5859    5880       1
    5832    5841    5844    5850       4    5832    5841    5844    5853       4
    5832    5841    5847    5856       4    5832    5841    5847    5859       4
    5826    5832    5841    5844       4    5826    5832    5841    5847       4
    5820    5832    5841    5844       4    5820    5832    5841    5847       4
    5808    5799    5805    5820       1    5808    5826   -5832    5820       1
    5808    5826    5832    5841       1    5805    5799    5808    5826       1
    5805    5820   -5832    5826       1    5805    5820    5832    5841       1
    5802    5796    5799    5805       3    5802    5796    5799    5808       3
    5799    5805    5820    5832       1    5799    5808   -5826    5832       1
    5796    5799    5805    5820       1    5796    5799    5808    5826       1
    6612    6663    6687    6705       3    6606    6663    6687    6705       3
    6600    6654    6684    6702       3    6594    6654    6684    6702       3
    6588    6645    6681    6699       3    6582    6645    6681    6699       3
    6576    6639    6678    6696       3    6570    6639    6678    6696       3
    6567    6627    6675    6693       3    6561    6627    6675    6693       3
    6552    6618    6672    6690       3    6546    6618    6672    6690       3
    6543    6504    6540    6606       1    6543    6612   -6663    6606       1
    6543    6612    6663    6687       1    6540    6504    6543    6612       1
    6540    6606   -6663    6612       1    6540    6606    6663    6687       1
    6537    6501    6534    6594       1    6537    6600   -6654    6594       1
    6537    6600    6654    6684       1    6534    6501    6537    6600       1
    6534    6594   -6654    6600       1    6534    6594    6654    6684       1
    6531    6495    6528    6582       1    6531    6588   -6645    6582       1
    6531    6588    6645    6681       1    6528    6495    6531    6588       1
    6528    6582   -6645    6588       1    6528    6582    6645    6681       1
    6525    6492    6522    6570       1    6525    6576   -6639    6570       1
    6525    6576    6639    6678       1    6522    6492    6525    6576       1
    6522    6570   -6639    6576       1    6522    6570    6639    6678       1
    6519    6489    6516    6561       1    6519    6567   -6627    6561       1
    6519    6567    6627    6675       1    6516    6489    6519    6567       1
    6516    6561   -6627    6567       1    6516    6561    6627    6675       1
    6513    6486    6510    6546       1    6513    6552   -6618    6546       1
    6513    6552    6618    6672       1    6510    6486    6513    6552       1
    6510    6546   -6618    6552       1    6510    6546    6618    6672       1
    6504    6477    6501    6534       4    6504    6477    6501    6537       4
    6504    6540    6606    6663       1    6504    6543   -6612    6663       1
    6501    6477    6504    6540       4    6501    6477    6504    6543       4
    6501    6534    6594    6654       1    6501    6537   -6600    6654       1
    6495    6468    6492    6522       4    6495    6468    6492    6525       4
    6495    6528    6582    6645       1    6495    6531   -6588    6645       1
    6492    6468    6495    6528       4    6492    6468    6495    6531       4
    6492    6522    6570    6639       1    6492    6525   -6576    6639       1
    6489    6465    6486    6510       4    6489    6465    6486    6513       4
    6489    6516    6561    6627       1    6489    6519   -6567    6627       1
    6486    6465    6489    6516       4    6486    6465    6489    6519       4
    6486    6510    6546    6618       1    6486    6513   -6552    6618       1
    6480    6447    6477    6501       4    6480    6447    6477    6504       4
    6477    6501    6534    6594       1    6477    6501    6537    6600       1
    6477    6504    6540    6606       1    6477    6504    6543    6612       1
    6471    6435    6468    6492       4    6471    6435    6468    6495       4
    6468    6492    6522    6570       1    6468    6492    6525    6576       1
    6468    6495    6528    6582       1    6468    6495    6531    6588       1
    6465    6486    6510    6546       1    6465    6486    6513    6552       1
    6465    6489    6516    6561       1    6465    6489    6519    6567       1
    6450    6480    6447    6477       1    6447    6477    6501    6534       4
    6447    6477    6501    6537       4    6447    6477    6504    6540       4
    6447    6477    6504    6543       4    6441    6411    6417    6450       5
    6441    6471    6435    6468       1    6435    6468    6492    6522       4
    6435    6468    6492    6525       4    6435    6468    6495    6528       4
    6435    6468    6495    6531       4    6429    6465    6486    6510       4
    6429    6465    6486    6513       4    6429    6465    6489    6516       4
    6429    6465    6489    6519       4    6423    6429    6465    6486       4
    6423    6429    6465    6489       4    6417    6396    6414    6447       1
    6417    6411    6441    6471       1    6417    6450   -6480    6447       1
    6414    6396    6417    6450       1    6414    6447    6477    6501       4
    6414    6447    6477    6504       4    6414    6447   -6480    6450       1
    6411    6393    6408    6435       1    6411    6417    6396    6414       1
    6411    6417    6450    6480       1    6411    6441   -6471    6435       1
    6408    6393    6411    6417       1    6408    6393    6411    6441       1
    6408    6435    6468    6492       4    6408    6435    6468    6495       4
    6408    6435   -6471    6441       1    6405    6429    6465    6486       4
    6405    6429    6465    6489       4    6402    6387    6390    6405       1
    6402    6423   -6429    6405       1    6402    6423    6429    6465       1
    6396    6372    6390    6405       6    6396    6372    6393    6408       6
    6396    6372   -6393    6411       7    6396    6414    6447    6477       1
    6396    6414    6447    6480       1    6396    6417    6411    6441       5
    6396    6417   -6450    6480       1    6393    6372    6390    6405       6
    6393    6372    6396    6414       6    6393    6372   -6396    6417       7
    6393    6408    6435    6468       1    6393    6408    6435    6471       1
    6393    6411   -6417    6396       5    6393    6411    6417    6450       5
    6393    6411   -6441    6471       1    6390    6372    6393    6408       6
    6390    6372    6393    6411       7    6390    6372    6396    6414       6
    6390    6372    6396    6417       7    6390    6387    6402    6423       1
    6390    6405   -6429    6423       1    6390    6405    6429    6465       1
    6387    6390    6372    6393       7    6387    6390    6372    6396       7
    6387    6390    6405    6429       1    6387    6402   -6423    6429       1
    6372    6345   -6369    6387       1    6372    6390    6387    6402       1
    6372    6390    6405    6429       1    6372    6393    6408    6435       1
    6372    6393   -6411    6417       1    6372    6393    6411    6441       1
    6372    6396    6414    6447       1    6372    6396   -6417    6411       1
    6372    6396    6417    6450       1    6369    6345   -6372    6390       7
    6369    6345    6372    6393       7    6369    6345    6372    6396       7
    6369    6387   -6390    6372       1    6369    6387    6390    6405       1
    6369    6387    6402    6423       1    6363    6378    6399    6420       3
    6357    6378    6399    6420       3    6351    6369    6345    6372       1
    6351    6369    6387    6390       5    6351    6369    6387    6402       5
    6345    6369   -6387    6390       5    6345    6369    6387    6402       5
    6345    6372   -6390    6387       7    6345    6372    6390    6405       6
    6345    6372    6393    6408       6    6345    6372    6393    6411       7
    6345    6372    6396    6414       6    6345    6372    6396    6417       7
    6342    6330    6339    6357       1    6342    6363   -6378    6357       1
    6342    6363    6378    6399       1    6339    6330    6342    6363       1
    6339    6357   -6378    6363       1    6339    6357    6378    6399       1
    6336    6327    6333    6345       1    6336    6351   -6369    6345       1
    6336    6351    6369    6387       1    6333    6327    6336    6351       1
    6333    6345   -6369    6351       1    6333    6345    6369    6387       1
    6333    6345    6372    6390       6    6333    6345    6372    6393       6
    6333    6345    6372    6396       6    6330    6324    6327    6333       4
    6330    6324    6327    6336       4    6330    6339    6357    6378       1
    6330    6342   -6363    6378       1    6327    6324    6330    6339       4
    6327    6324    6330    6342       4    6327    6333    6345    6369       1
    6327    6333    6345    6372       1    6327    6336   -6351    6369       1
    6324    6327    6333    6345       1    6324    6327    6336    6351       1
    6324    6330    6339    6357       1    6324    6330    6342    6363       1
    6315    6324    6327    6333       4    6315    6324    6327    6336       4
    6315    6324    6330    6339       4    6315    6324    6330    6342       4
    6309    6315    6324    6327       4    6309    6315    6324    6330       4
    6303    6315    6324    6327       4    6303    6315    6324    6330       4
    6291    6282    6288    6303       1    6291    6309   -6315    6303       1
    6291    6309    6315    6324       1    6288    6282    6291    6309       1
    6288    6303   -6315    6309       1    6288    6303    6315    6324       1
    6285    6279    6282    6288       3    6285    6279    6282    6291       3
    6282    6288    6303    6315       1    6282    6291   -6309    6315       1
    6279    6282    6288    6303       1    6279    6282    6291    6309       1
    7095    7146    7170    7188       3    7089    7146    7170    7188       3
    7083    7137    7167    7185       3    7077    7137    7167    7185       3
    7071    7128    7164    7182       3    7065    7128    7164    7182       3
    7059    7122    7161    7179       3    7053    7122    7161    7179       3
    7050    7110    7158    7176       3    7044    7110    7158    7176       3
    7035    7101    7155    7173       3    7029    7101    7155    7173       3
    7026    6987    7023    7089       1    7026    7095   -7146    7089       1
    7026    7095    7146    7170       1    7023    6987    7026    7095       1
    7023    7089   -7146    7095       1    7023    7089    7146    7170       1
    7020    6984    7017    7077       1    7020    7083   -7137    7077       1
    7020    7083    7137    7167       1    7017    6984    7020    7083       1
    7017    7077   -7137    7083       1    7017    7077    7137    7167       1
    7014    6978    7011    7065       1    7014    7071   -7128    7065       1
    7014    7071    7128    7164       1    7011    6978    7014    7071       1
    7011    7065   -7128    7071       1    7011    7065    7128    7164       1
    7008    6975    7005    7053       1    7008    7059   -7122    7053       1
    7008    7059    7122    7161       1    7005    6975    7008    7059       1
    7005    7053   -7122    7059       1    7005    7053    7122    7161       1
    7002    6972    6999    7044       1    7002    7050   -7110    7044       1
    7002    7050    7110    7158       1    6999    6972    7002    7050       1
    6999    7044   -7110    7050       1    6999    7044    7110    7158       1
    6996    6969    6993    7029       1    6996    7035   -7101    7029       1
    6996    7035    7101    7155       1    6993    6969    6996    7035       1
    6993    7029   -7101    7035       1    6993    7029    7101    7155       1
    6987    6960    6984    7017       4    6987    6960    6984    7020       4
    6987    7023    7089    7146       1    6987    7026   -7095    7146       1
    6984    6960    6987    7023       4    6984    6960    6987    7026       4
    6984    7017    7077    7137       1    6984    7020   -7083    7137       1
    6978    6951    6975    7005       4    6978    6951    6975    7008       4
    6978    7011    7065    7128       1    6978    7014   -7071    7128       1
    6975    6951    6978    7011       4    6975    6951    6978    7014       4
    6975    7005    7053    7122       1    6975    7008   -7059    7122       1
    6972    6948    6969    6993       4    6972    6948    6969    6996       4
    6972    6999    7044    7110       1    6972    7002   -7050    7110       1
    6969    6948    6972    6999       4    6969    6948    6972    7002       4
    6969    6993    7029    7101       1    6969    6996   -7035    7101       1
    6963    6930    6960    6984       4    6963    6930    6960    6987       4
    6960    6984    7017    7077       1    6960    6984    7020    7083       1
    6960    6987    7023    7089       1    6960    6987    7026    7095       1
    6954    6918    6951    6975       4    6954    6918    6951    6978       4
    6951    6975    7005    7053       1    6951    6975    7008    7059       1
    6951    6978    7011    7065       1    6951    6978    7014    7071       1
    6948    6969    6993    7029       1    6948    6969    6996    7035       1
    6948    6972    6999    7044       1    6948    6972    7002    7050       1
    6933    6963    6930    6960       1    6930    6960    6984    7017       4
    6930    6960    6984    7020       4    6930    6960    6987    7023       4
    6930    6960    6987    7026       4    6924    6894    6900    6933       5
    6924    6954    6918    6951       1    6918    6951    6975    7005       4
    6918    6951    6975    7008       4    6918    6951    6978    7011       4
    6918    6951    6978    7014       4    6912    6948    6969    6993       4
    6912    6948    6969    6996       4    6912    6948    6972    6999       4
    6912    6948    6972    7002       4    6906    6912    6948    6969       4
    6906    6912    6948    6972       4    6900    6879    6897    6930       1
    6900    6894    6924    6954       1    6900    6933   -6963    6930       1
    6897    6879    6900    6933       1    6897    6930    6960    6984       4
    6897    6930    6960    6987       4    6897    6930   -6963    6933       1
    6894    6876    6891    6918       1    6894    6900    6879    6897       1
    6894    6900    6933    6963       1    6894    6924   -6954    6918       1
    6891    6876    6894    6900       1    6891    6876    6894    6924       1
    6891    6918    6951    6975       4    6891    6918    6951    6978       4
    6891    6918   -6954    6924       1    6888    6912    6948    6969       4
    6888    6912    6948    6972       4    6885    6870    6873    6888       1
    6885    6906   -6912    6888       1    6885    6906    6912    6948       1
    6879    6855    6873    6888       6    6879    6855    6876    6891       6
    6879    6855   -6876    6894       7    6879    6897    6930    6960       1
    6879    6897    6930    6963       1    6879    6900    6894    6924       5
    6879    6900   -6933    6963       1    6876    6855    6873    6888       6
    6876    6855    6879    6897       6    6876    6855   -6879    6900       7
    6876    6891    6918    6951       1    6876    6891    6918    6954       1
    6876    6894   -6900    6879       5    6876    6894    6900    6933       5
    6876    6894   -6924    6954       1    6873    6855    6876    6891       6
    6873    6855    6876    6894       7    6873    6855    6879    6897       6
    6873    6855    6879    6900       7    6873    6870    6885    6906       1
    6873    6888   -6912    6906       1    6873    6888    6912    6948       1
    6870    6873    6855    6876       7    6870    6873    6855    6879       7
    6870    6873    6888    6912       1    6870    6885   -6906    6912       1
    6855    6828   -6852    6870       1    6855    6873    6870    6885       1
    6855    6873    6888    6912       1    6855    6876    6891    6918       1
    6855    6876   -6894    6900       1    6855    6876    6894    6924       1
    6855    6879    6897    6930       1    6855    6879   -6900    6894       1
    6855    6879    6900    6933       1    6852    6828   -6855    6873       7
    6852    6828    6855    6876       7    6852    6828    6855    6879       7
    6852    6870   -6873    6855       1    6852    6870    6873    6888       1
    6852    6870    6885    6906       1    6846    6861    6882    6903       3
    6840    6861    6882    6903       3    6834    6852    6828    6855       1
    6834    6852    6870    6873       5    6834    6852    6870    6885       5
    6828    6852   -6870    6873       5    6828    6852    6870    6885       5
    6828    6855   -6873    6870       7    6828    6855    6873    6888       6
    6828    6855    6876    6891       6    6828    6855    6876    6894       7
    6828    6855    6879    6897       6    6828    6855    6879    6900       7
    6825    6813    6822    6840       1    6825    6846   -6861    6840       1
    6825    6846    6861    6882       1    6822    6813    6825    6846       1
    6822    6840   -6861    6846       1    6822    6840    6861    6882       1
    6819    6810    6816    6828       1    6819    6834   -6852    6828       1
    6819    6834    6852    6870       1    6816    6810    6819    6834       1
    6816    6828   -6852    6834       1    6816    6828    6852    6870       1
    6816    6828    6855    6873       6    6816    6828    6855    6876       6
    6816    6828    6855    6879       6    6813    6807    6810    6816       4
    6813    6807    6810    6819       4    6813    6822    6840    6861       1
    6813    6825   -6846    6861       1    6810    6807    6813    6822       4
    6810    6807    6813    6825       4    6810    6816    6828    6852       1
    6810    6816    6828    6855       1    6810    6819   -6834    6852       1
    6807    6810    6816    6828       1    6807    6810    6819    6834       1
    6807    6813    6822    6840       1    6807    6813    6825    6846       1
    6798    6807    6810    6816       4    6798    6807    6810    6819       4
    6798    6807    6813    6822       4    6798    6807    6813    6825       4
    6792    6798    6807    6810       4    6792    6798    6807    6813       4
    6786    6798    6807    6810       4    6786    6798    6807    6813       4
    6774    6765    6771    6786       1    6774    6792   -6798    6786       1
    6774    6792    6798    6807       1    6771    6765    6774    6792       1
    6771    6786   -6798    6792       1    6771    6786    6798    6807       1
    6768    6762    6765    6771       3    6768    6762    6765    6774       3
    6765    6771    6786    6798       1    6765    6774   -6792    6798       1
    6762    6765    6771    6786       1    6762    6765    6774    6792       1
    7578    7629    7653    7671       3    7572    7629    7653    7671       3
    7566    7620    7650    7668       3    7560    7620    7650    7668       3
    7554    7611    7647    7665       3    7548    7611    7647    7665       3
    7542    7605    7644    7662       3    7536    7605    7644    7662       3
    7533    7593    7641    7659       3    7527    7593    7641    7659       3
    7518    7584    7638    7656       3    7512    7584    7638    7656       3
    7509    7470    7506    7572       1    7509    7578   -7629    7572       1
    7509    7578    7629    7653       1    7506    7470    7509    7578       1
    7506    7572   -7629    7578       1    7506    7572    7629    7653       1
    7503    7467    7500    7560       1    7503    7566   -7620    7560       1
    7503    7566    7620    7650       1    7500    7467    7503    7566       1
    7500    7560   -7620    7566       1    7500    7560    7620    7650       1
    7497    7461    7494    7548       1    7497    7554   -7611    7548       1
    7497    7554    7611    7647       1    7494    7461    7497    7554       1
    7494    7548   -7611    7554       1    7494    7548    7611    7647       1
    7491    7458    7488    7536       1    7491    7542   -7605    7536       1
    7491    7542    7605    7644       1    7488    7458    7491    7542       1
    7488    7536   -7605    7542       1    7488    7536    7605    7644       1
    7485    7455    7482    7527       1    7485    7533   -7593    7527       1
    7485    7533    7593    7641       1    7482    7455    7485    7533       1
    7482    7527   -7593    7533       1    7482    7527    7593    7641       1
    7479    7452    7476    7512       1    7479    7518   -7584    7512       1
    7479    7518    7584    7638       1    7476    7452    7479    7518       1
    7476    7512   -7584    7518       1    7476    7512    7584    7638       1
    7470    7443    7467    7500       4    7470    7443    7467    7503       4
    7470    7506    7572    7629       1    7470    7509   -7578    7629       1
    7467    7443    7470    7506       4    7467    7443    7470    7509       4
    7467    7500    7560    7620       1    7467    7503   -7566    7620       1
    7461    7434    7458    7488       4    7461    7434    7458    7491       4
    7461    7494    7548    7611       1    7461    7497   -7554    7611       1
    7458    7434    7461    7494       4    7458    7434    7461    7497       4
    7458    7488    7536    7605       1    7458    7491   -7542    7605       1
    7455    7431    7452    7476       4    7455    7431    7452    7479       4
    7455    7482    7527    7593       1    7455    7485   -7533    7593       1
    7452    7431    7455    7482       4    7452    7431    7455    7485       4
    7452    7476    7512    7584       1    7452    7479   -7518    7584       1
    7446    7413    7443    7467       4    7446    7413    7443    7470       4
    7443    7467    7500    7560       1    7443    7467    7503    7566       1
    7443    7470    7506    7572       1    7443    7470    7509    7578       1
    7437    7401    7434    7458       4    7437    7401    7434    7461       4
    7434    7458    7488    7536       1    7434    7458    7491    7542       1
    7434    7461    7494    7548       1    7434    7461    7497    7554       1
    7431    7452    7476    7512       1    7431    7452    7479    7518       1
    7431    7455    7482    7527       1    7431    7455    7485    7533       1
    7416    7446    7413    7443       1    7413    7443    7467    7500       4
    7413    7443    7467    7503       4    7413    7443    7470    7506       4
    7413    7443    7470    7509       4    7407    7377    7383    7416       5
    7407    7437    7401    7434       1    7401    7434    7458    7488       4
    7401    7434    7458    7491       4    7401    7434    7461    7494       4
    7401    7434    7461    7497       4    7395    7431    7452    7476       4
    7395    7431    7452    7479       4    7395    7431    7455    7482       4
    7395    7431    7455    7485       4    7389    7395    7431    7452       4
    7389    7395    7431    7455       4    7383    7362    7380    7413       1
    7383    7377    7407    7437       1    7383    7416   -7446    7413       1
    7380    7362    7383    7416       1    7380    7413    7443    7467       4
    7380    7413    7443    7470       4    7380    7413   -7446    7416       1
    7377    7359    7374    7401       1    7377    7383    7362    7380       1
    7377    7383    7416    7446       1    7377    7407   -7437    7401       1
    7374    7359    7377    7383       1    7374    7359    7377    7407       1
    7374    7401    7434    7458       4    7374    7401    7434    7461       4
    7374    7401   -7437    7407       1    7371    7395    7431    7452       4
    7371    7395    7431    7455       4    7368    7353    7356    7371       1
    7368    7389   -7395    7371       1    7368    7389    7395    7431       1
    7362    7338    7356    7371       6    7362    7338    7359    7374       6
    7362    7338   -7359    7377       7    7362    7380    7413    7443       1
    7362    7380    7413    7446       1    7362    7383    7377    7407       5
    7362    7383   -7416    7446       1    7359    7338    7356    7371       6
    7359    7338    7362    7380       6    7359    7338   -7362    7383       7
    7359    7374    7401    7434       1    7359    7374    7401    7437       1
    7359    7377   -7383    7362       5    7359    7377    7383    7416       5
    7359    7377   -7407    7437       1    7356    7338    7359    7374       6
    7356    7338    7359    7377       7    7356    7338    7362    7380       6
    7356    7338    7362    7383       7    7356    7353    7368    7389       1
    7356    7371   -7395    7389       1    7356    7371    7395    7431       1
    7353    7356    7338    7359       7    7353    7356    7338    7362       7
    7353    7356    7371    7395       1    7353    7368   -7389    7395       1
    7338    7311   -7335    7353       1    7338    7356    7353    7368       1
    7338    7356    7371    7395       1    7338    7359    7374    7401       1
    7338    7359   -7377    7383       1    7338    7359    7377    7407       1
    7338    7362    7380    7413       1    7338    7362   -7383    7377       1
    7338    7362    7383    7416       1    7335    7311   -7338    7356       7
    7335    7311    7338    7359       7    7335    7311    7338    7362       7
    7335    7353   -7356    7338       1    7335    7353    7356    7371       1
    7335    7353    7368    7389       1    7329    7344    7365    7386       3
    7323    7344    7365    7386       3    7317    7335    7311    7338       1
    7317    7335    7353    7356       5    7317    7335    7353    7368       5
    7311    7335   -7353    7356       5    7311    7335    7353    7368       5
    7311    7338   -7356    7353       7    7311    7338    7356    7371       6
    7311    7338    7359    7374       6    7311    7338    7359    7377       7
    7311    7338    7362    7380       6    7311    7338    7362    7383       7
    7308    7296    7305    7323       1    7308    7329   -7344    7323       1
    7308    7329    7344    7365       1    7305    7296    7308    7329       1
    7305    7323   -7344    7329       1    7305    7323    7344    7365       1
    7302    7293    7299    7311       1    7302    7317   -7335    7311       1
    7302    7317    7335    7353       1    7299    7293    7302    7317       1
    7299    7311   -7335    7317       1    7299    7311    7335    7353       1
    7299    7311    7338    7356       6    7299    7311    7338    7359       6
    7299    7311    7338    7362       6    7296    7290    7293    7299       4
    7296    7290    7293    7302       4    7296    7305    7323    7344       1
    7296    7308   -7329    7344       1    7293    7290    7296    7305       4
    7293    7290    7296    7308       4    7293    7299    7311    7335       1
    7293    7299    7311    7338       1    7293    7302   -7317    7335       1
    7290    7293    7299    7311       1    7290    7293    7302    7317       1
    7290    7296    7305    7323       1    7290    7296    7308    7329       1
    7281    7290    7293    7299       4    7281    7290    7293    7302       4
    7281    7290    7296    7305       4    7281    7290    7296    7308       4
    7275    7281    7290    7293       4    7275    7281    7290    7296       4
    7269    7281    7290    7293       4    7269    7281    7290    7296       4
    7257    7248    7254    7269       1    7257    7275   -7281    7269       1
    7257    7275    7281    7290       1    7254    7248    7257    7275       1
    7254    7269   -7281    7275       1    7254    7269    7281    7290       1
    7251    7245    7248    7254       3    7251    7245    7248    7257       3
    7248    7254    7269    7281       1    7248    7257   -7275    7281       1
    7245    7248    7254    7269       1    7245    7248    7257    7275       1
    8061    8112    8136    8154       3    8055    8112    8136    8154       3
    8049    8103    8133    8151       3    8043    8103    8133    8151       3
    8037    8094    8130    8148       3    8031    8094    8130    8148       3
    8025    8088    8127    8145       3    8019    8088    8127    8145       3
    8016    8076    8124    8142       3    8010    8076    8124    8142       3
    8001    8067    8121    8139       3    7995    8067    8121    8139       3
    7992    7953    7989    8055       1    7992    8061   -8112    8055       1
    7992    8061    8112    8136       1    7989    7953    7992    8061       1
    7989    8055   -8112    8061       1    7989    8055    8112    8136       1
    7986    7950    7983    8043       1    7986    8049   -8103    8043       1
    7986    8049    8103    8133       1    7983    7950    7986    8049       1
    7983    8043   -8103    8049       1    7983    8043    8103    8133       1
    7980    7944    7977    8031       1    7980    8037   -8094    8031       1
    7980    8037    8094    8130       1    7977    7944    7980    8037       1
    7977    8031   -8094    8037       1    7977    8031    8094    8130       1
    7974    7941    7971    8019       1    7974    8025   -8088    8019       1
    7974    8025    8088    8127       1    7971    7941    7974    8025       1
    7971    8019   -8088    8025       1    7971    8019    8088    8127       1
    7968    7938    7965    8010       1    7968    8016   -8076    8010       1
    7968    8016    8076    8124       1    7965    7938    7968    8016       1
    7965    8010   -8076    8016       1    7965    8010    8076    8124       1
    7962    7935    7959    7995       1    7962    8001   -8067    7995       1
    7962    8001    8067    8121       1    7959    7935    7962    8001       1
    7959    7995   -8067    8001       1    7959    7995    8067    8121       1
    7953    7926    7950    7983       4    7953    7926    7950    7986       4
    7953    7989    8055    8112       1    7953    7992   -8061    8112       1
    7950    7926    7953    7989       4    7950    7926    7953    7992       4
    7950    7983    8043    8103       1    7950    7986   -8049    8103       1
    7944    7917    7941    7971       4    7944    7917    7941    7974       4
    7944    7977    8031    8094       1    7944    7980   -8037    8094       1
    7941    7917    7944    7977       4    7941    7917    7944    7980       4
    7941    7971    8019    8088       1    7941    7974   -8025    8088       1
    7938    7914    7935    7959       4    7938    7914    7935    7962       4
    7938    7965    8010    8076       1    7938    7968   -8016    8076       1
    7935    7914    7938    7965       4    7935    7914    7938    7968       4
    7935    7959    7995    8067       1    7935    7962   -8001    8067       1
    7929    7896    7926    7950       4    7929    7896    7926    7953       4
    7926    7950    7983    8043       1    7926    7950    7986    8049       1
    7926    7953    7989    8055       1    7926    7953    7992    8061       1
    7920    7884    7917    7941       4    7920    7884    7917    7944       4
    7917    7941    7971    8019       1    7917    7941    7974    8025       1
    7917    7944    7977    8031       1    7917    7944    7980    8037       1
    7914    7935    7959    7995       1    7914    7935    7962    8001       1
    7914    7938    7965    8010       1    7914    7938    7968    8016       1
    7899    7929    7896    7926       1    7896    7926    7950    7983       4
    7896    7926    7950    7986       4    7896    7926    7953    7989       4
    7896    7926    7953    7992       4    7890    7860    7866    7899       5
    7890    7920    7884    7917       1    7884    7917    7941    7971       4
    7884    7917    7941    7974       4    7884    7917    7944    7977       4
    7884    7917    7944    7980       4    7878    7914    7935    7959       4
    7878    7914    7935    7962       4    7878    7914    7938    7965       4
    7878    7914    7938    7968       4    7872    7878    7914    7935       4
    7872    7878    7914    7938       4    7866    7845    7863    7896       1
    7866    7860    7890    7920       1    7866    7899   -7929    7896       1
    7863    7845    7866    7899       1    7863    7896    7926    7950       4
    7863    7896    7926    7953       4    7863    7896   -7929    7899       1
    7860    7842    7857    7884       1    7860    7866    7845    7863       1
    7860    7866    7899    7929       1    7860    7890   -7920    7884       1
    7857    7842    7860    7866       1    7857    7842    7860    7890       1
    7857    7884    7917    7941       4    7857    7884    7917    7944       4
    7857    7884   -7920    7890       1    7854    7878    7914    7935       4
    7854    7878    7914    7938       4    7851    7836    7839    7854       1
    7851    7872   -7878    7854       1    7851    7872    7878    7914       1
    7845    7821    7839    7854       6    7845    7821    7842    7857       6
    7845    7821   -7842    7860       7    7845    7863    7896    7926       1
    7845    7863    7896    7929       1    7845    7866    7860    7890       5
    7845    7866   -7899    7929       1    7842    7821    7839    7854       6
    7842    7821    7845    7863       6    7842    7821   -7845    7866       7
    7842    7857    7884    7917       1    7842    7857    7884    7920       1
    7842    7860   -7866    7845       5    7842    7860    7866    7899       5
    7842    7860   -7890    7920       1    7839    7821    7842    7857       6
    7839    7821    7842    7860       7    7839    7821    7845    7863       6
    7839    7821    7845    7866       7    7839    7836    7851    7872       1
    7839    7854   -7878    7872       1    7839    7854    7878    7914       1
    7836    7839    7821    7842       7    7836    7839    7821    7845       7
    7836    7839    7854    7878       1    7836    7851   -7872    7878       1
    7821    7794   -7818    7836       1    7821    7839    7836    7851       1
    7821    7839    7854    7878       1    7821    7842    7857    7884       1
    7821    7842   -7860    7866       1    7821    7842    7860    7890       1
    7821    7845    7863    7896       1    7821    7845   -7866    7860       1
    7821    7845    7866    7899       1    7818    7794   -7821    7839       7
    7818    7794    7821    7842       7    7818    7794    7821    7845       7
    7818    7836   -7839    7821       1    7818    7836    7839    7854       1
    7818    7836    7851    7872       1    7812    7827    7848    7869       3
    7806    7827    7848    7869       3    7800    7818    7794    7821       1
    7800    7818    7836    7839       5    7800    7818    7836    7851       5
    7794    7818   -7836    7839       5    7794    7818    7836    7851       5
    7794    7821   -7839    7836       7    7794    7821    7839    7854       6
    7794    7821    7842    7857       6    7794    7821    7842    7860       7
    7794    7821    7845    7863       6    7794    7821    7845    7866       7
    7791    7779    7788    7806       1    7791    7812   -7827    7806       1
    7791    7812    7827    7848       1    7788    7779    7791    7812       1
    7788    7806   -7827    7812       1    7788    7806    7827    7848       1
    7785    7776    7782    7794       1    7785    7800   -7818    7794       1
    7785    7800    7818    7836       1    7782    7776    7785    7800       1
    7782    7794   -7818    7800       1    7782    7794    7818    7836       1
    7782    7794    7821    7839       6    7782    7794    7821    7842       6
    7782    7794    7821    7845       6    7779    7773    7776    7782       4
    7779    7773    7776    7785       4    7779    7788    7806    7827       1
    7779    7791   -7812    7827       1    7776    7773    7779    7788       4
    7776    7773    7779    7791       4    7776    7782    7794    7818       1
    7776    7782    7794    7821       1    7776    7785   -7800    7818       1
    7773    7776    7782    7794       1    7773    7776    7785    7800       1
    7773    7779    7788    7806       1    7773    7779    7791    7812       1
    7764    7773    7776    7782       4    7764    7773    7776    7785       4
    7764    7773    7779    7788       4    7764    7773    7779    7791       4
    7758    7764    7773    7776       4    7758    7764    7773    7779       4
    7752    7764    7773    7776       4    7752    7764    7773    7779       4
    7740    7731    7737    7752       1    7740    7758   -7764    7752       1
    7740    7758    7764    7773       1    7737    7731    7740    7758       1
    7737    7752   -7764    7758       1    7737    7752    7764    7773       1
    7734    7728    7731    7737       3    7734    7728    7731    7740       3
    7731    7737    7752    7764       1    7731    7740   -7758    7764       1
    7728    7731    7737    7752       1    7728    7731    7740    7758       1
    8544    8595    8619    8637       3    8538    8595    8619    8637       3
    8532    8586    8616    8634       3    8526    8586    8616    8634       3
    8520    8577    8613    8631       3    8514    8577    8613    8631       3
    8508    8571    8610    8628       3    8502    8571    8610    8628       3
    8499    8559    8607    8625       3    8493    8559    8607    8625       3
    8484    8550    8604    8622       3    8478    8550    8604    8622       3
    8475    8436    8472    8538       1    8475    8544   -8595    8538       1
    8475    8544    8595    8619       1    8472    8436    8475    8544       1
    8472    8538   -8595    8544       1    8472    8538    8595    8619       1
    8469    8433    8466    8526       1    8469    8532   -8586    8526       1
    8469    8532    8586    8616       1    8466    8433    8469    8532       1
    8466    8526   -8586    8532       1    8466    8526    8586    8616       1
    8463    8427    8460    8514       1    8463    8520   -8577    8514       1
    8463    8520    8577    8613       1    8460    8427    8463    8520       1
    8460    8514   -8577    8520       1    8460    8514    8577    8613       1
    8457    8424    8454    8502       1    8457    8508   -8571    8502       1
    8457    8508    8571    8610       1    8454    8424    8457    8508       1
    8454    8502   -8571    8508       1    8454    8502    8571    8610       1
    8451    8421    8448    8493       1    8451    8499   -8559    8493       1
    8451    8499    8559    8607       1    8448    8421    8451    8499       1
    8448    8493   -8559    8499       1    8448    8493    8559    8607       1
    8445    8418    8442    8478       1    8445    8484   -8550    8478       1
    8445    8484    8550    8604       1    8442    8418    8445    8484       1
    8442    8478   -8550    8484       1    8442    8478    8550    8604       1
    8436    8409    8433    8466       4    8436    8409    8433    8469       4
    8436    8472    8538    8595       1    8436    8475   -8544    8595       1
    8433    8409    8436    8472       4    8433    8409    8436    8475       4
    8433    8466    8526    8586       1    8433    8469   -8532    8586       1
    8427    8400    8424    8454       4    8427    8400    8424    8457       4
    8427    8460    8514    8577       1    8427    8463   -8520    8577       1
    8424    8400    8427    8460       4    8424    8400    8427    8463       4
    8424    8454    8502    8571       1    8424    8457   -8508    8571       1
    8421    8397    8418    8442       4    8421    8397    8418    8445       4
    8421    8448    8493    8559       1    8421    8451   -8499    8559       1
    8418    8397    8421    8448       4    8418    8397    8421    8451       4
    8418    8442    8478    8550       1    8418    8445   -8484    8550       1
    8412    8379    8409    8433       4    8412    8379    8409    8436       4
    8409    8433    8466    8526       1    8409    8433    8469    8532       1
    8409    8436    8472    8538       1    8409    8436    8475    8544       1
    8403    8367    8400    8424       4    8403    8367    8400    8427       4
    8400    8424    8454    8502       1    8400    8424    8457    8508       1
    8400    8427    8460    8514       1    8400    8427    8463    8520       1
    8397    8418    8442    8478       1    8397    8418    8445    8484       1
    8397    8421    8448    8493       1    8397    8421    8451    8499       1
    8382    8412    8379    8409       1    8379    8409    8433    8466       4
    8379    8409    8433    8469       4    8379    8409    8436    8472       4
    8379    8409    8436    8475       4    8373    8343    8349    8382       5
    8373    8403    8367    8400       1    8367    8400    8424    8454       4
    8367    8400    8424    8457       4    8367    8400    8427    8460       4
    8367    8400    8427    8463       4    8361    8397    8418    8442       4
    8361    8397    8418    8445       4    8361    8397    8421    8448       4
    8361    8397    8421    8451       4    8355    8361    8397    8418       4
    8355    8361    8397    8421       4    8349    8328    8346    8379       1
    8349    8343    8373    8403       1    8349    8382   -8412    8379       1
    8346    8328    8349    8382       1    8346    8379    8409    8433       4
    8346    8379    8409    8436       4    8346    8379   -8412    8382       1
    8343    8325    8340    8367       1    8343    8349    8328    8346       1
    8343    8349    8382    8412       1    8343    8373   -8403    8367       1
    8340    8325    8343    8349       1    8340    8325    8343    8373       1
    8340    8367    8400    8424       4    8340    8367    8400    8427       4
    8340    8367   -8403    8373       1    8337    8361    8397    8418       4
    8337    8361    8397    8421       4    8334    8319    8322    8337       1
    8334    8355   -8361    8337       1    8334    8355    8361    8397       1
    8328    8304    8322    8337       6    8328    8304    8325    8340       6
    8328    8304   -8325    8343       7    8328    8346    8379    8409       1
    8328    8346    8379    8412       1    8328    8349    8343    8373       5
    8328    8349   -8382    8412       1    8325    8304    8322    8337       6
    8325    8304    8328    8346       6    8325    8304   -8328    8349       7
    8325    8340    8367    8400       1    8325    8340    8367    8403       1
    8325    8343   -8349    8328       5    8325    8343    8349    8382       5
    8325    8343   -8373    8403       1    8322    8304    8325    8340       6
    8322    8304    8325    8343       7    8322    8304    8328    8346       6
    8322    8304    8328    8349       7    8322    8319    8334    8355       1
    8322    8337   -8361    8355       1    8322    8337    8361    8397       1
    8319    8322    8304    8325       7    8319    8322    8304    8328       7
    8319    8322    8337    8361       1    8319    8334   -8355    8361       1
    8304    8277   -8301    8319       1    8304    8322    8319    8334       1
    8304    8322    8337    8361       1    8304    8325    8340    8367       1
    8304    8325   -8343    8349       1    8304    8325    8343    8373       1
    8304    8328    8346    8379       1    8304    8328   -8349    8343       1
    8304    8328    8349    8382       1    8301    8277   -8304    8322       7
    8301    8277    8304    8325       7    8301    8277    8304    8328       7
    8301    8319   -8322    8304       1    8301    8319    8322    8337       1
    8301    8319    8334    8355       1    8295    8310    8331    8352       3
    8289    8310    8331    8352       3    8283    8301    8277    8304       1
    8283    8301    8319    8322       5    8283    8301    8319    8334       5
    8277    8301   -8319    8322       5    8277    8301    8319    8334       5
    8277    8304   -8322    8319       7    8277    8304    8322    8337       6
    8277    8304    8325    8340       6    8277    8304    8325    8343       7
    8277    8304    8328    8346       6    8277    8304    8328    8349       7
    8274    8262    8271    8289       1    8274    8295   -8310    8289       1
    8274    8295    8310    8331       1    8271    8262    8274    8295       1
    8271    8289   -8310    8295       1    8271    8289    8310    8331       1
    8268    8259    8265    8277       1    8268    8283   -8301    8277       1
    8268    8283    8301    8319       1    8265    8259    8268    8283       1
    8265    8277   -8301    8283       1    8265    8277    8301    8319       1
    8265    8277    8304    8322       6    8265    8277    8304    8325       6
    8265    8277    8304    8328       6    8262    8256    8259    8265       4
    8262    8256    8259    8268       4    8262    8271    8289    8310       1
    8262    8274   -8295    8310       1    8259    8256    8262    8271       4
    8259    8256    8262    8274       4    8259    8265    8277    8301       1
    8259    8265    8277    8304       1    8259    8268   -8283    8301       1
    8256    8259    8265    8277       1    8256    8259    8268    8283       1
    8256    8262    8271    8289       1    8256    8262    8274    8295       1
    8247    8256    8259    8265       4    8247    8256    8259    8268       4
    8247    8256    8262    8271       4    8247    8256    8262    8274       4
    8241    8247    8256    8259       4    8241    8247    8256    8262       4
    8235    8247    8256    8259       4    8235    8247    8256    8262       4
    8223    8214    8220    8235       1    8223    8241   -8247    8235       1
    8223    8241    8247    8256       1    8220    8214    8223    8241       1
    8220    8235   -8247    8241       1    8220    8235    8247    8256       1
    8217    8211    8214    8220       3    8217    8211    8214    8223       3
    8214    8220    8235    8247       1    8214    8223   -8241    8247       1
    8211    8214    8220    8235       1    8211    8214    8223    8241       1
    9027    9078    9102    9120       3    9021    9078    9102    9120       3
    9015    9069    9099    9117       3    9009    9069    9099    9117       3
    9003    9060    9096    9114       3    8997    9060    9096    9114       3
    8991    9054    9093    9111       3    8985    9054    9093    9111       3
    8982    9042    9090    9108       3    8976    9042    9090    9108       3
    8967    9033    9087    9105       3    8961    9033    9087    9105       3
    8958    8919    8955    9021       1    8958    9027   -9078    9021       1
    8958    9027    9078    9102       1    8955    8919    8958    9027       1
    8955    9021   -9078    9027       1    8955    9021    9078    9102       1
    8952    8916    8949    9009       1    8952    9015   -9069    9009       1
    8952    9015    9069    9099       1    8949    8916    8952    9015       1
    8949    9009   -9069    9015       1    8949    9009    9069    9099       1
    8946    8910    8943    8997       1    8946    9003   -9060    8997       1
    8946    9003    9060    9096       1    8943    8910    8946    9003       1
    8943    8997   -9060    9003       1    8943    8997    9060    9096       1
    8940    8907    8937    8985       1    8940    8991   -9054    8985       1
    8940    8991    9054    9093       1    8937    8907    8940    8991       1
    8937    8985   -9054    8991       1    8937    8985    9054    9093       1
    8934    8904    8931    8976       1    8934    8982   -9042    8976       1
    8934    8982    9042    9090       1    8931    8904    8934    8982       1
    8931    8976   -9042    8982       1    8931    8976    9042    9090       1
    8928    8901    8925    8961       1    8928    8967   -9033    8961       1
    8928    8967    9033    9087       1    8925    8901    8928    8967       1
    8925    8961   -9033    8967       1    8925    8961    9033    9087       1
    8919    8892    8916    8949       4    8919    8892    8916    8952       4
    8919    8955    9021    9078       1    8919    8958   -9027    9078       1
    8916    8892    8919    8955       4    8916    8892    8919    8958       4
    8916    8949    9009    9069       1    8916    8952   -9015    9069       1
    8910    8883    8907    8937       4    8910    8883    8907    8940       4
    8910    8943    8997    9060       1    8910    8946   -9003    9060       1
    8907    8883    8910    8943       4    8907    8883    8910    8946       4
    8907    8937    8985    9054       1    8907    8940   -8991    9054       1
    8904    8880    8901    8925       4    8904    8880    8901    8928       4
    8904    8931    8976    9042       1    8904    8934   -8982    9042       1
    8901    8880    8904    8931       4    8901    8880    8904    8934       4
    8901    8925    8961    9033       1    8901    8928   -8967    9033       1
    8895    8862    8892    8916       4    8895    8862    8892    8919       4
    8892    8916    8949    9009       1    8892    8916    8952    9015       1
    8892    8919    8955    9021       1    8892    8919    8958    9027       1
    8886    8850    8883    8907       4    8886    8850    8883    8910       4
    8883    8907    8937    8985       1    8883    8907    8940    8991       1
    8883    8910    8943    8997       1    8883    8910    8946    9003       1
    8880    8901    8925    8961       1    8880    8901    8928    8967       1
    8880    8904    8931    8976       1    8880    8904    8934    8982       1
    8865    8895    8862    8892       1    8862    8892    8916    8949       4
    8862    8892    8916    8952       4    8862    8892    8919    8955       4
    8862    8892    8919    8958       4    8856    8826    8832    8865       5
    8856    8886    8850    8883       1    8850    8883    8907    8937       4
    8850    8883    8907    8940       4    8850    8883    8910    8943       4
    8850    8883    8910    8946       4    8844    8880    8901    8925       4
    8844    8880    8901    8928       4    8844    8880    8904    8931       4
    8844    8880    8904    8934       4    8838    8844    8880    8901       4
    8838    8844    8880    8904       4    8832    8811    8829    8862       1
    8832    8826    8856    8886       1    8832    8865   -8895    8862       1
    8829    8811    8832    8865       1    8829    8862    8892    8916       4
    8829    8862    8892    8919       4    8829    8862   -8895    8865       1
    8826    8808    8823    8850       1    8826    8832    8811    8829       1
    8826    8832    8865    8895       1    8826    8856   -8886    8850       1
    8823    8808    8826    8832       1    8823    8808    8826    8856       1
    8823    8850    8883    8907       4    8823    8850    8883    8910       4
    8823    8850   -8886    8856       1    8820    8844    8880    8901       4
    8820    8844    8880    8904       4    8817    8802    8805    8820       1
    8817    8838   -8844    8820       1    8817    8838    8844    8880       1
    8811    8787    8805    8820       6    8811    8787    8808    8823       6
    8811    8787   -8808    8826       7    8811    8829    8862    8892       1
    8811    8829    8862    8895       1    8811    8832    8826    8856       5
    8811    8832   -8865    8895       1    8808    8787    8805    8820       6
    8808    8787    8811    8829       6    8808    8787   -8811    8832       7
    8808    8823    8850    8883       1    8808    8823    8850    8886       1
    8808    8826   -8832    8811       5    8808    8826    8832    8865       5
    8808    8826   -8856    8886       1    8805    8787    8808    8823       6
    8805    8787    8808    8826       7    8805    8787    8811    8829       6
    8805    8787    8811    8832       7    8805    8802    8817    8838       1
    8805    8820   -8844    8838       1    8805    8820    8844    8880       1
    8802    8805    8787    8808       7    8802    8805    8787    8811       7
    8802    8805    8820    8844       1    8802    8817   -8838    8844       1
    8787    8760   -8784    8802       1    8787    8805    8802    8817       1
    8787    8805    8820    8844       1    8787    8808    8823    8850       1
    8787    8808   -8826    8832       1    8787    8808    8826    8856       1
    8787    8811    8829    8862       1    8787    8811   -8832    8826       1
    8787    8811    8832    8865       1    8784    8760   -8787    8805       7
    8784    8760    8787    8808       7    8784    8760    8787    8811       7
    8784    8802   -8805    8787       1    8784    8802    8805    8820       1
    8784    8802    8817    8838       1    8778    8793    8814    8835       3
    8772    8793    8814    8835       3    8766    8784    8760    8787       1
    8766    8784    8802    8805       5    8766    8784    8802    8817       5
    8760    8784   -8802    8805       5    8760    8784    8802    8817       5
    8760    8787   -8805    8802       7    8760    8787    8805    8820       6
    8760    8787    8808    8823       6    8760    8787    8808    8826       7
    8760    8787    8811    8829       6    8760    8787    8811    8832       7
    8757    8745    8754    8772       1    8757    8778   -8793    8772       1
    8757    8778    8793    8814       1    8754    8745    8757    8778       1
    8754    8772   -8793    8778       1    8754    8772    8793    8814       1
    8751    8742    8748    8760       1    8751    8766   -8784    8760       1
    8751    8766    8784    8802       1    8748    8742    8751    8766       1
    8748    8760   -8784    8766       1    8748    8760    8784    8802       1
    8748    8760    8787    8805       6    8748    8760    8787    8808       6
    8748    8760    8787    8811       6    8745    8739    8742    8748       4
    8745    8739    8742    8751       4    8745    8754    8772    8793       1
    8745    8757   -8778    8793       1    8742    8739    8745    8754       4
    8742    8739    8745    8757       4    8742    8748    8760    8784       1
    8742    8748    8760    8787       1    8742    8751   -8766    8784       1
    8739    8742    8748    8760       1    8739    8742    8751    8766       1
    8739    8745    8754    8772       1    8739    8745    8757    8778       1
    8730    8739    8742    8748       4    8730    8739    8742    8751       4
    8730    8739    8745    8754       4    8730    8739    8745    8757       4
    8724    8730    8739    8742       4    8724    8730    8739    8745       4
    8718    8730    8739    8742       4    8718    8730    8739    8745       4
    8706    8697    8703    8718       1    8706    8724   -8730    8718       1
    8706    8724    8730    8739       1    8703    8697    8706    8724       1
    8703    8718   -8730    8724       1    8703    8718    8730    8739       1
    8700    8694    8697    8703       3    8700    8694    8697    8706       3
    8697    8703    8718    8730       1    8697    8706   -8724    8730       1
    8694    8697    8703    8718       1    8694    8697    8706    8724       1
    9510    9561    9585    9603       3    9504    9561    9585    9603       3
    9498    9552    9582    9600       3    9492    9552    9582    9600       3
    9486    9543    9579    9597       3    9480    9543    9579    9597       3
    9474    9537    9576    9594       3    9468    9537    9576    9594       3
    9465    9525    9573    9591       3    9459    9525    9573    9591       3
    9450    9516    9570    9588       3    9444    9516    9570    9588       3
    9441    9402    9438    9504       1    9441    9510   -9561    9504       1
    9441    9510    9561    9585       1    9438    9402    9441    9510       1
    9438    9504   -9561    9510       1    9438    9504    9561    9585       1
    9435    9399    9432    9492       1    9435    9498   -9552    9492       1
    9435    9498    9552    9582       1    9432    9399    9435    9498       1
    9432    9492   -9552    9498       1    9432    9492    9552    9582       1
    9429    9393    9426    9480       1    9429    9486   -9543    9480       1
    9429    9486    9543    9579       1    9426    9393    9429    9486       1
    9426    9480   -9543    9486       1    9426    9480    9543    9579       1
    9423    9390    9420    9468       1    9423    9474   -9537    9468       1
    9423    9474    9537    9576       1    9420    9390    9423    9474       1
    9420    9468   -9537    9474       1    9420    9468    9537    9576       1
    9417    9387    9414    9459       1    9417    9465   -9525    9459       1
    9417    9465    9525    9573       1    9414    9387    9417    9465       1
    9414    9459   -9525    9465       1    9414    9459    9525    9573       1
    9411    9384    9408    9444       1    9411    9450   -9516    9444       1
    9411    9450    9516    9570       1    9408    9384    9411    9450       1
    9408    9444   -9516    9450       1    9408    9444    9516    9570       1
    9402    9375    9399    9432       4    9402    9375    9399    9435       4
    9402    9438    9504    9561       1    9402    9441   -9510    9561       1
    9399    9375    9402    9438       4    9399    9375    9402    9441       4
    9399    9432    9492    9552       1    9399    9435   -9498    9552       1
    9393    9366    9390    9420       4    9393    9366    9390    9423       4
    9393    9426    9480    9543       1    9393    9429   -9486    9543       1
    9390    9366    9393    9426       4    9390    9366    9393    9429       4
    9390    9420    9468    9537       1    9390    9423   -9474    9537       1
    9387    9363    9384    9408       4    9387    9363    9384    9411       4
    9387    9414    9459    9525       1    9387    9417   -9465    9525       1
    9384    9363    9387    9414       4    9384    9363    9387    9417       4
    9384    9408    9444    9516       1    9384    9411   -9450    9516       1
    9378    9345    9375    9399       4    9378    9345    9375    9402       4
    9375    9399    9432    9492       1    9375    9399    9435    9498       1
    9375    9402    9438    9504       1    9375    9402    9441    9510       1
    9369    9333    9366    9390       4    9369    9333    9366    9393       4
    9366    9390    9420    9468       1    9366    9390    9423    9474       1
    9366    9393    9426    9480       1    9366    9393    9429    9486       1
    9363    9384    9408    9444       1    9363    9384    9411    9450       1
    9363    9387    9414    9459       1    9363    9387    9417    9465       1
    9348    9378    9345    9375       1    9345    9375    9399    9432       4
    9345    9375    9399    9435       4    9345    9375    9402    9438       4
    9345    9375    9402    9441       4    9339    9309    9315    9348       5
    9339    9369    9333    9366       1    9333    9366    9390    9420       4
    9333    9366    9390    9423       4    9333    9366    9393    9426       4
    9333    9366    9393    9429       4    9327    9363    9384    9408       4
    9327    9363    9384    9411       4    9327    9363    9387    9414       4
    9327    9363    9387    9417       4    9321    9327    9363    9384       4
    9321    9327    9363    9387       4    9315    9294    9312    9345       1
    9315    9309    9339    9369       1    9315    9348   -9378    9345       1
    9312    9294    9315    9348       1    9312    9345    9375    9399       4
    9312    9345    9375    9402       4    9312    9345   -9378    9348       1
    9309    9291    9306    9333       1    9309    9315    9294    9312       1
    9309    9315    9348    9378       1    9309    9339   -9369    9333       1
    9306    9291    9309    9315       1    9306    9291    9309    9339       1
    9306    9333    9366    9390       4    9306    9333    9366    9393       4
    9306    9333   -9369    9339       1    9303    9327    9363    9384       4
    9303    9327    9363    9387       4    9300    9285    9288    9303       1
    9300    9321   -9327    9303       1    9300    9321    9327    9363       1
    9294    9270    9288    9303       6    9294    9270    9291    9306       6
    9294    9270   -9291    9309       7    9294    9312    9345    9375       1
    9294    9312    9345    9378       1    9294    9315    9309    9339       5
    9294    9315   -9348    9378       1    9291    9270    9288    9303       6
    9291    9270    9294    9312       6    9291    9270   -9294    9315       7
    9291    9306    9333    9366       1    9291    9306    9333    9369       1
    9291    9309   -9315    9294       5    9291    9309    9315    9348       5
    9291    9309   -9339    9369       1    9288    9270    9291    9306       6
    9288    9270    9291    9309       7    9288    9270    9294    9312       6
    9288    9270    9294    9315       7    9288    9285    9300    9321       1
    9288    9303   -9327    9321       1    9288    9303    9327    9363       1
    9285    9288    9270    9291       7    9285    9288    9270    9294       7
    9285    9288    9303    9327       1    9285    9300   -9321    9327       1
    9270    9243   -9267    9285       1    9270    9288    9285    9300       1
    9270    9288    9303    9327       1    9270    9291    9306    9333       1
    9270    9291   -9309    9315       1    9270    9291    9309    9339       1
    9270    9294    9312    9345       1    9270    9294   -9315    9309       1
    9270    9294    9315    9348       1    9267    9243   -9270    9288       7
    9267    9243    9270    9291       7    9267    9243    9270    9294       7
    9267    9285   -9288    9270       1    9267    9285    9288    9303       1
    9267    9285    9300    9321       1    9261    9276    9297    9318       3
    9255    9276    9297    9318       3    9249    9267    9243    9270       1
    9249    9267    9285    9288       5    9249    9267    9285    9300       5
    9243    9267   -9285    9288       5    9243    9267    9285    9300       5
    9243    9270   -9288    9285       7    9243    9270    9288    9303       6
    9243    9270    9291    9306       6    9243    9270    9291    9309       7
    9243    9270    9294    9312       6    9243    9270    9294    9315       7
    9240    9228    9237    9255       1    9240    9261   -9276    9255       1
    9240    9261    9276    9297       1    9237    9228    9240    9261       1
    9237    9255   -9276    9261       1    9237    9255    9276    9297       1
    9234    9225    9231    9243       1    9234    9249   -9267    9243       1
    9234    9249    9267    9285       1    9231    9225    9234    9249       1
    9231    9243   -9267    9249       1    9231    9243    9267    9285       1
    9231    9243    9270    9288       6    9231    9243    9270    9291       6
    9231    9243    9270    9294       6    9228    9222    9225    9231       4
    9228    9222    9225    9234       4    9228    9237    9255    9276       1
    9228    9240   -9261    9276       1    9225    9222    9228    9237       4
    9225    9222    9228    9240       4    9225    9231    9243    9267       1
    9225    9231    9243    9270       1    9225    9234   -9249    9267       1
    9222    9225    9231    9243       1    9222    9225    9234    9249       1
    9222    9228    9237    9255       1    9222    9228    9240    9261       1
    9213    9222    9225    9231       4    9213    9222    9225    9234       4
    9213    9222    9228    9237       4    9213    9222    9228    9240       4
    9207    9213    9222    9225       4    9207    9213    9222    9228       4
    9201    9213    9222    9225       4    9201    9213    9222    9228       4
    9189    9180    9186    9201       1    9189    9207   -9213    9201       1
    9189    9207    9213    9222       1    9186    9180    9189    9207       1
    9186    9201   -9213    9207       1    9186    9201    9213    9222       1
    9183    9177    9180    9186       3    9183    9177    9180    9189       3
    9180    9186    9201    9213       1    9180    9189   -9207    9213       1
    9177    9180    9186    9201       1    9177    9180    9189    9207       1
    9993   10044   10068   10086       3    9987   10044   10068   10086       3
    9981   10035   10065   10083       3    9975   10035   10065   10083       3
    9969   10026   10062   10080       3    9963   10026   10062   10080       3
    9957   10020   10059   10077       3    9951   10020   10059   10077       3
    9948   10008   10056   10074       3    9942   10008   10056   10074       3
    9933    9999   10053   10071       3    9927    9999   10053   10071       3
    9924    9885    9921    9987       1    9924    9993  -10044    9987       1
    9924    9993   10044   10068       1    9921    9885    9924    9993       1
    9921    9987  -10044    9993       1    9921    9987   10044   10068       1
    9918    9882    9915    9975       1    9918    9981  -10035    9975       1
    9918    9981   10035   10065       1    9915    9882    9918    9981       1
    9915    9975  -10035    9981       1    9915    9975   10035   10065       1
    9912    9876    9909    9963       1    9912    9969  -10026    9963       1
    9912    9969   10026   10062       1    9909    9876    9912    9969       1
    9909    9963  -10026    9969       1    9909    9963   10026   10062       1
    9906    9873    9903    9951       1    9906    9957  -10020    9951       1
    9906    9957   10020   10059       1    9903    9873    9906    9957       1
    9903    9951  -10020    9957       1    9903    9951   10020   10059       1
    9900    9870    9897    9942       1    9900    9948  -10008    9942       1
    9900    9948   10008   10056       1    9897    9870    9900    9948       1
    9897    9942  -10008    9948       1    9897    9942   10008   10056       1
    9894    9867    9891    9927       1    9894    9933   -9999    9927       1
    9894    9933    9999   10053       1    9891    9867    9894    9933       1
    9891    9927   -9999    9933       1    9891    9927    9999   10053       1
    9885    9858    9882    9915       4    9885    9858    9882    9918       4
    9885    9921    9987   10044       1    9885    9924   -9993   10044       1
    9882    9858    9885    9921       4    9882    9858    9885    9924       4
    9882    9915    9975   10035       1    9882    9918   -9981   10035       1
    9876    9849    9873    9903       4    9876    9849    9873    9906       4
    9876    9909    9963   10026       1    9876    9912   -9969   10026       1
    9873    9849    9876    9909       4    9873    9849    9876    9912       4
    9873    9903    9951   10020       1    9873    9906   -9957   10020       1
    9870    9846    9867    9891       4    9870    9846    9867    9894       4
    9870    9897    9942   10008       1    9870    9900   -9948   10008       1
    9867    9846    9870    9897       4    9867    9846    9870    9900       4
    9867    9891    9927    9999       1    9867    9894   -9933    9999       1
    9861    9828    9858    9882       4    9861    9828    9858    9885       4
    9858    9882    9915    9975       1    9858    9882    9918    9981       1
    9858    9885    9921    9987       1    9858    9885    9924    9993       1
    9852    9816    9849    9873       4    9852    9816    9849    9876       4
    9849    9873    9903    9951       1    9849    9873    9906    9957       1
    9849    9876    9909    9963       1    9849    9876    9912    9969       1
    9846    9867    9891    9927       1    9846    9867    9894    9933       1
    9846    9870    9897    9942       1    9846    9870    9900    9948       1
    9831    9861    9828    9858       1    9828    9858    9882    9915       4
    9828    9858    9882    9918       4    9828    9858    9885    9921       4
    9828    9858    9885    9924       4    9822    9792    9798    9831       5
    9822    9852    9816    9849       1    9816    9849    9873    9903       4
    9816    9849    9873    9906       4    9816    9849    9876    9909       4
    9816    9849    9876    9912       4    9810    9846    9867    9891       4
    9810    9846    9867    9894       4    9810    9846    9870    9897       4
    9810    9846    9870    9900       4    9804    9810    9846    9867       4
    9804    9810    9846    9870       4    9798    9777    9795    9828       1
    9798    9792    9822    9852       1    9798    9831   -9861    9828       1
    9795    9777    9798    9831       1    9795    9828    9858    9882       4
    9795    9828    9858    9885       4    9795    9828   -9861    9831       1
    9792    9774    9789    9816       1    9792    9798    9777    9795       1
    9792    9798    9831    9861       1    9792    9822   -9852    9816       1
    9789    9774    9792    9798       1    9789    9774    9792    9822       1
    9789    9816    9849    9873       4    9789    9816    9849    9876       4
    9789    9816   -9852    9822       1    9786    9810    9846    9867       4
    9786    9810    9846    9870       4    9783    9768    9771    9786       1
    9783    9804   -9810    9786       1    9783    9804    9810    9846       1
    9777    9753    9771    9786       6    9777    9753    9774    9789       6
    9777    9753   -9774    9792       7    9777    9795    9828    9858       1
    9777    9795    9828    9861       1    9777    9798    9792    9822       5
    9777    9798   -9831    9861       1    9774    9753    9771    9786       6
    9774    9753    9777    9795       6    9774    9753   -9777    9798       7
    9774    9789    9816    9849       1    9774    9789    9816    9852       1
    9774    9792   -9798    9777       5    9774    9792    9798    9831       5
    9774    9792   -9822    9852       1    9771    9753    9774    9789       6
    9771    9753    9774    9792       7    9771    9753    9777    9795       6
    9771    9753    9777    9798       7    9771    9768    9783    9804       1
    9771    9786   -9810    9804       1    9771    9786    9810    9846       1
    9768    9771    9753    9774       7    9768    9771    9753    9777       7
    9768    9771    9786    9810       1    9768    9783   -9804    9810       1
    9753    9726   -9750    9768       1    9753    9771    9768    9783       1
    9753    9771    9786    9810       1    9753    9774    9789    9816       1
    9753    9774   -9792    9798       1    9753    9774    9792    9822       1
    9753    9777    9795    9828       1    9753    9777   -9798    9792       1
    9753    9777    9798    9831       1    9750    9726   -9753    9771       7
    9750    9726    9753    9774       7    9750    9726    9753    9777       7
    9750    9768   -9771    9753       1    9750    9768    9771    9786       1
    9750    9768    9783    9804       1    9744    9759    9780    9801       3
    9738    9759    9780    9801       3    9732    9750    9726    9753       1
    9732    9750    9768    9771       5    9732    9750    9768    9783       5
    9726    9750   -9768    9771       5    9726    9750    9768    9783       5
    9726    9753   -9771    9768       7    9726    9753    9771    9786       6
    9726    9753    9774    9789       6    9726    9753    9774    9792       7
    9726    9753    9777    9795       6    9726    9753    9777    9798       7
    9723    9711    9720    9738       1    9723    9744   -9759    9738       1
    9723    9744    9759    9780       1    9720    9711    9723    9744       1
    9720    9738   -9759    9744       1    9720    9738    9759    9780       1
    9717    9708    9714    9726       1    9717    9732   -9750    9726       1
    9717    9732    9750    9768       1    9714    9708    9717    9732       1
    9714    9726   -9750    9732       1    9714    9726    9750    9768       1
    9714    9726    9753    9771       6    9714    9726    9753    9774       6
    9714    9726    9753    9777       6    9711    9705    9708    9714       4
    9711    9705    9708    9717       4    9711    9720    9738    9759       1
    9711    9723   -9744    9759       1    9708    9705    9711    9720       4
    9708    9705    9711    9723       4    9708    9714    9726    9750       1
    9708    9714    9726    9753       1    9708    9717   -9732    9750       1
    9705    9708    9714    9726       1    9705    9708    9717    9732       1
    9705    9711    9720    9738       1    9705    9711    9723    9744       1
    9696    9705    9708    9714       4    9696    9705    9708    9717       4
    9696    9705    9711    9720       4    9696    9705    9711    9723       4
    9690    9696    9705    9708       4    9690    9696    9705    9711       4
    9684    9696    9705    9708       4    9684    9696    9705    9711       4
    9672    9663    9669    9684       1    9672    9690   -9696    9684       1
    9672    9690    9696    9705       1    9669    9663    9672    9690       1
    9669    9684   -9696    9690       1    9669    9684    9696    9705       1
    9666    9660    9663    9669       3    9666    9660    9663    9672       3
    9663    9669    9684    9696       1    9663    9672   -9690    9696       1
    9660    9663    9669    9684       1    9660    9663    9672    9690       1
   10476   10527   10551   10569       3   10470   10527   10551   10569       3
   10464   10518   10548   10566       3   10458   10518   10548   10566       3
   10452   10509   10545   10563       3   10446   10509   10545   10563       3
   10440   10503   10542   10560       3   10434   10503   10542   10560       3
   10431   10491   10539   10557       3   10425   10491   10539   10557       3
   10416   10482   10536   10554       3   10410   10482   10536   10554       3
   10407   10368   10404   10470       1   10407   10476  -10527   10470       1
   10407   10476   10527   10551       1   10404   10368   10407   10476       1
   10404   10470  -10527   10476       1   10404   10470   10527   10551       1
   10401   10365   10398   10458       1   10401   10464  -10518   10458       1
   10401   10464   10518   10548       1   10398   10365   10401   10464       1
   10398   10458  -10518   10464       1   10398   10458   10518   10548       1
   10395   10359   10392   10446       1   10395   10452  -10509   10446       1
   10395   10452   10509   10545       1   10392   10359   10395   10452       1
   10392   10446  -10509   10452       1   10392   10446   10509   10545       1
   10389   10356   10386   10434       1   10389   10440  -10503   10434       1
   10389   10440   10503   10542       1   10386   10356   10389   10440       1
   10386   10434  -10503   10440       1   10386   10434   10503   10542       1
   10383   10353   10380   10425       1   10383   10431  -10491   10425       1
   10383   10431   10491   10539       1   10380   10353   10383   10431       1
   10380   10425  -10491   10431       1   10380   10425   10491   10539       1
   10377   10350   10374   10410       1   10377   10416  -10482   10410       1
   10377   10416   10482   10536       1   10374   10350   10377   10416       1
   10374   10410  -10482   10416       1   10374   10410   10482   10536       1
   10368   10341   10365   10398       4   10368   10341   10365   10401       4
   10368   10404   10470   10527       1   10368   10407  -10476   10527       1
   10365   10341   10368   10404       4   10365   10341   10368   10407       4
   10365   10398   10458   10518       1   10365   10401  -10464   10518       1
   10359   10332   10356   10386       4   10359   10332   10356   10389       4
   10359   10392   10446   10509       1   10359   10395  -10452   10509       1
   10356   10332   10359   10392       4   10356   10332   10359   10395       4
   10356   10386   10434   10503       1   10356   10389  -10440   10503       1
   10353   10329   10350   10374       4   10353   10329   10350   10377       4
   10353   10380   10425   10491       1   10353   10383  -10431   10491       1
   10350   10329   10353   10380       4   10350   10329   10353   10383       4
   10350   10374   10410   10482       1   10350   10377  -10416   10482       1
   10344   10311   10341   10365       4   10344   10311   10341   10368       4
   10341   10365   10398   10458       1   10341   10365   10401   10464       1
   10341   10368   10404   10470       1   10341   10368   10407   10476       1
   10335   10299   10332   10356       4   10335   10299   10332   10359       4
   10332   10356   10386   10434       1   10332   10356   10389   10440       1
   10332   10359   10392   10446       1   10332   10359   10395   10452       1
   10329   10350   10374   10410       1   10329   10350   10377   10416       1
   10329   10353   10380   10425       1   10329   10353   10383   10431       1
   10314   10344   10311   10341       1   10311   10341   10365   10398       4
   10311   10341   10365   10401       4   10311   10341   10368   10404       4
   10311   10341   10368   10407       4   10305   10275   10281   10314       5
   10305   10335   10299   10332       1   10299   10332   10356   10386       4
   10299   10332   10356   10389       4   10299   10332   10359   10392       4
   10299   10332   10359   10395       4   10293   10329   10350   10374       4
   10293   10329   10350   10377       4   10293   10329   10353   10380       4
   10293   10329   10353   10383       4   10287   10293   10329   10350       4
   10287   10293   10329   10353       4   10281   10260   10278   10311       1
   10281   10275   10305   10335       1   10281   10314  -10344   10311       1
   10278   10260   10281   10314       1   10278   10311   10341   10365       4
   10278   10311   10341   10368       4   10278   10311  -10344   10314       1
   10275   10257   10272   10299       1   10275   10281   10260   10278       1
   10275   10281   10314   10344       1   10275   10305  -10335   10299       1
   10272   10257   10275   10281       1   10272   10257   10275   10305       1
   10272   10299   10332   10356       4   10272   10299   10332   10359       4
   10272   10299  -10335   10305       1   10269   10293   10329   10350       4
   10269   10293   10329   10353       4   10266   10251   10254   10269       1
   10266   10287  -10293   10269       1   10266   10287   10293   10329       1
   10260   10236   10254   10269       6   10260   10236   10257   10272       6
   10260   10236  -10257   10275       7   10260   10278   10311   10341       1
   10260   10278   10311   10344       1   10260   10281   10275   10305       5
   10260   10281  -10314   10344       1   10257   10236   10254   10269       6
   10257   10236   10260   10278       6   10257   10236  -10260   10281       7
   10257   10272   10299   10332       1   10257   10272   10299   10335       1
   10257   10275  -10281   10260       5   10257   10275   10281   10314       5
   10257   10275  -10305   10335       1   10254   10236   10257   10272       6
   10254   10236   10257   10275       7   10254   10236   10260   10278       6
   10254   10236   10260   10281       7   10254   10251   10266   10287       1
   10254   10269  -10293   10287       1   10254   10269   10293   10329       1
   10251   10254   10236   10257       7   10251   10254   10236   10260       7
   10251   10254   10269   10293       1   10251   10266  -10287   10293       1
   10236   10209  -10233   10251       1   10236   10254   10251   10266       1
   10236   10254   10269   10293       1   10236   10257   10272   10299       1
   10236   10257  -10275   10281       1   10236   10257   10275   10305       1
   10236   10260   10278   10311       1   10236   10260  -10281   10275       1
   10236   10260   10281   10314       1   10233   10209  -10236   10254       7
   10233   10209   10236   10257       7   10233   10209   10236   10260       7
   10233   10251  -10254   10236       1   10233   10251   10254   10269       1
   10233   10251   10266   10287       1   10227   10242   10263   10284       3
   10221   10242   10263   10284       3   10215   10233   10209   10236       1
   10215   10233   10251   10254       5   10215   10233   10251   10266       5
   10209   10233  -10251   10254       5   10209   10233   10251   10266       5
   10209   10236  -10254   10251       7   10209   10236   10254   10269       6
   10209   10236   10257   10272       6   10209   10236   10257   10275       7
   10209   10236   10260   10278       6   10209   10236   10260   10281       7
   10206   10194   10203   10221       1   10206   10227  -10242   10221       1
   10206   10227   10242   10263       1   10203   10194   10206   10227       1
   10203   10221  -10242   10227       1   10203   10221   10242   10263       1
   10200   10191   10197   10209       1   10200   10215  -10233   10209       1
   10200   10215   10233   10251       1   10197   10191   10200   10215       1
   10197   10209  -10233   10215       1   10197   10209   10233   10251       1
   10197   10209   10236   10254       6   10197   10209   10236   10257       6
   10197   10209   10236   10260       6   10194   10188   10191   10197       4
   10194   10188   10191   10200       4   10194   10203   10221   10242       1
   10194   10206  -10227   10242       1   10191   10188   10194   10203       4
   10191   10188   10194   10206       4   10191   10197   10209   10233       1
   10191   10197   10209   10236       1   10191   10200  -10215   10233       1
   10188   10191   10197   10209       1   10188   10191   10200   10215       1
   10188   10194   10203   10221       1   10188   10194   10206   10227       1
   10179   10188   10191   10197       4   10179   10188   10191   10200       4
   10179   10188   10194   10203       4   10179   10188   10194   10206       4
   10173   10179   10188   10191       4   10173   10179   10188   10194       4
   10167   10179   10188   10191       4   10167   10179   10188   10194       4
   10155   10146   10152   10167       1   10155   10173  -10179   10167       1
   10155   10173   10179   10188       1   10152   10146   10155   10173       1
   10152   10167  -10179   10173       1   10152   10167   10179   10188       1
   10149   10143   10146   10152       3   10149   10143   10146   10155       3
   10146   10152   10167   10179       1   10146   10155  -10173   10179       1
   10143   10146   10152   10167       1   10143   10146   10155   10173       1
   10959   11010   11034   11052       3   10953   11010   11034   11052       3
   10947   11001   11031   11049       3   10941   11001   11031   11049       3
   10935   10992   11028   11046       3   10929   10992   11028   11046       3
   10923   10986   11025   11043       3   10917   10986   11025   11043       3
   10914   10974   11022   11040       3   10908   10974   11022   11040       3
   10899   10965   11019   11037       3   10893   10965   11019   11037       3
   10890   10851   10887   10953       1   10890   10959  -11010   10953       1
   10890   10959   11010   11034       1   10887   10851   10890   10959       1
   10887   10953  -11010   10959       1   10887   10953   11010   11034       1
   10884   10848   10881   10941       1   10884   10947  -11001   10941       1
   10884   10947   11001   11031       1   10881   10848   10884   10947       1
   10881   10941  -11001   10947       1   10881   10941   11001   11031       1
   10878   10842   10875   10929       1   10878   10935  -10992   10929       1
   10878   10935   10992   11028       1   10875   10842   10878   10935       1
   10875   10929  -10992   10935       1   10875   10929   10992   11028       1
   10872   10839   10869   10917       1   10872   10923  -10986   10917       1
   10872   10923   10986   11025       1   10869   10839   10872   10923       1
   10869   10917  -10986   10923       1   10869   10917   10986   11025       1
   10866   10836   10863   10908       1   10866   10914  -10974   10908       1
   10866   10914   10974   11022       1   10863   10836   10866   10914       1
   10863   10908  -10974   10914       1   10863   10908   10974   11022       1
   10860   10833   10857   10893       1   10860   10899  -10965   10893       1
   10860   10899   10965   11019       1   10857   10833   10860   10899       1
   10857   10893  -10965   10899       1   10857   10893   10965   11019       1
   10851   10824   10848   10881       4   10851   10824   10848   10884       4
   10851   10887   10953   11010       1   10851   10890  -10959   11010       1
   10848   10824   10851   10887       4   10848   10824   10851   10890       4
   10848   10881   10941   11001       1   10848   10884  -10947   11001       1
   10842   10815   10839   10869       4   10842   10815   10839   10872       4
   10842   10875   10929   10992       1   10842   10878  -10935   10992       1
   10839   10815   10842   10875       4   10839   10815   10842   10878       4
   10839   10869   10917   10986       1   10839   10872  -10923   10986       1
   10836   10812   10833   10857       4   10836   10812   10833   10860       4
   10836   10863   10908   10974       1   10836   10866  -10914   10974       1
   10833   10812   10836   10863       4   10833   10812   10836   10866       4
   10833   10857   10893   10965       1   10833   10860  -10899   10965       1
   10827   10794   10824   10848       4   10827   10794   10824   10851       4
   10824   10848   10881   10941       1   10824   10848   10884   10947       1
   10824   10851   10887   10953       1   10824   10851   10890   10959       1
   10818   10782   10815   10839       4   10818   10782   10815   10842       4
   10815   10839   10869   10917       1   10815   10839   10872   10923       1
   10815   10842   10875   10929       1   10815   10842   10878   10935       1
   10812   10833   10857   10893       1   10812   10833   10860   10899       1
   10812   10836   10863   10908       1   10812   10836   10866   10914       1
   10797   10827   10794   10824       1   10794   10824   10848   10881       4
   10794   10824   10848   10884       4   10794   10824   10851   10887       4
   10794   10824   10851   10890       4   10788   10758   10764   10797       5
   10788   10818   10782   10815       1   10782   10815   10839   10869       4
   10782   10815   10839   10872       4   10782   10815   10842   10875       4
   10782   10815   10842   10878       4   10776   10812   10833   10857       4
   10776   10812   10833   10860       4   10776   10812   10836   10863       4
   10776   10812   10836   10866       4   10770   10776   10812   10833       4
   10770   10776   10812   10836       4   10764   10743   10761   10794       1
   10764   10758   10788   10818       1   10764   10797  -10827   10794       1
   10761   10743   10764   10797       1   10761   10794   10824   10848       4
   10761   10794   10824   10851       4   10761   10794  -10827   10797       1
   10758   10740   10755   10782       1   10758   10764   10743   10761       1
   10758   10764   10797   10827       1   10758   10788  -10818   10782       1
   10755   10740   10758   10764       1   10755   10740   10758   10788       1
   10755   10782   10815   10839       4   10755   10782   10815   10842       4
   10755   10782  -10818   10788       1   10752   10776   10812   10833       4
   10752   10776   10812   10836       4   10749   10734   10737   10752       1
   10749   10770  -10776   10752       1   10749   10770   10776   10812       1
   10743   10719   10737   10752       6   10743   10719   10740   10755       6
   10743   10719  -10740   10758       7   10743   10761   10794   10824       1
   10743   10761   10794   10827       1   10743   10764   10758   10788       5
   10743   10764  -10797   10827       1   10740   10719   10737   10752       6
   10740   10719   10743   10761       6   10740   10719  -10743   10764       7
   10740   10755   10782   10815       1   10740   10755   10782   10818       1
   10740   10758  -10764   10743       5   10740   10758   10764   10797       5
   10740   10758  -10788   10818       1   10737   10719   10740   10755       6
   10737   10719   10740   10758       7   10737   10719   10743   10761       6
   10737   10719   10743   10764       7   10737   10734   10749   10770       1
   10737   10752  -10776   10770       1   10737   10752   10776   10812       1
   10734   10737   10719   10740       7   10734   10737   10719   10743       7
   10734   10737   10752   10776       1   10734   10749  -10770   10776       1
   10719   10692  -10716   10734       1   10719   10737   10734   10749       1
   10719   10737   10752   10776       1   10719   10740   10755   10782       1
   10719   10740  -10758   10764       1   10719   10740   10758   10788       1
   10719   10743   10761   10794       1   10719   10743  -10764   10758       1
   10719   10743   10764   10797       1   10716   10692  -10719   10737       7
   10716   10692   10719   10740       7   10716   10692   10719   10743       7
   10716   10734  -10737   10719       1   10716   10734   10737   10752       1
   10716   10734   10749   10770       1   10710   10725   10746   10767       3
   10704   10725   10746   10767       3   10698   10716   10692   10719       1
   10698   10716   10734   10737       5   10698   10716   10734   10749       5
   10692   10716  -10734   10737       5   10692   10716   10734   10749       5
   10692   10719  -10737   10734       7   10692   10719   10737   10752       6
   10692   10719   10740   10755       6   10692   10719   10740   10758       7
   10692   10719   10743   10761       6   10692   10719   10743   10764       7
   10689   10677   10686   10704       1   10689   10710  -10725   10704       1
   10689   10710   10725   10746       1   10686   10677   10689   10710       1
   10686   10704  -10725   10710       1   10686   10704   10725   10746       1
   10683   10674   10680   10692       1   10683   10698  -10716   10692       1
   10683   10698   10716   10734       1   10680   10674   10683   10698       1
   10680   10692  -10716   10698       1   10680   10692   10716   10734       1
   10680   10692   10719   10737       6   10680   10692   10719   10740       6
   10680   10692   10719   10743       6   10677   10671   10674   10680       4
   10677   10671   10674   10683       4   10677   10686   10704   10725       1
   10677   10689  -10710   10725       1   10674   10671   10677   10686       4
   10674   10671   10677   10689       4   10674   10680   10692   10716       1
   10674   10680   10692   10719       1   10674   10683  -10698   10716       1
   10671   10674   10680   10692       1   10671   10674   10683   10698       1
   10671   10677   10686   10704       1   10671   10677   10689   10710       1
   10662   10671   10674   10680       4   10662   10671   10674   10683       4
   10662   10671   10677   10686       4   10662   10671   10677   10689       4
   10656   10662   10671   10674       4   10656   10662   10671   10677       4
   10650   10662   10671   10674       4   10650   10662   10671   10677       4
   10638   10629   10635   10650       1   10638   10656  -10662   10650       1
   10638   10656   10662   10671       1   10635   10629   10638   10656       1
   10635   10650  -10662   10656       1   10635   10650   10662   10671       1
   10632   10626   10629   10635       3   10632   10626   10629   10638       3
   10629   10635   10650   10662       1   10629   10638  -10656   10662       1
   10626   10629   10635   10650       1   10626   10629   10638   10656       1
   11442   11493   11517   11535       3   11436   11493   11517   11535       3
   11430   11484   11514   11532       3   11424   11484   11514   11532       3
   11418   11475   11511   11529       3   11412   11475   11511   11529       3
   11406   11469   11508   11526       3   11400   11469   11508   11526       3
   11397   11457   11505   11523       3   11391   11457   11505   11523       3
   11382   11448   11502   11520       3   11376   11448   11502   11520       3
   11373   11334   11370   11436       1   11373   11442  -11493   11436       1
   11373   11442   11493   11517       1   11370   11334   11373   11442       1
   11370   11436  -11493   11442       1   11370   11436   11493   11517       1
   11367   11331   11364   11424       1   11367   11430  -11484   11424       1
   11367   11430   11484   11514       1   11364   11331   11367   11430       1
   11364   11424  -11484   11430       1   11364   11424   11484   11514       1
   11361   11325   11358   11412       1   11361   11418  -11475   11412       1
   11361   11418   11475   11511       1   11358   11325   11361   11418       1
   11358   11412  -11475   11418       1   11358   11412   11475   11511       1
   11355   11322   11352   11400       1   11355   11406  -11469   11400       1
   11355   11406   11469   11508       1   11352   11322   11355   11406       1
   11352   11400  -11469   11406       1   11352   11400   11469   11508       1
   11349   11319   11346   11391       1   11349   11397  -11457   11391       1
   11349   11397   11457   11505       1   11346   11319   11349   11397       1
   11346   11391  -11457   11397       1   11346   11391   11457   11505       1
   11343   11316   11340   11376       1   11343   11382  -11448   11376       1
   11343   11382   11448   11502       1   11340   11316   11343   11382       1
   11340   11376  -11448   11382       1   11340   11376   11448   11502       1
   11334   11307   11331   11364       4   11334   11307   11331   11367       4
   11334   11370   11436   11493       1   11334   11373  -11442   11493       1
   11331   11307   11334   11370       4   11331   11307   11334   11373       4
   11331   11364   11424   11484       1   11331   11367  -11430   11484       1
   11325   11298   11322   11352       4   11325   11298   11322   11355       4
   11325   11358   11412   11475       1   11325   11361  -11418   11475       1
   11322   11298   11325   11358       4   11322   11298   11325   11361       4
   11322   11352   11400   11469       1   11322   11355  -11406   11469       1
   11319   11295   11316   11340       4   11319   11295   11316   11343       4
   11319   11346   11391   11457       1   11319   11349  -11397   11457       1
   11316   11295   11319   11346       4   11316   11295   11319   11349       4
   11316   11340   11376   11448       1   11316   11343  -11382   11448       1
   11310   11277   11307   11331       4   11310   11277   11307   11334       4
   11307   11331   11364   11424       1   11307   11331   11367   11430       1
   11307   11334   11370   11436       1   11307   11334   11373   11442       1
   11301   11265   11298   11322       4   11301   11265   11298   11325       4
   11298   11322   11352   11400       1   11298   11322   11355   11406       1
   11298   11325   11358   11412       1   11298   11325   11361   11418       1
   11295   11316   11340   11376       1   11295   11316   11343   11382       1
   11295   11319   11346   11391       1   11295   11319   11349   11397       1
   11280   11310   11277   11307       1   11277   11307   11331   11364       4
   11277   11307   11331   11367       4   11277   11307   11334   11370       4
   11277   11307   11334   11373       4   11271   11241   11247   11280       5
   11271   11301   11265   11298       1   11265   11298   11322   11352       4
   11265   11298   11322   11355       4   11265   11298   11325   11358       4
   11265   11298   11325   11361       4   11259   11295   11316   11340       4
   11259   11295   11316   11343       4   11259   11295   11319   11346       4
   11259   11295   11319   11349       4   11253   11259   11295   11316       4
   11253   11259   11295   11319       4   11247   11226   11244   11277       1
   11247   11241   11271   11301       1   11247   11280  -11310   11277       1
   11244   11226   11247   11280       1   11244   11277   11307   11331       4
   11244   11277   11307   11334       4   11244   11277  -11310   11280       1
   11241   11223   11238   11265       1   11241   11247   11226   11244       1
   11241   11247   11280   11310       1   11241   11271  -11301   11265       1
   11238   11223   11241   11247       1   11238   11223   11241   11271       1
   11238   11265   11298   11322       4   11238   11265   11298   11325       4
   11238   11265  -11301   11271       1   11235   11259   11295   11316       4
   11235   11259   11295   11319       4   11232   11217   11220   11235       1
   11232   11253  -11259   11235       1   11232   11253   11259   11295       1
   11226   11202   11220   11235       6   11226   11202   11223   11238       6
   11226   11202  -11223   11241       7   11226   11244   11277   11307       1
   11226   11244   11277   11310       1   11226   11247   11241   11271       5
   11226   11247  -11280   11310       1   11223   11202   11220   11235       6
   11223   11202   11226   11244       6   11223   11202  -11226   11247       7
   11223   11238   11265   11298       1   11223   11238   11265   11301       1
   11223   11241  -11247   11226       5   11223   11241   11247   11280       5
   11223   11241  -11271   11301       1   11220   11202   11223   11238       6
   11220   11202   11223   11241       7   11220   11202   11226   11244       6
   11220   11202   11226   11247       7   11220   11217   11232   11253       1
   11220   11235  -11259   11253       1   11220   11235   11259   11295       1
   11217   11220   11202   11223       7   11217   11220   11202   11226       7
   11217   11220   11235   11259       1   11217   11232  -11253   11259       1
   11202   11175  -11199   11217       1   11202   11220   11217   11232       1
   11202   11220   11235   11259       1   11202   11223   11238   11265       1
   11202   11223  -11241   11247       1   11202   11223   11241   11271       1
   11202   11226   11244   11277       1   11202   11226  -11247   11241       1
   11202   11226   11247   11280       1   11199   11175  -11202   11220       7
   11199   11175   11202   11223       7   11199   11175   11202   11226       7
   11199   11217  -11220   11202       1   11199   11217   11220   11235       1
   11199   11217   11232   11253       1   11193   11208   11229   11250       3
   11187   11208   11229   11250       3   11181   11199   11175   11202       1
   11181   11199   11217   11220       5   11181   11199   11217   11232       5
   11175   11199  -11217   11220       5   11175   11199   11217   11232       5
   11175   11202  -11220   11217       7   11175   11202   11220   11235       6
   11175   11202   11223   11238       6   11175   11202   11223   11241       7
   11175   11202   11226   11244       6   11175   11202   11226   11247       7
   11172   11160   11169   11187       1   11172   11193  -11208   11187       1
   11172   11193   11208   11229       1   11169   11160   11172   11193       1
   11169   11187  -11208   11193       1   11169   11187   11208   11229       1
   11166   11157   11163   11175       1   11166   11181  -11199   11175       1
   11166   11181   11199   11217       1   11163   11157   11166   11181       1
   11163   11175  -11199   11181       1   11163   11175   11199   11217       1
   11163   11175   11202   11220       6   11163   11175   11202   11223       6
   11163   11175   11202   11226       6   11160   11154   11157   11163       4
   11160   11154   11157   11166       4   11160   11169   11187   11208       1
   11160   11172  -11193   11208       1   11157   11154   11160   11169       4
   11157   11154   11160   11172       4   11157   11163   11175   11199       1
   11157   11163   11175   11202       1   11157   11166  -11181   11199       1
   11154   11157   11163   11175       1   11154   11157   11166   11181       1
   11154   11160   11169   11187       1   11154   11160   11172   11193       1
   11145   11154   11157   11163       4   11145   11154   11157   11166       4
   11145   11154   11160   11169       4   11145   11154   11160   11172       4
   11139   11145   11154   11157       4   11139   11145   11154   11160       4
   11133   11145   11154   11157       4   11133   11145   11154   11160       4
   11121   11112   11118   11133       1   11121   11139  -11145   11133       1
   11121   11139   11145   11154       1   11118   11112   11121   11139       1
   11118   11133  -11145   11139       1   11118   11133   11145   11154       1
   11115   11109   11112   11118       3   11115   11109   11112   11121       3
   11112   11118   11133   11145       1   11112   11121  -11139   11145       1
   11109   11112   11118   11133       1   11109   11112   11121   11139       1
   11925   11976   12000   12018       3   11919   11976   12000   12018       3
   11913   11967   11997   12015       3   11907   11967   11997   12015       3
   11901   11958   11994   12012       3   11895   11958   11994   12012       3
   11889   11952   11991   12009       3   11883   11952   11991   12009       3
   11880   11940   11988   12006       3   11874   11940   11988   12006       3
   11865   11931   11985   12003       3   11859   11931   11985   12003       3
   11856   11817   11853   11919       1   11856   11925  -11976   11919       1
   11856   11925   11976   12000       1   11853   11817   11856   11925       1
   11853   11919  -11976   11925       1   11853   11919   11976   12000       1
   11850   11814   11847   11907       1   11850   11913  -11967   11907       1
   11850   11913   11967   11997       1   11847   11814   11850   11913       1
   11847   11907  -11967   11913       1   11847   11907   11967   11997       1
   11844   11808   11841   11895       1   11844   11901  -11958   11895       1
   11844   11901   11958   11994       1   11841   11808   11844   11901       1
   11841   11895  -11958   11901       1   11841   11895   11958   11994       1
   11838   11805   11835   11883       1   11838   11889  -11952   11883       1
   11838   11889   11952   11991       1   11835   11805   11838   11889       1
   11835   11883  -11952   11889       1   11835   11883   11952   11991       1
   11832   11802   11829   11874       1   11832   11880  -11940   11874       1
   11832   11880   11940   11988       1   11829   11802   11832   11880       1
   11829   11874  -11940   11880       1   11829   11874   11940   11988       1
   11826   11799   11823   11859       1   11826   11865  -11931   11859       1
   11826   11865   11931   11985       1   11823   11799   11826   11865       1
   11823   11859  -11931   11865       1   11823   11859   11931   11985       1
   11817   11790   11814   11847       4   11817   11790   11814   11850       4
   11817   11853   11919   11976       1   11817   11856  -11925   11976       1
   11814   11790   11817   11853       4   11814   11790   11817   11856       4
   11814   11847   11907   11967       1   11814   11850  -11913   11967       1
   11808   11781   11805   11835       4   11808   11781   11805   11838       4
   11808   11841   11895   11958       1   11808   11844  -11901   11958       1
   11805   11781   11808   11841       4   11805   11781   11808   11844       4
   11805   11835   11883   11952       1   11805   11838  -11889   11952       1
   11802   11778   11799   11823       4   11802   11778   11799   11826       4
   11802   11829   11874   11940       1   11802   11832  -11880   11940       1
   11799   11778   11802   11829       4   11799   11778   11802   11832       4
   11799   11823   11859   11931       1   11799   11826  -11865   11931       1
   11793   11760   11790   11814       4   11793   11760   11790   11817       4
   11790   11814   11847   11907       1   11790   11814   11850   11913       1
   11790   11817   11853   11919       1   11790   11817   11856   11925       1
   11784   11748   11781   11805       4   11784   11748   11781   11808       4
   11781   11805   11835   11883       1   11781   11805   11838   11889       1
   11781   11808   11841   11895       1   11781   11808   11844   11901       1
   11778   11799   11823   11859       1   11778   11799   11826   11865       1
   11778   11802   11829   11874       1   11778   11802   11832   11880       1
   11763   11793   11760   11790       1   11760   11790   11814   11847       4
   11760   11790   11814   11850       4   11760   11790   11817   11853       4
   11760   11790   11817   11856       4   11754   11724   11730   11763       5
   11754   11784   11748   11781       1   11748   11781   11805   11835       4
   11748   11781   11805   11838       4   11748   11781   11808   11841       4
   11748   11781   11808   11844       4   11742   11778   11799   11823       4
   11742   11778   11799   11826       4   11742   11778   11802   11829       4
   11742   11778   11802   11832       4   11736   11742   11778   11799       4
   11736   11742   11778   11802       4   11730   11709   11727   11760       1
   11730   11724   11754   11784       1   11730   11763  -11793   11760       1
   11727   11709   11730   11763       1   11727   11760   11790   11814       4
   11727   11760   11790   11817       4   11727   11760  -11793   11763       1
   11724   11706   11721   11748       1   11724   11730   11709   11727       1
   11724   11730   11763   11793       1   11724   11754  -11784   11748       1
   11721   11706   11724   11730       1   11721   11706   11724   11754       1
   11721   11748   11781   11805       4   11721   11748   11781   11808       4
   11721   11748  -11784   11754       1   11718   11742   11778   11799       4
   11718   11742   11778   11802       4   11715   11700   11703   11718       1
   11715   11736  -11742   11718       1   11715   11736   11742   11778       1
   11709   11685   11703   11718       6   11709   11685   11706   11721       6
   11709   11685  -11706   11724       7   11709   11727   11760   11790       1
   11709   11727   11760   11793       1   11709   11730   11724   11754       5
   11709   11730  -11763   11793       1   11706   11685   11703   11718       6
   11706   11685   11709   11727       6   11706   11685  -11709   11730       7
   11706   11721   11748   11781       1   11706   11721   11748   11784       1
   11706   11724  -11730   11709       5   11706   11724   11730   11763       5
   11706   11724  -11754   11784       1   11703   11685   11706   11721       6
   11703   11685   11706   11724       7   11703   11685   11709   11727       6
   11703   11685   11709   11730       7   11703   11700   11715   11736       1
   11703   11718  -11742   11736       1   11703   11718   11742   11778       1
   11700   11703   11685   11706       7   11700   11703   11685   11709       7
   11700   11703   11718   11742       1   11700   11715  -11736   11742       1
   11685   11658  -11682   11700       1   11685   11703   11700   11715       1
   11685   11703   11718   11742       1   11685   11706   11721   11748       1
   11685   11706  -11724   11730       1   11685   11706   11724   11754       1
   11685   11709   11727   11760       1   11685   11709  -11730   11724       1
   11685   11709   11730   11763       1   11682   11658  -11685   11703       7
   11682   11658   11685   11706       7   11682   11658   11685   11709       7
   11682   11700  -11703   11685       1   11682   11700   11703   11718       1
   11682   11700   11715   11736       1   11676   11691   11712   11733       3
   11670   11691   11712   11733       3   11664   11682   11658   11685       1
   11664   11682   11700   11703       5   11664   11682   11700   11715       5
   11658   11682  -11700   11703       5   11658   11682   11700   11715       5
   11658   11685  -11703   11700       7   11658   11685   11703   11718       6
   11658   11685   11706   11721       6   11658   11685   11706   11724       7
   11658   11685   11709   11727       6   11658   11685   11709   11730       7
   11655   11643   11652   11670       1   11655   11676  -11691   11670       1
   11655   11676   11691   11712       1   11652   11643   11655   11676       1
   11652   11670  -11691   11676       1   11652   11670   11691   11712       1
   11649   11640   11646   11658       1   11649   11664  -11682   11658       1
   11649   11664   11682   11700       1   11646   11640   11649   11664       1
   11646   11658  -11682   11664       1   11646   11658   11682   11700       1
   11646   11658   11685   11703       6   11646   11658   11685   11706       6
   11646   11658   11685   11709       6   11643   11637   11640   11646       4
   11643   11637   11640   11649       4   11643   11652   11670   11691       1
   11643   11655  -11676   11691       1   11640   11637   11643   11652       4
   11640   11637   11643   11655       4   11640   11646   11658   11682       1
   11640   11646   11658   11685       1   11640   11649  -11664   11682       1
   11637   11640   11646   11658       1   11637   11640   11649   11664       1
   11637   11643   11652   11670       1   11637   11643   11655   11676       1
   11628   11637   11640   11646       4   11628   11637   11640   11649       4
   11628   11637   11643   11652       4   11628   11637   11643   11655       4
   11622   11628   11637   11640       4   11622   11628   11637   11643       4
   11616   11628   11637   11640       4   11616   11628   11637   11643       4
   11604   11595   11601   11616       1   11604   11622  -11628   11616       1
   11604   11622   11628   11637       1   11601   11595   11604   11622       1
   11601   11616  -11628   11622       1   11601   11616   11628   11637       1
   11598   11592   11595   11601       3   11598   11592   11595   11604       3
   11595   11601   11616   11628       1   11595   11604  -11622   11628       1
   11592   11595   11601   11616       1   11592   11595   11604   11622       1
   12408   12459   12483   12501       3   12402   12459   12483   12501       3
   12396   12450   12480   12498       3   12390   12450   12480   12498       3
   12384   12441   12477   12495       3   12378   12441   12477   12495       3
   12372   12435   12474   12492       3   12366   12435   12474   12492       3
   12363   12423   12471   12489       3   12357   12423   12471   12489       3
   12348   12414   12468   12486       3   12342   12414   12468   12486       3
   12339   12300   12336   12402       1   12339   12408  -12459   12402       1
   12339   12408   12459   12483       1   12336   12300   12339   12408       1
   12336   12402  -12459   12408       1   12336   12402   12459   12483       1
   12333   12297   12330   12390       1   12333   12396  -12450   12390       1
   12333   12396   12450   12480       1   12330   12297   12333   12396       1
   12330   12390  -12450   12396       1   12330   12390   12450   12480       1
   12327   12291   12324   12378       1   12327   12384  -12441   12378       1
   12327   12384   12441   12477       1   12324   12291   12327   12384       1
   12324   12378  -12441   12384       1   12324   12378   12441   12477       1
   12321   12288   12318   12366       1   12321   12372  -12435   12366       1
   12321   12372   12435   12474       1   12318   12288   12321   12372       1
   12318   12366  -12435   12372       1   12318   12366   12435   12474       1
   12315   12285   12312   12357       1   12315   12363  -12423   12357       1
   12315   12363   12423   12471       1   12312   12285   12315   12363       1
   12312   12357  -12423   12363       1   12312   12357   12423   12471       1
   12309   12282   12306   12342       1   12309   12348  -12414   12342       1
   12309   12348   12414   12468       1   12306   12282   12309   12348       1
   12306   12342  -12414   12348       1   12306   12342   12414   12468       1
   12300   12273   12297   12330       4   12300   12273   12297   12333       4
   12300   12336   12402   12459       1   12300   12339  -12408   12459       1
   12297   12273   12300   12336       4   12297   12273   12300   12339       4
   12297   12330   12390   12450       1   12297   12333  -12396   12450       1
   12291   12264   12288   12318       4   12291   12264   12288   12321       4
   12291   12324   12378   12441       1   12291   12327  -12384   12441       1
   12288   12264   12291   12324       4   12288   12264   12291   12327       4
   12288   12318   12366   12435       1   12288   12321  -12372   12435       1
   12285   12261   12282   12306       4   12285   12261   12282   12309       4
   12285   12312   12357   12423       1   12285   12315  -12363   12423       1
   12282   12261   12285   12312       4   12282   12261   12285   12315       4
   12282   12306   12342   12414       1   12282   12309  -12348   12414       1
   12276   12243   12273   12297       4   12276   12243   12273   12300       4
   12273   12297   12330   12390       1   12273   12297   12333   12396       1
   12273   12300   12336   12402       1   12273   12300   12339   12408       1
   12267   12231   12264   12288       4   12267   12231   12264   12291       4
   12264   12288   12318   12366       1   12264   12288   12321   12372       1
   12264   12291   12324   12378       1   12264   12291   12327   12384       1
   12261   12282   12306   12342       1   12261   12282   12309   12348       1
   12261   12285   12312   12357       1   12261   12285   12315   12363       1
   12246   12276   12243   12273       1   12243   12273   12297   12330       4
   12243   12273   12297   12333       4   12243   12273   12300   12336       4
   12243   12273   12300   12339       4   12237   12207   12213   12246       5
   12237   12267   12231   12264       1   12231   12264   12288   12318       4
   12231   12264   12288   12321       4   12231   12264   12291   12324       4
   12231   12264   12291   12327       4   12225   12261   12282   12306       4
   12225   12261   12282   12309       4   12225   12261   12285   12312       4
   12225   12261   12285   12315       4   12219   12225   12261   12282       4
   12219   12225   12261   12285       4   12213   12192   12210   12243       1
   12213   12207   12237   12267       1   12213   12246  -12276   12243       1
   12210   12192   12213   12246       1   12210   12243   12273   12297       4
   12210   12243   12273   12300       4   12210   12243  -12276   12246       1
   12207   12189   12204   12231       1   12207   12213   12192   12210       1
   12207   12213   12246   12276       1   12207   12237  -12267   12231       1
   12204   12189   12207   12213       1   12204   12189   12207   12237       1
   12204   12231   12264   12288       4   12204   12231   12264   12291       4
   12204   12231  -12267   12237       1   12201   12225   12261   12282       4
   12201   12225   12261   12285       4   12198   12183   12186   12201       1
   12198   12219  -12225   12201       1   12198   12219   12225   12261       1
   12192   12168   12186   12201       6   12192   12168   12189   12204       6
   12192   12168  -12189   12207       7   12192   12210   12243   12273       1
   12192   12210   12243   12276       1   12192   12213   12207   12237       5
   12192   12213  -12246   12276       1   12189   12168   12186   12201       6
   12189   12168   12192   12210       6   12189   12168  -12192   12213       7
   12189   12204   12231   12264       1   12189   12204   12231   12267       1
   12189   12207  -12213   12192       5   12189   12207   12213   12246       5
   12189   12207  -12237   12267       1   12186   12168   12189   12204       6
   12186   12168   12189   12207       7   12186   12168   12192   12210       6
   12186   12168   12192   12213       7   12186   12183   12198   12219       1
   12186   12201  -12225   12219       1   12186   12201   12225   12261       1
   12183   12186   12168   12189       7   12183   12186   12168   12192       7
   12183   12186   12201   12225       1   12183   12198  -12219   12225       1
   12168   12141  -12165   12183       1   12168   12186   12183   12198       1
   12168   12186   12201   12225       1   12168   12189   12204   12231       1
   12168   12189  -12207   12213       1   12168   12189   12207   12237       1
   12168   12192   12210   12243       1   12168   12192  -12213   12207       1
   12168   12192   12213   12246       1   12165   12141  -12168   12186       7
   12165   12141   12168   12189       7   12165   12141   12168   12192       7
   12165   12183  -12186   12168       1   12165   12183   12186   12201       1
   12165   12183   12198   12219       1   12159   12174   12195   12216       3
   12153   12174   12195   12216       3   12147   12165   12141   12168       1
   12147   12165   12183   12186       5   12147   12165   12183   12198       5
   12141   12165  -12183   12186       5   12141   12165   12183   12198       5
   12141   12168  -12186   12183       7   12141   12168   12186   12201       6
   12141   12168   12189   12204       6   12141   12168   12189   12207       7
   12141   12168   12192   12210       6   12141   12168   12192   12213       7
   12138   12126   12135   12153       1   12138   12159  -12174   12153       1
   12138   12159   12174   12195       1   12135   12126   12138   12159       1
   12135   12153  -12174   12159       1   12135   12153   12174   12195       1
   12132   12123   12129   12141       1   12132   12147  -12165   12141       1
   12132   12147   12165   12183       1   12129   12123   12132   12147       1
   12129   12141  -12165   12147       1   12129   12141   12165   12183       1
   12129   12141   12168   12186       6   12129   12141   12168   12189       6
   12129   12141   12168   12192       6   12126   12120   12123   12129       4
   12126   12120   12123   12132       4   12126   12135   12153   12174       1
   12126   12138  -12159   12174       1   12123   12120   12126   12135       4
   12123   12120   12126   12138       4   12123   12129   12141   12165       1
   12123   12129   12141   12168       1   12123   12132  -12147   12165       1
   12120   12123   12129   12141       1   12120   12123   12132   12147       1
   12120   12126   12135   12153       1   12120   12126   12138   12159       1
   12111   12120   12123   12129       4   12111   12120   12123   12132       4
   12111   12120   12126   12135       4   12111   12120   12126   12138       4
   12105   12111   12120   12123       4   12105   12111   12120   12126       4
   12099   12111   12120   12123       4   12099   12111   12120   12126       4
   12087   12078   12084   12099       1   12087   12105  -12111   12099       1
   12087   12105   12111   12120       1   12084   12078   12087   12105       1
   12084   12099  -12111   12105       1   12084   12099   12111   12120       1
   12081   12075   12078   12084       3   12081   12075   12078   12087       3
   12078   12084   12099   12111       1   12078   12087  -12105   12111       1
   12075   12078   12084   12099       1   12075   12078   12087   12105       1
   12891   12942   12966   12984       3   12885   12942   12966   12984       3
   12879   12933   12963   12981       3   12873   12933   12963   12981       3
   12867   12924   12960   12978       3   12861   12924   12960   12978       3
   12855   12918   12957   12975       3   12849   12918   12957   12975       3
   12846   12906   12954   12972       3   12840   12906   12954   12972       3
   12831   12897   12951   12969       3   12825   12897   12951   12969       3
   12822   12783   12819   12885       1   12822   12891  -12942   12885       1
   12822   12891   12942   12966       1   12819   12783   12822   12891       1
   12819   12885  -12942   12891       1   12819   12885   12942   12966       1
   12816   12780   12813   12873       1   12816   12879  -12933   12873       1
   12816   12879   12933   12963       1   12813   12780   12816   12879       1
   12813   12873  -12933   12879       1   12813   12873   12933   12963       1
   12810   12774   12807   12861       1   12810   12867  -12924   12861       1
   12810   12867   12924   12960       1   12807   12774   12810   12867       1
   12807   12861  -12924   12867       1   12807   12861   12924   12960       1
   12804   12771   12801   12849       1   12804   12855  -12918   12849       1
   12804   12855   12918   12957       1   12801   12771   12804   12855       1
   12801   12849  -12918   12855       1   12801   12849   12918   12957       1
   12798   12768   12795   12840       1   12798   12846  -12906   12840       1
   12798   12846   12906   12954       1   12795   12768   12798   12846       1
   12795   12840  -12906   12846       1   12795   12840   12906   12954       1
   12792   12765   12789   12825       1   12792   12831  -12897   12825       1
   12792   12831   12897   12951       1   12789   12765   12792   12831       1
   12789   12825  -12897   12831       1   12789   12825   12897   12951       1
   12783   12756   12780   12813       4   12783   12756   12780   12816       4
   12783   12819   12885   12942       1   12783   12822  -12891   12942       1
   12780   12756   12783   12819       4   12780   12756   12783   12822       4
   12780   12813   12873   12933       1   12780   12816  -12879   12933       1
   12774   12747   12771   12801       4   12774   12747   12771   12804       4
   12774   12807   12861   12924       1   12774   12810  -12867   12924       1
   12771   12747   12774   12807       4   12771   12747   12774   12810       4
   12771   12801   12849   12918       1   12771   12804  -12855   12918       1
   12768   12744   12765   12789       4   12768   12744   12765   12792       4
   12768   12795   12840   12906       1   12768   12798  -12846   12906       1
   12765   12744   12768   12795       4   12765   12744   12768   12798       4
   12765   12789   12825   12897       1   12765   12792  -12831   12897       1
   12759   12726   12756   12780       4   12759   12726   12756   12783       4
   12756   12780   12813   12873       1   12756   12780   12816   12879       1
   12756   12783   12819   12885       1   12756   12783   12822   12891       1
   12750   12714   12747   12771       4   12750   12714   12747   12774       4
   12747   12771   12801   12849       1   12747   12771   12804   12855       1
   12747   12774   12807   12861       1   12747   12774   12810   12867       1
   12744   12765   12789   12825       1   12744   12765   12792   12831       1
   12744   12768   12795   12840       1   12744   12768   12798   12846       1
   12729   12759   12726   12756       1   12726   12756   12780   12813       4
   12726   12756   12780   12816       4   12726   12756   12783   12819       4
   12726   12756   12783   12822       4   12720   12690   12696   12729       5
   12720   12750   12714   12747       1   12714   12747   12771   12801       4
   12714   12747   12771   12804       4   12714   12747   12774   12807       4
   12714   12747   12774   12810       4   12708   12744   12765   12789       4
   12708   12744   12765   12792       4   12708   12744   12768   12795       4
   12708   12744   12768   12798       4   12702   12708   12744   12765       4
   12702   12708   12744   12768       4   12696   12675   12693   12726       1
   12696   12690   12720   12750       1   12696   12729  -12759   12726       1
   12693   12675   12696   12729       1   12693   12726   12756   12780       4
   12693   12726   12756   12783       4   12693   12726  -12759   12729       1
   12690   12672   12687   12714       1   12690   12696   12675   12693       1
   12690   12696   12729   12759       1   12690   12720  -12750   12714       1
   12687   12672   12690   12696       1   12687   12672   12690   12720       1
   12687   12714   12747   12771       4   12687   12714   12747   12774       4
   12687   12714  -12750   12720       1   12684   12708   12744   12765       4
   12684   12708   12744   12768       4   12681   12666   12669   12684       1
   12681   12702  -12708   12684       1   12681   12702   12708   12744       1
   12675   12651   12669   12684       6   12675   12651   12672   12687       6
   12675   12651  -12672   12690       7   12675   12693   12726   12756       1
   12675   12693   12726   12759       1   12675   12696   12690   12720       5
   12675   12696  -12729   12759       1   12672   12651   12669   12684       6
   12672   12651   12675   12693       6   12672   12651  -12675   12696       7
   12672   12687   12714   12747       1   12672   12687   12714   12750       1
   12672   12690  -12696   12675       5   12672   12690   12696   12729       5
   12672   12690  -12720   12750       1   12669   12651   12672   12687       6
   12669   12651   12672   12690       7   12669   12651   12675   12693       6
   12669   12651   12675   12696       7   12669   12666   12681   12702       1
   12669   12684  -12708   12702       1   12669   12684   12708   12744       1
   12666   12669   12651   12672       7   12666   12669   12651   12675       7
   12666   12669   12684   12708       1   12666   12681  -12702   12708       1
   12651   12624  -12648   12666       1   12651   12669   12666   12681       1
   12651   12669   12684   12708       1   12651   12672   12687   12714       1
   12651   12672  -12690   12696       1   12651   12672   12690   12720       1
   12651   12675   12693   12726       1   12651   12675  -12696   12690       1
   12651   12675   12696   12729       1   12648   12624  -12651   12669       7
   12648   12624   12651   12672       7   12648   12624   12651   12675       7
   12648   12666  -12669   12651       1   12648   12666   12669   12684       1
   12648   12666   12681   12702       1   12642   12657   12678   12699       3
   12636   12657   12678   12699       3   12630   12648   12624   12651       1
   12630   12648   12666   12669       5   12630   12648   12666   12681       5
   12624   12648  -12666   12669       5   12624   12648   12666   12681       5
   12624   12651  -12669   12666       7   12624   12651   12669   12684       6
   12624   12651   12672   12687       6   12624   12651   12672   12690       7
   12624   12651   12675   12693       6   12624   12651   12675   12696       7
   12621   12609   12618   12636       1   12621   12642  -12657   12636       1
   12621   12642   12657   12678       1   12618   12609   12621   12642       1
   12618   12636  -12657   12642       1   12618   12636   12657   12678       1
   12615   12606   12612   12624       1   12615   12630  -12648   12624       1
   12615   12630   12648   12666       1   12612   12606   12615   12630       1
   12612   12624  -12648   12630       1   12612   12624   12648   12666       1
   12612   12624   12651   12669       6   12612   12624   12651   12672       6
   12612   12624   12651   12675       6   12609   12603   12606   12612       4
   12609   12603   12606   12615       4   12609   12618   12636   12657       1
   12609   12621  -12642   12657       1   12606   12603   12609   12618       4
   12606   12603   12609   12621       4   12606   12612   12624   12648       1
   12606   12612   12624   12651       1   12606   12615  -12630   12648       1
   12603   12606   12612   12624       1   12603   12606   12615   12630       1
   12603   12609   12618   12636       1   12603   12609   12621   12642       1
   12594   12603   12606   12612       4   12594   12603   12606   12615       4
   12594   12603   12609   12618       4   12594   12603   12609   12621       4
   12588   12594   12603   12606       4   12588   12594   12603   12609       4
   12582   12594   12603   12606       4   12582   12594   12603   12609       4
   12570   12561   12567   12582       1   12570   12588  -12594   12582       1
   12570   12588   12594   12603       1   12567   12561   12570   12588       1
   12567   12582  -12594   12588       1   12567   12582   12594   12603       1
   12564   12558   12561   12567       3   12564   12558   12561   12570       3
   12561   12567   12582   12594       1   12561   12570  -12588   12594       1
   12558   12561   12567   12582       1   12558   12561   12570   12588       1
   13374   13425   13449   13467       3   13368   13425   13449   13467       3
   13362   13416   13446   13464       3   13356   13416   13446   13464       3
   13350   13407   13443   13461       3   13344   13407   13443   13461       3
   13338   13401   13440   13458       3   13332   13401   13440   13458       3
   13329   13389   13437   13455       3   13323   13389   13437   13455       3
   13314   13380   13434   13452       3   13308   13380   13434   13452       3
   13305   13266   13302   13368       1   13305   13374  -13425   13368       1
   13305   13374   13425   13449       1   13302   13266   13305   13374       1
   13302   13368  -13425   13374       1   13302   13368   13425   13449       1
   13299   13263   13296   13356       1   13299   13362  -13416   13356       1
   13299   13362   13416   13446       1   13296   13263   13299   13362       1
   13296   13356  -13416   13362       1   13296   13356   13416   13446       1
   13293   13257   13290   13344       1   13293   13350  -13407   13344       1
   13293   13350   13407   13443       1   13290   13257   13293   13350       1
   13290   13344  -13407   13350       1   13290   13344   13407   13443       1
   13287   13254   13284   13332       1   13287   13338  -13401   13332       1
   13287   13338   13401   13440       1   13284   13254   13287   13338       1
   13284   13332  -13401   13338       1   13284   13332   13401   13440       1
   13281   13251   13278   13323       1   13281   13329  -13389   13323       1
   13281   13329   13389   13437       1   13278   13251   13281   13329       1
   13278   13323  -13389   13329       1   13278   13323   13389   13437       1
   13275   13248   13272   13308       1   13275   13314  -13380   13308       1
   13275   13314   13380   13434       1   13272   13248   13275   13314       1
   13272   13308  -13380   13314       1   13272   13308   13380   13434       1
   13266   13239   13263   13296       4   13266   13239   13263   13299       4
   13266   13302   13368   13425       1   13266   13305  -13374   13425       1
   13263   13239   13266   13302       4   13263   13239   13266   13305       4
   13263   13296   13356   13416       1   13263   13299  -13362   13416       1
   13257   13230   13254   13284       4   13257   13230   13254   13287       4
   13257   13290   13344   13407       1   13257   13293  -13350   13407       1
   13254   13230   13257   13290       4   13254   13230   13257   13293       4
   13254   13284   13332   13401       1   13254   13287  -13338   13401       1
   13251   13227   13248   13272       4   13251   13227   13248   13275       4
   13251   13278   13323   13389       1   13251   13281  -13329   13389       1
   13248   13227   13251   13278       4   13248   13227   13251   13281       4
   13248   13272   13308   13380       1   13248   13275  -13314   13380       1
   13242   13209   13239   13263       4   13242   13209   13239   13266       4
   13239   13263   13296   13356       1   13239   13263   13299   13362       1
   13239   13266   13302   13368       1   13239   13266   13305   13374       1
   13233   13197   13230   13254       4   13233   13197   13230   13257       4
   13230   13254   13284   13332       1   13230   13254   13287   13338       1
   13230   13257   13290   13344       1   13230   13257   13293   13350       1
   13227   13248   13272   13308       1   13227   13248   13275   13314       1
   13227   13251   13278   13323       1   13227   13251   13281   13329       1
   13212   13242   13209   13239       1   13209   13239   13263   13296       4
   13209   13239   13263   13299       4   13209   13239   13266   13302       4
   13209   13239   13266   13305       4   13203   13173   13179   13212       5
   13203   13233   13197   13230       1   13197   13230   13254   13284       4
   13197   13230   13254   13287       4   13197   13230   13257   13290       4
   13197   13230   13257   13293       4   13191   13227   13248   13272       4
   13191   13227   13248   13275       4   13191   13227   13251   13278       4
   13191   13227   13251   13281       4   13185   13191   13227   13248       4
   13185   13191   13227   13251       4   13179   13158   13176   13209       1
   13179   13173   13203   13233       1   13179   13212  -13242   13209       1
   13176   13158   13179   13212       1   13176   13209   13239   13263       4
   13176   13209   13239   13266       4   13176   13209  -13242   13212       1
   13173   13155   13170   13197       1   13173   13179   13158   13176       1
   13173   13179   13212   13242       1   13173   13203  -13233   13197       1
   13170   13155   13173   13179       1   13170   13155   13173   13203       1
   13170   13197   13230   13254       4   13170   13197   13230   13257       4
   13170   13197  -13233   13203       1   13167   13191   13227   13248       4
   13167   13191   13227   13251       4   13164   13149   13152   13167       1
   13164   13185  -13191   13167       1   13164   13185   13191   13227       1
   13158   13134   13152   13167       6   13158   13134   13155   13170       6
   13158   13134  -13155   13173       7   13158   13176   13209   13239       1
   13158   13176   13209   13242       1   13158   13179   13173   13203       5
   13158   13179  -13212   13242       1   13155   13134   13152   13167       6
   13155   13134   13158   13176       6   13155   13134  -13158   13179       7
   13155   13170   13197   13230       1   13155   13170   13197   13233       1
   13155   13173  -13179   13158       5   13155   13173   13179   13212       5
   13155   13173  -13203   13233       1   13152   13134   13155   13170       6
   13152   13134   13155   13173       7   13152   13134   13158   13176       6
   13152   13134   13158   13179       7   13152   13149   13164   13185       1
   13152   13167  -13191   13185       1   13152   13167   13191   13227       1
   13149   13152   13134   13155       7   13149   13152   13134   13158       7
   13149   13152   13167   13191       1   13149   13164  -13185   13191       1
   13134   13107  -13131   13149       1   13134   13152   13149   13164       1
   13134   13152   13167   13191       1   13134   13155   13170   13197       1
   13134   13155  -13173   13179       1   13134   13155   13173   13203       1
   13134   13158   13176   13209       1   13134   13158  -13179   13173       1
   13134   13158   13179   13212       1   13131   13107  -13134   13152       7
   13131   13107   13134   13155       7   13131   13107   13134   13158       7
   13131   13149  -13152   13134       1   13131   13149   13152   13167       1
   13131   13149   13164   13185       1   13125   13140   13161   13182       3
   13119   13140   13161   13182       3   13113   13131   13107   13134       1
   13113   13131   13149   13152       5   13113   13131   13149   13164       5
   13107   13131  -13149   13152       5   13107   13131   13149   13164       5
   13107   13134  -13152   13149       7   13107   13134   13152   13167       6
   13107   13134   13155   13170       6   13107   13134   13155   13173       7
   13107   13134   13158   13176       6   13107   13134   13158   13179       7
   13104   13092   13101   13119       1   13104   13125  -13140   13119       1
   13104   13125   13140   13161       1   13101   13092   13104   13125       1
   13101   13119  -13140   13125       1   13101   13119   13140   13161       1
   13098   13089   13095   13107       1   13098   13113  -13131   13107       1
   13098   13113   13131   13149       1   13095   13089   13098   13113       1
   13095   13107  -13131   13113       1   13095   13107   13131   13149       1
   13095   13107   13134   13152       6   13095   13107   13134   13155       6
   13095   13107   13134   13158       6   13092   13086   13089   13095       4
   13092   13086   13089   13098       4   13092   13101   13119   13140       1
   13092   13104  -13125   13140       1   13089   13086   13092   13101       4
   13089   13086   13092   13104       4   13089   13095   13107   13131       1
   13089   13095   13107   13134       1   13089   13098  -13113   13131       1
   13086   13089   13095   13107       1   13086   13089   13098   13113       1
   13086   13092   13101   13119       1   13086   13092   13104   13125       1
   13077   13086   13089   13095       4   13077   13086   13089   13098       4
   13077   13086   13092   13101       4   13077   13086   13092   13104       4
   13071   13077   13086   13089       4   13071   13077   13086   13092       4
   13065   13077   13086   13089       4   13065   13077   13086   13092       4
   13053   13044   13050   13065       1   13053   13071  -13077   13065       1
   13053   13071   13077   13086       1   13050   13044   13053   13071       1
   13050   13065  -13077   13071       1   13050   13065   13077   13086       1
   13047   13041   13044   13050       3   13047   13041   13044   13053       3
   13044   13050   13065   13077       1   13044   13053  -13071   13077       1
   13041   13044   13050   13065       1   13041   13044   13053   13071       1
   13857   13908   13932   13950       3   13851   13908   13932   13950       3
   13845   13899   13929   13947       3   13839   13899   13929   13947       3
   13833   13890   13926   13944       3   13827   13890   13926   13944       3
   13821   13884   13923   13941       3   13815   13884   13923   13941       3
   13812   13872   13920   13938       3   13806   13872   13920   13938       3
   13797   13863   13917   13935       3   13791   13863   13917   13935       3
   13788   13749   13785   13851       1   13788   13857  -13908   13851       1
   13788   13857   13908   13932       1   13785   13749   13788   13857       1
   13785   13851  -13908   13857       1   13785   13851   13908   13932       1
   13782   13746   13779   13839       1   13782   13845  -13899   13839       1
   13782   13845   13899   13929       1   13779   13746   13782   13845       1
   13779   13839  -13899   13845       1   13779   13839   13899   13929       1
   13776   13740   13773   13827       1   13776   13833  -13890   13827       1
   13776   13833   13890   13926       1   13773   13740   13776   13833       1
   13773   13827  -13890   13833       1   13773   13827   13890   13926       1
   13770   13737   13767   13815       1   13770   13821  -13884   13815       1
   13770   13821   13884   13923       1   13767   13737   13770   13821       1
   13767   13815  -13884   13821       1   13767   13815   13884   13923       1
   13764   13734   13761   13806       1   13764   13812  -13872   13806       1
   13764   13812   13872   13920       1   13761   13734   13764   13812       1
   13761   13806  -13872   13812       1   13761   13806   13872   13920       1
   13758   13731   13755   13791       1   13758   13797  -13863   13791       1
   13758   13797   13863   13917       1   13755   13731   13758   13797       1
   13755   13791  -13863   13797       1   13755   13791   13863   13917       1
   13749   13722   13746   13779       4   13749   13722   13746   13782       4
   13749   13785   13851   13908       1   13749   13788  -13857   13908       1
   13746   13722   13749   13785       4   13746   13722   13749   13788       4
   13746   13779   13839   13899       1   13746   13782  -13845   13899       1
   13740   13713   13737   13767       4   13740   13713   13737   13770       4
   13740   13773   13827   13890       1   13740   13776  -13833   13890       1
   13737   13713   13740   13773       4   13737   13713   13740   13776       4
   13737   13767   13815   13884       1   13737   13770  -13821   13884       1
   13734   13710   13731   13755       4   13734   13710   13731   13758       4
   13734   13761   13806   13872       1   13734   13764  -13812   13872       1
   13731   13710   13734   13761       4   13731   13710   13734   13764       4
   13731   13755   13791   13863       1   13731   13758  -13797   13863       1
   13725   13692   13722   13746       4   13725   13692   13722   13749       4
   13722   13746   13779   13839       1   13722   13746   13782   13845       1
   13722   13749   13785   13851       1   13722   13749   13788   13857       1
   13716   13680   13713   13737       4   13716   13680   13713   13740       4
   13713   13737   13767   13815       1   13713   13737   13770   13821       1
   13713   13740   13773   13827       1   13713   13740   13776   13833       1
   13710   13731   13755   13791       1   13710   13731   13758   13797       1
   13710   13734   13761   13806       1   13710   13734   13764   13812       1
   13695   13725   13692   13722       1   13692   13722   13746   13779       4
   13692   13722   13746   13782       4   13692   13722   13749   13785       4
   13692   13722   13749   13788       4   13686   13656   13662   13695       5
   13686   13716   13680   13713       1   13680   13713   13737   13767       4
   13680   13713   13737   13770       4   13680   13713   13740   13773       4
   13680   13713   13740   13776       4   13674   13710   13731   13755       4
   13674   13710   13731   13758       4   13674   13710   13734   13761       4
   13674   13710   13734   13764       4   13668   13674   13710   13731       4
   13668   13674   13710   13734       4   13662   13641   13659   13692       1
   13662   13656   13686   13716       1   13662   13695  -13725   13692       1
   13659   13641   13662   13695       1   13659   13692   13722   13746       4
   13659   13692   13722   13749       4   13659   13692  -13725   13695       1
   13656   13638   13653   13680       1   13656   13662   13641   13659       1
   13656   13662   13695   13725       1   13656   13686  -13716   13680       1
   13653   13638   13656   13662       1   13653   13638   13656   13686       1
   13653   13680   13713   13737       4   13653   13680   13713   13740       4
   13653   13680  -13716   13686       1   13650   13674   13710   13731       4
   13650   13674   13710   13734       4   13647   13632   13635   13650       1
   13647   13668  -13674   13650       1   13647   13668   13674   13710       1
   13641   13617   13635   13650       6   13641   13617   13638   13653       6
   13641   13617  -13638   13656       7   13641   13659   13692   13722       1
   13641   13659   13692   13725       1   13641   13662   13656   13686       5
   13641   13662  -13695   13725       1   13638   13617   13635   13650       6
   13638   13617   13641   13659       6   13638   13617  -13641   13662       7
   13638   13653   13680   13713       1   13638   13653   13680   13716       1
   13638   13656  -13662   13641       5   13638   13656   13662   13695       5
   13638   13656  -13686   13716       1   13635   13617   13638   13653       6
   13635   13617   13638   13656       7   13635   13617   13641   13659       6
   13635   13617   13641   13662       7   13635   13632   13647   13668       1
   13635   13650  -13674   13668       1   13635   13650   13674   13710       1
   13632   13635   13617   13638       7   13632   13635   13617   13641       7
   13632   13635   13650   13674       1   13632   13647  -13668   13674       1
   13617   13590  -13614   13632       1   13617   13635   13632   13647       1
   13617   13635   13650   13674       1   13617   13638   13653   13680       1
   13617   13638  -13656   13662       1   13617   13638   13656   13686       1
   13617   13641   13659   13692       1   13617   13641  -13662   13656       1
   13617   13641   13662   13695       1   13614   13590  -13617   13635       7
   13614   13590   13617   13638       7   13614   13590   13617   13641       7
   13614   13632  -13635   13617       1   13614   13632   13635   13650       1
   13614   13632   13647   13668       1   13608   13623   13644   13665       3
   13602   13623   13644   13665       3   13596   13614   13590   13617       1
   13596   13614   13632   13635       5   13596   13614   13632   13647       5
   13590   13614  -13632   13635       5   13590   13614   13632   13647       5
   13590   13617  -13635   13632       7   13590   13617   13635   13650       6
   13590   13617   13638   13653       6   13590   13617   13638   13656       7
   13590   13617   13641   13659       6   13590   13617   13641   13662       7
   13587   13575   13584   13602       1   13587   13608  -13623   13602       1
   13587   13608   13623   13644       1   13584   13575   13587   13608       1
   13584   13602  -13623   13608       1   13584   13602   13623   13644       1
   13581   13572   13578   13590       1   13581   13596  -13614   13590       1
   13581   13596   13614   13632       1   13578   13572   13581   13596       1
   13578   13590  -13614   13596       1   13578   13590   13614   13632       1
   13578   13590   13617   13635       6   13578   13590   13617   13638       6
   13578   13590   13617   13641       6   13575   13569   13572   13578       4
   13575   13569   13572   13581       4   13575   13584   13602   13623       1
   13575   13587  -13608   13623       1   13572   13569   13575   13584       4
   13572   13569   13575   13587       4   13572   13578   13590   13614       1
   13572   13578   13590   13617       1   13572   13581  -13596   13614       1
   13569   13572   13578   13590       1   13569   13572   13581   13596       1
   13569   13575   13584   13602       1   13569   13575   13587   13608       1
   13560   13569   13572   13578       4   13560   13569   13572   13581       4
   13560   13569   13575   13584       4   13560   13569   13575   13587       4
   13554   13560   13569   13572       4   13554   13560   13569   13575       4
   13548   13560   13569   13572       4   13548   13560   13569   13575       4
   13536   13527   13533   13548       1   13536   13554  -13560   13548       1
   13536   13554   13560   13569       1   13533   13527   13536   13554       1
   13533   13548  -13560   13554       1   13533   13548   13560   13569       1
   13530   13524   13527   13533       3   13530   13524   13527   13536       3
   13527   13533   13548   13560       1   13527   13536  -13554   13560       1
   13524   13527   13533   13548       1   13524   13527   13536   13554       1
   14340   14391   14415   14433       3   14334   14391   14415   14433       3
   14328   14382   14412   14430       3   14322   14382   14412   14430       3
   14316   14373   14409   14427       3   14310   14373   14409   14427       3
   14304   14367   14406   14424       3   14298   14367   14406   14424       3
   14295   14355   14403   14421       3   14289   14355   14403   14421       3
   14280   14346   14400   14418       3   14274   14346   14400   14418       3
   14271   14232   14268   14334       1   14271   14340  -14391   14334       1
   14271   14340   14391   14415       1   14268   14232   14271   14340       1
   14268   14334  -14391   14340       1   14268   14334   14391   14415       1
   14265   14229   14262   14322       1   14265   14328  -14382   14322       1
   14265   14328   14382   14412       1   14262   14229   14265   14328       1
   14262   14322  -14382   14328       1   14262   14322   14382   14412       1
   14259   14223   14256   14310       1   14259   14316  -14373   14310       1
   14259   14316   14373   14409       1   14256   14223   14259   14316       1
   14256   14310  -14373   14316       1   14256   14310   14373   14409       1
   14253   14220   14250   14298       1   14253   14304  -14367   14298       1
   14253   14304   14367   14406       1   14250   14220   14253   14304       1
   14250   14298  -14367   14304       1   14250   14298   14367   14406       1
   14247   14217   14244   14289       1   14247   14295  -14355   14289       1
   14247   14295   14355   14403       1   14244   14217   14247   14295       1
   14244   14289  -14355   14295       1   14244   14289   14355   14403       1
   14241   14214   14238   14274       1   14241   14280  -14346   14274       1
   14241   14280   14346   14400       1   14238   14214   14241   14280       1
   14238   14274  -14346   14280       1   14238   14274   14346   14400       1
   14232   14205   14229   14262       4   14232   14205   14229   14265       4
   14232   14268   14334   14391       1   14232   14271  -14340   14391       1
   14229   14205   14232   14268       4   14229   14205   14232   14271       4
   14229   14262   14322   14382       1   14229   14265  -14328   14382       1
   14223   14196   14220   14250       4   14223   14196   14220   14253       4
   14223   14256   14310   14373       1   14223   14259  -14316   14373       1
   14220   14196   14223   14256       4   14220   14196   14223   14259       4
   14220   14250   14298   14367       1   14220   14253  -14304   14367       1
   14217   14193   14214   14238       4   14217   14193   14214   14241       4
   14217   14244   14289   14355       1   14217   14247  -14295   14355       1
   14214   14193   14217   14244       4   14214   14193   14217   14247       4
   14214   14238   14274   14346       1   14214   14241  -14280   14346       1
   14208   14175   14205   14229       4   14208   14175   14205   14232       4
   14205   14229   14262   14322       1   14205   14229   14265   14328       1
   14205   14232   14268   14334       1   14205   14232   14271   14340       1
   14199   14163   14196   14220       4   14199   14163   14196   14223       4
   14196   14220   14250   14298       1   14196   14220   14253   14304       1
   14196   14223   14256   14310       1   14196   14223   14259   14316       1
   14193   14214   14238   14274       1   14193   14214   14241   14280       1
   14193   14217   14244   14289       1   14193   14217   14247   14295       1
   14178   14208   14175   14205       1   14175   14205   14229   14262       4
   14175   14205   14229   14265       4   14175   14205   14232   14268       4
   14175   14205   14232   14271       4   14169   14139   14145   14178       5
   14169   14199   14163   14196       1   14163   14196   14220   14250       4
   14163   14196   14220   14253       4   14163   14196   14223   14256       4
   14163   14196   14223   14259       4   14157   14193   14214   14238       4
   14157   14193   14214   14241       4   14157   14193   14217   14244       4
   14157   14193   14217   14247       4   14151   14157   14193   14214       4
   14151   14157   14193   14217       4   14145   14124   14142   14175       1
   14145   14139   14169   14199       1   14145   14178  -14208   14175       1
   14142   14124   14145   14178       1   14142   14175   14205   14229       4
   14142   14175   14205   14232       4   14142   14175  -14208   14178       1
   14139   14121   14136   14163       1   14139   14145   14124   14142       1
   14139   14145   14178   14208       1   14139   14169  -14199   14163       1
   14136   14121   14139   14145       1   14136   14121   14139   14169       1
   14136   14163   14196   14220       4   14136   14163   14196   14223       4
   14136   14163  -14199   14169       1   14133   14157   14193   14214       4
   14133   14157   14193   14217       4   14130   14115   14118   14133       1
   14130   14151  -14157   14133       1   14130   14151   14157   14193       1
   14124   14100   14118   14133       6   14124   14100   14121   14136       6
   14124   14100  -14121   14139       7   14124   14142   14175   14205       1
   14124   14142   14175   14208       1   14124   14145   14139   14169       5
   14124   14145  -14178   14208       1   14121   14100   14118   14133       6
   14121   14100   14124   14142       6   14121   14100  -14124   14145       7
   14121   14136   14163   14196       1   14121   14136   14163   14199       1
   14121   14139  -14145   14124       5   14121   14139   14145   14178       5
   14121   14139  -14169   14199       1   14118   14100   14121   14136       6
   14118   14100   14121   14139       7   14118   14100   14124   14142       6
   14118   14100   14124   14145       7   14118   14115   14130   14151       1
   14118   14133  -14157   14151       1   14118   14133   14157   14193       1
   14115   14118   14100   14121       7   14115   14118   14100   14124       7
   14115   14118   14133   14157       1   14115   14130  -14151   14157       1
   14100   14073  -14097   14115       1   14100   14118   14115   14130       1
   14100   14118   14133   14157       1   14100   14121   14136   14163       1
   14100   14121  -14139   14145       1   14100   14121   14139   14169       1
   14100   14124   14142   14175       1   14100   14124  -14145   14139       1
   14100   14124   14145   14178       1   14097   14073  -14100   14118       7
   14097   14073   14100   14121       7   14097   14073   14100   14124       7
   14097   14115  -14118   14100       1   14097   14115   14118   14133       1
   14097   14115   14130   14151       1   14091   14106   14127   14148       3
   14085   14106   14127   14148       3   14079   14097   14073   14100       1
   14079   14097   14115   14118       5   14079   14097   14115   14130       5
   14073   14097  -14115   14118       5   14073   14097   14115   14130       5
   14073   14100  -14118   14115       7   14073   14100   14118   14133       6
   14073   14100   14121   14136       6   14073   14100   14121   14139       7
   14073   14100   14124   14142       6   14073   14100   14124   14145       7
   14070   14058   14067   14085       1   14070   14091  -14106   14085       1
   14070   14091   14106   14127       1   14067   14058   14070   14091       1
   14067   14085  -14106   14091       1   14067   14085   14106   14127       1
   14064   14055   14061   14073       1   14064   14079  -14097   14073       1
   14064   14079   14097   14115       1   14061   14055   14064   14079       1
   14061   14073  -14097   14079       1   14061   14073   14097   14115       1
   14061   14073   14100   14118       6   14061   14073   14100   14121       6
   14061   14073   14100   14124       6   14058   14052   14055   14061       4
   14058   14052   14055   14064       4   14058   14067   14085   14106       1
   14058   14070  -14091   14106       1   14055   14052   14058   14067       4
   14055   14052   14058   14070       4   14055   14061   14073   14097       1
   14055   14061   14073   14100       1   14055   14064  -14079   14097       1
   14052   14055   14061   14073       1   14052   14055   14064   14079       1
   14052   14058   14067   14085       1   14052   14058   14070   14091       1
   14043   14052   14055   14061       4   14043   14052   14055   14064       4
   14043   14052   14058   14067       4   14043   14052   14058   14070       4
   14037   14043   14052   14055       4   14037   14043   14052   14058       4
   14031   14043   14052   14055       4   14031   14043   14052   14058       4
   14019   14010   14016   14031       1   14019   14037  -14043   14031       1
   14019   14037   14043   14052       1   14016   14010   14019   14037       1
   14016   14031  -14043   14037       1   14016   14031   14043   14052       1
   14013   14007   14010   14016       3   14013   14007   14010   14019       3
   14010   14016   14031   14043       1   14010   14019  -14037   14043       1
   14007   14010   14016   14031       1   14007   14010   14019   14037       1
   14823   14874   14898   14916       3   14817   14874   14898   14916       3
   14811   14865   14895   14913       3   14805   14865   14895   14913       3
   14799   14856   14892   14910       3   14793   14856   14892   14910       3
   14787   14850   14889   14907       3   14781   14850   14889   14907       3
   14778   14838   14886   14904       3   14772   14838   14886   14904       3
   14763   14829   14883   14901       3   14757   14829   14883   14901       3
   14754   14715   14751   14817       1   14754   14823  -14874   14817       1
   14754   14823   14874   14898       1   14751   14715   14754   14823       1
   14751   14817  -14874   14823       1   14751   14817   14874   14898       1
   14748   14712   14745   14805       1   14748   14811  -14865   14805       1
   14748   14811   14865   14895       1   14745   14712   14748   14811       1
   14745   14805  -14865   14811       1   14745   14805   14865   14895       1
   14742   14706   14739   14793       1   14742   14799  -14856   14793       1
   14742   14799   14856   14892       1   14739   14706   14742   14799       1
   14739   14793  -14856   14799       1   14739   14793   14856   14892       1
   14736   14703   14733   14781       1   14736   14787  -14850   14781       1
   14736   14787   14850   14889       1   14733   14703   14736   14787       1
   14733   14781  -14850   14787       1   14733   14781   14850   14889       1
   14730   14700   14727   14772       1   14730   14778  -14838   14772       1
   14730   14778   14838   14886       1   14727   14700   14730   14778       1
   14727   14772  -14838   14778       1   14727   14772   14838   14886       1
   14724   14697   14721   14757       1   14724   14763  -14829   14757       1
   14724   14763   14829   14883       1   14721   14697   14724   14763       1
   14721   14757  -14829   14763       1   14721   14757   14829   14883       1
   14715   14688   14712   14745       4   14715   14688   14712   14748       4
   14715   14751   14817   14874       1   14715   14754  -14823   14874       1
   14712   14688   14715   14751       4   14712   14688   14715   14754       4
   14712   14745   14805   14865       1   14712   14748  -14811   14865       1
   14706   14679   14703   14733       4   14706   14679   14703   14736       4
   14706   14739   14793   14856       1   14706   14742  -14799   14856       1
   14703   14679   14706   14739       4   14703   14679   14706   14742       4
   14703   14733   14781   14850       1   14703   14736  -14787   14850       1
   14700   14676   14697   14721       4   14700   14676   14697   14724       4
   14700   14727   14772   14838       1   14700   14730  -14778   14838       1
   14697   14676   14700   14727       4   14697   14676   14700   14730       4
   14697   14721   14757   14829       1   14697   14724  -14763   14829       1
   14691   14658   14688   14712       4   14691   14658   14688   14715       4
   14688   14712   14745   14805       1   14688   14712   14748   14811       1
   14688   14715   14751   14817       1   14688   14715   14754   14823       1
   14682   14646   14679   14703       4   14682   14646   14679   14706       4
   14679   14703   14733   14781       1   14679   14703   14736   14787       1
   14679   14706   14739   14793       1   14679   14706   14742   14799       1
   14676   14697   14721   14757       1   14676   14697   14724   14763       1
   14676   14700   14727   14772       1   14676   14700   14730   14778       1
   14661   14691   14658   14688       1   14658   14688   14712   14745       4
   14658   14688   14712   14748       4   14658   14688   14715   14751       4
   14658   14688   14715   14754       4   14652   14622   14628   14661       5
   14652   14682   14646   14679       1   14646   14679   14703   14733       4
   14646   14679   14703   14736       4   14646   14679   14706   14739       4
   14646   14679   14706   14742       4   14640   14676   14697   14721       4
   14640   14676   14697   14724       4   14640   14676   14700   14727       4
   14640   14676   14700   14730       4   14634   14640   14676   14697       4
   14634   14640   14676   14700       4   14628   14607   14625   14658       1
   14628   14622   14652   14682       1   14628   14661  -14691   14658       1
   14625   14607   14628   14661       1   14625   14658   14688   14712       4
   14625   14658   14688   14715       4   14625   14658  -14691   14661       1
   14622   14604   14619   14646       1   14622   14628   14607   14625       1
   14622   14628   14661   14691       1   14622   14652  -14682   14646       1
   14619   14604   14622   14628       1   14619   14604   14622   14652       1
   14619   14646   14679   14703       4   14619   14646   14679   14706       4
   14619   14646  -14682   14652       1   14616   14640   14676   14697       4
   14616   14640   14676   14700       4   14613   14598   14601   14616       1
   14613   14634  -14640   14616       1   14613   14634   14640   14676       1
   14607   14583   14601   14616       6   14607   14583   14604   14619       6
   14607   14583  -14604   14622       7   14607   14625   14658   14688       1
   14607   14625   14658   14691       1   14607   14628   14622   14652       5
   14607   14628  -14661   14691       1   14604   14583   14601   14616       6
   14604   14583   14607   14625       6   14604   14583  -14607   14628       7
   14604   14619   14646   14679       1   14604   14619   14646   14682       1
   14604   14622  -14628   14607       5   14604   14622   14628   14661       5
   14604   14622  -14652   14682       1   14601   14583   14604   14619       6
   14601   14583   14604   14622       7   14601   14583   14607   14625       6
   14601   14583   14607   14628       7   14601   14598   14613   14634       1
   14601   14616  -14640   14634       1   14601   14616   14640   14676       1
   14598   14601   14583   14604       7   14598   14601   14583   14607       7
   14598   14601   14616   14640       1   14598   14613  -14634   14640       1
   14583   14556  -14580   14598       1   14583   14601   14598   14613       1
   14583   14601   14616   14640       1   14583   14604   14619   14646       1
   14583   14604  -14622   14628       1   14583   14604   14622   14652       1
   14583   14607   14625   14658       1   14583   14607  -14628   14622       1
   14583   14607   14628   14661       1   14580   14556  -14583   14601       7
   14580   14556   14583   14604       7   14580   14556   14583   14607       7
   14580   14598  -14601   14583       1   14580   14598   14601   14616       1
   14580   14598   14613   14634       1   14574   14589   14610   14631       3
   14568   14589   14610   14631       3   14562   14580   14556   14583       1
   14562   14580   14598   14601       5   14562   14580   14598   14613       5
   14556   14580  -14598   14601       5   14556   14580   14598   14613       5
   14556   14583  -14601   14598       7   14556   14583   14601   14616       6
   14556   14583   14604   14619       6   14556   14583   14604   14622       7
   14556   14583   14607   14625       6   14556   14583   14607   14628       7
   14553   14541   14550   14568       1   14553   14574  -14589   14568       1
   14553   14574   14589   14610       1   14550   14541   14553   14574       1
   14550   14568  -14589   14574       1   14550   14568   14589   14610       1
   14547   14538   14544   14556       1   14547   14562  -14580   14556       1
   14547   14562   14580   14598       1   14544   14538   14547   14562       1
   14544   14556  -14580   14562       1   14544   14556   14580   14598       1
   14544   14556   14583   14601       6   14544   14556   14583   14604       6
   14544   14556   14583   14607       6   14541   14535   14538   14544       4
   14541   14535   14538   14547       4   14541   14550   14568   14589       1
   14541   14553  -14574   14589       1   14538   14535   14541   14550       4
   14538   14535   14541   14553       4   14538   14544   14556   14580       1
   14538   14544   14556   14583       1   14538   14547  -14562   14580       1
   14535   14538   14544   14556       1   14535   14538   14547   14562       1
   14535   14541   14550   14568       1   14535   14541   14553   14574       1
   14526   14535   14538   14544       4   14526   14535   14538   14547       4
   14526   14535   14541   14550       4   14526   14535   14541   14553       4
   14520   14526   14535   14538       4   14520   14526   14535   14541       4
   14514   14526   14535   14538       4   14514   14526   14535   14541       4
   14502   14493   14499   14514       1   14502   14520  -14526   14514       1
   14502   14520   14526   14535       1   14499   14493   14502   14520       1
   14499   14514  -14526   14520       1   14499   14514   14526   14535       1
   14496   14490   14493   14499       3   14496   14490   14493   14502       3
   14493   14499   14514   14526       1   14493   14502  -14520   14526       1
   14490   14493   14499   14514       1   14490   14493   14502   14520       1
   15306   15357   15381   15399       3   15300   15357   15381   15399       3
   15294   15348   15378   15396       3   15288   15348   15378   15396       3
   15282   15339   15375   15393       3   15276   15339   15375   15393       3
   15270   15333   15372   15390       3   15264   15333   15372   15390       3
   15261   15321   15369   15387       3   15255   15321   15369   15387       3
   15246   15312   15366   15384       3   15240   15312   15366   15384       3
   15237   15198   15234   15300       1   15237   15306  -15357   15300       1
   15237   15306   15357   15381       1   15234   15198   15237   15306       1
   15234   15300  -15357   15306       1   15234   15300   15357   15381       1
   15231   15195   15228   15288       1   15231   15294  -15348   15288       1
   15231   15294   15348   15378       1   15228   15195   15231   15294       1
   15228   15288  -15348   15294       1   15228   15288   15348   15378       1
   15225   15189   15222   15276       1   15225   15282  -15339   15276       1
   15225   15282   15339   15375       1   15222   15189   15225   15282       1
   15222   15276  -15339   15282       1   15222   15276   15339   15375       1
   15219   15186   15216   15264       1   15219   15270  -15333   15264       1
   15219   15270   15333   15372       1   15216   15186   15219   15270       1
   15216   15264  -15333   15270       1   15216   15264   15333   15372       1
   15213   15183   15210   15255       1   15213   15261  -15321   15255       1
   15213   15261   15321   15369       1   15210   15183   15213   15261       1
   15210   15255  -15321   15261       1   15210   15255   15321   15369       1
   15207   15180   15204   15240       1   15207   15246  -15312   15240       1
   15207   15246   15312   15366       1   15204   15180   15207   15246       1
   15204   15240  -15312   15246       1   15204   15240   15312   15366       1
   15198   15171   15195   15228       4   15198   15171   15195   15231       4
   15198   15234   15300   15357       1   15198   15237  -15306   15357       1
   15195   15171   15198   15234       4   15195   15171   15198   15237       4
   15195   15228   15288   15348       1   15195   15231  -15294   15348       1
   15189   15162   15186   15216       4   15189   15162   15186   15219       4
   15189   15222   15276   15339       1   15189   15225  -15282   15339       1
   15186   15162   15189   15222       4   15186   15162   15189   15225       4
   15186   15216   15264   15333       1   15186   15219  -15270   15333       1
   15183   15159   15180   15204       4   15183   15159   15180   15207       4
   15183   15210   15255   15321       1   15183   15213  -15261   15321       1
   15180   15159   15183   15210       4   15180   15159   15183   15213       4
   15180   15204   15240   15312       1   15180   15207  -15246   15312       1
   15174   15141   15171   15195       4   15174   15141   15171   15198       4
   15171   15195   15228   15288       1   15171   15195   15231   15294       1
   15171   15198   15234   15300       1   15171   15198   15237   15306       1
   15165   15129   15162   15186       4   15165   15129   15162   15189       4
   15162   15186   15216   15264       1   15162   15186   15219   15270       1
   15162   15189   15222   15276       1   15162   15189   15225   15282       1
   15159   15180   15204   15240       1   15159   15180   15207   15246       1
   15159   15183   15210   15255       1   15159   15183   15213   15261       1
   15144   15174   15141   15171       1   15141   15171   15195   15228       4
   15141   15171   15195   15231       4   15141   15171   15198   15234       4
   15141   15171   15198   15237       4   15135   15105   15111   15144       5
   15135   15165   15129   15162       1   15129   15162   15186   15216       4
   15129   15162   15186   15219       4   15129   15162   15189   15222       4
   15129   15162   15189   15225       4   15123   15159   15180   15204       4
   15123   15159   15180   15207       4   15123   15159   15183   15210       4
   15123   15159   15183   15213       4   15117   15123   15159   15180       4
   15117   15123   15159   15183       4   15111   15090   15108   15141       1
   15111   15105   15135   15165       1   15111   15144  -15174   15141       1
   15108   15090   15111   15144       1   15108   15141   15171   15195       4
   15108   15141   15171   15198       4   15108   15141  -15174   15144       1
   15105   15087   15102   15129       1   15105   15111   15090   15108       1
   15105   15111   15144   15174       1   15105   15135  -15165   15129       1
   15102   15087   15105   15111       1   15102   15087   15105   15135       1
   15102   15129   15162   15186       4   15102   15129   15162   15189       4
   15102   15129  -15165   15135       1   15099   15123   15159   15180       4
   15099   15123   15159   15183       4   15096   15081   15084   15099       1
   15096   15117  -15123   15099       1   15096   15117   15123   15159       1
   15090   15066   15084   15099       6   15090   15066   15087   15102       6
   15090   15066  -15087   15105       7   15090   15108   15141   15171       1
   15090   15108   15141   15174       1   15090   15111   15105   15135       5
   15090   15111  -15144   15174       1   15087   15066   15084   15099       6
   15087   15066   15090   15108       6   15087   15066  -15090   15111       7
   15087   15102   15129   15162       1   15087   15102   15129   15165       1
   15087   15105  -15111   15090       5   15087   15105   15111   15144       5
   15087   15105  -15135   15165       1   15084   15066   15087   15102       6
   15084   15066   15087   15105       7   15084   15066   15090   15108       6
   15084   15066   15090   15111       7   15084   15081   15096   15117       1
   15084   15099  -15123   15117       1   15084   15099   15123   15159       1
   15081   15084   15066   15087       7   15081   15084   15066   15090       7
   15081   15084   15099   15123       1   15081   15096  -15117   15123       1
   15066   15039  -15063   15081       1   15066   15084   15081   15096       1
   15066   15084   15099   15123       1   15066   15087   15102   15129       1
   15066   15087  -15105   15111       1   15066   15087   15105   15135       1
   15066   15090   15108   15141       1   15066   15090  -15111   15105       1
   15066   15090   15111   15144       1   15063   15039  -15066   15084       7
   15063   15039   15066   15087       7   15063   15039   15066   15090       7
   15063   15081  -15084   15066       1   15063   15081   15084   15099       1
   15063   15081   15096   15117       1   15057   15072   15093   15114       3
   15051   15072   15093   15114       3   15045   15063   15039   15066       1
   15045   15063   15081   15084       5   15045   15063   15081   15096       5
   15039   15063  -15081   15084       5   15039   15063   15081   15096       5
   15039   15066  -15084   15081       7   15039   15066   15084   15099       6
   15039   15066   15087   15102       6   15039   15066   15087   15105       7
   15039   15066   15090   15108       6   15039   15066   15090   15111       7
   15036   15024   15033   15051       1   15036   15057  -15072   15051       1
   15036   15057   15072   15093       1   15033   15024   15036   15057       1
   15033   15051  -15072   15057       1   15033   15051   15072   15093       1
   15030   15021   15027   15039       1   15030   15045  -15063   15039       1
   15030   15045   15063   15081       1   15027   15021   15030   15045       1
   15027   15039  -15063   15045       1   15027   15039   15063   15081       1
   15027   15039   15066   15084       6   15027   15039   15066   15087       6
   15027   15039   15066   15090       6   15024   15018   15021   15027       4
   15024   15018   15021   15030       4   15024   15033   15051   15072       1
   15024   15036  -15057   15072       1   15021   15018   15024   15033       4
   15021   15018   15024   15036       4   15021   15027   15039   15063       1
   15021   15027   15039   15066       1   15021   15030  -15045   15063       1
   15018   15021   15027   15039       1   15018   15021   15030   15045       1
   15018   15024   15033   15051       1   15018   15024   15036   15057       1
   15009   15018   15021   15027       4   15009   15018   15021   15030       4
   15009   15018   15024   15033       4   15009   15018   15024   15036       4
   15003   15009   15018   15021       4   15003   15009   15018   15024       4
   14997   15009   15018   15021       4   14997   15009   15018   15024       4
   14985   14976   14982   14997       1   14985   15003  -15009   14997       1
   14985   15003   15009   15018       1   14982   14976   14985   15003       1
   14982   14997  -15009   15003       1   14982   14997   15009   15018       1
   14979   14973   14976   14982       3   14979   14973   14976   14985       3
   14976   14982   14997   15009       1   14976   14985  -15003   15009       1
   14973   14976   14982   14997       1   14973   14976   14985   15003       1
   15789   15840   15864   15882       3   15783   15840   15864   15882       3
   15777   15831   15861   15879       3   15771   15831   15861   15879       3
   15765   15822   15858   15876       3   15759   15822   15858   15876       3
   15753   15816   15855   15873       3   15747   15816   15855   15873       3
   15744   15804   15852   15870       3   15738   15804   15852   15870       3
   15729   15795   15849   15867       3   15723   15795   15849   15867       3
   15720   15681   15717   15783       1   15720   15789  -15840   15783       1
   15720   15789   15840   15864       1   15717   15681   15720   15789       1
   15717   15783  -15840   15789       1   15717   15783   15840   15864       1
   15714   15678   15711   15771       1   15714   15777  -15831   15771       1
   15714   15777   15831   15861       1   15711   15678   15714   15777       1
   15711   15771  -15831   15777       1   15711   15771   15831   15861       1
   15708   15672   15705   15759       1   15708   15765  -15822   15759       1
   15708   15765   15822   15858       1   15705   15672   15708   15765       1
   15705   15759  -15822   15765       1   15705   15759   15822   15858       1
   15702   15669   15699   15747       1   15702   15753  -15816   15747       1
   15702   15753   15816   15855       1   15699   15669   15702   15753       1
   15699   15747  -15816   15753       1   15699   15747   15816   15855       1
   15696   15666   15693   15738       1   15696   15744  -15804   15738       1
   15696   15744   15804   15852       1   15693   15666   15696   15744       1
   15693   15738  -15804   15744       1   15693   15738   15804   15852       1
   15690   15663   15687   15723       1   15690   15729  -15795   15723       1
   15690   15729   15795   15849       1   15687   15663   15690   15729       1
   15687   15723  -15795   15729       1   15687   15723   15795   15849       1
   15681   15654   15678   15711       4   15681   15654   15678   15714       4
   15681   15717   15783   15840       1   15681   15720  -15789   15840       1
   15678   15654   15681   15717       4   15678   15654   15681   15720       4
   15678   15711   15771   15831       1   15678   15714  -15777   15831       1
   15672   15645   15669   15699       4   15672   15645   15669   15702       4
   15672   15705   15759   15822       1   15672   15708  -15765   15822       1
   15669   15645   15672   15705       4   15669   15645   15672   15708       4
   15669   15699   15747   15816       1   15669   15702  -15753   15816       1
   15666   15642   15663   15687       4   15666   15642   15663   15690       4
   15666   15693   15738   15804       1   15666   15696  -15744   15804       1
   15663   15642   15666   15693       4   15663   15642   15666   15696       4
   15663   15687   15723   15795       1   15663   15690  -15729   15795       1
   15657   15624   15654   15678       4   15657   15624   15654   15681       4
   15654   15678   15711   15771       1   15654   15678   15714   15777       1
   15654   15681   15717   15783       1   15654   15681   15720   15789       1
   15648   15612   15645   15669       4   15648   15612   15645   15672       4
   15645   15669   15699   15747       1   15645   15669   15702   15753       1
   15645   15672   15705   15759       1   15645   15672   15708   15765       1
   15642   15663   15687   15723       1   15642   15663   15690   15729       1
   15642   15666   15693   15738       1   15642   15666   15696   15744       1
   15627   15657   15624   15654       1   15624   15654   15678   15711       4
   15624   15654   15678   15714       4   15624   15654   15681   15717       4
   15624   15654   15681   15720       4   15618   15588   15594   15627       5
   15618   15648   15612   15645       1   15612   15645   15669   15699       4
   15612   15645   15669   15702       4   15612   15645   15672   15705       4
   15612   15645   15672   15708       4   15606   15642   15663   15687       4
   15606   15642   15663   15690       4   15606   15642   15666   15693       4
   15606   15642   15666   15696       4   15600   15606   15642   15663       4
   15600   15606   15642   15666       4   15594   15573   15591   15624       1
   15594   15588   15618   15648       1   15594   15627  -15657   15624       1
   15591   15573   15594   15627       1   15591   15624   15654   15678       4
   15591   15624   15654   15681       4   15591   15624  -15657   15627       1
   15588   15570   15585   15612       1   15588   15594   15573   15591       1
   15588   15594   15627   15657       1   15588   15618  -15648   15612       1
   15585   15570   15588   15594       1   15585   15570   15588   15618       1
   15585   15612   15645   15669       4   15585   15612   15645   15672       4
   15585   15612  -15648   15618       1   15582   15606   15642   15663       4
   15582   15606   15642   15666       4   15579   15564   15567   15582       1
   15579   15600  -15606   15582       1   15579   15600   15606   15642       1
   15573   15549   15567   15582       6   15573   15549   15570   15585       6
   15573   15549  -15570   15588       7   15573   15591   15624   15654       1
   15573   15591   15624   15657       1   15573   15594   15588   15618       5
   15573   15594  -15627   15657       1   15570   15549   15567   15582       6
   15570   15549   15573   15591       6   15570   15549  -15573   15594       7
   15570   15585   15612   15645       1   15570   15585   15612   15648       1
   15570   15588  -15594   15573       5   15570   15588   15594   15627       5
   15570   15588  -15618   15648       1   15567   15549   15570   15585       6
   15567   15549   15570   15588       7   15567   15549   15573   15591       6
   15567   15549   15573   15594       7   15567   15564   15579   15600       1
   15567   15582  -15606   15600       1   15567   15582   15606   15642       1
   15564   15567   15549   15570       7   15564   15567   15549   15573       7
   15564   15567   15582   15606       1   15564   15579  -15600   15606       1
   15549   15522  -15546   15564       1   15549   15567   15564   15579       1
   15549   15567   15582   15606       1   15549   15570   15585   15612       1
   15549   15570  -15588   15594       1   15549   15570   15588   15618       1
   15549   15573   15591   15624       1   15549   15573  -15594   15588       1
   15549   15573   15594   15627       1   15546   15522  -15549   15567       7
   15546   15522   15549   15570       7   15546   15522   15549   15573       7
   15546   15564  -15567   15549       1   15546   15564   15567   15582       1
   15546   15564   15579   15600       1   15540   15555   15576   15597       3
   15534   15555   15576   15597       3   15528   15546   15522   15549       1
   15528   15546   15564   15567       5   15528   15546   15564   15579       5
   15522   15546  -15564   15567       5   15522   15546   15564   15579       5
   15522   15549  -15567   15564       7   15522   15549   15567   15582       6
   15522   15549   15570   15585       6   15522   15549   15570   15588       7
   15522   15549   15573   15591       6   15522   15549   15573   15594       7
   15519   15507   15516   15534       1   15519   15540  -15555   15534       1
   15519   15540   15555   15576       1   15516   15507   15519   15540       1
   15516   15534  -15555   15540       1   15516   15534   15555   15576       1
   15513   15504   15510   15522       1   15513   15528  -15546   15522       1
   15513   15528   15546   15564       1   15510   15504   15513   15528       1
   15510   15522  -15546   15528       1   15510   15522   15546   15564       1
   15510   15522   15549   15567       6   15510   15522   15549   15570       6
   15510   15522   15549   15573       6   15507   15501   15504   15510       4
   15507   15501   15504   15513       4   15507   15516   15534   15555       1
   15507   15519  -15540   15555       1   15504   15501   15507   15516       4
   15504   15501   15507   15519       4   15504   15510   15522   15546       1
   15504   15510   15522   15549       1   15504   15513  -15528   15546       1
   15501   15504   15510   15522       1   15501   15504   15513   15528       1
   15501   15507   15516   15534       1   15501   15507   15519   15540       1
   15492   15501   15504   15510       4   15492   15501   15504   15513       4
   15492   15501   15507   15516       4   15492   15501   15507   15519       4
   15486   15492   15501   15504       4   15486   15492   15501   15507       4
   15480   15492   15501   15504       4   15480   15492   15501   15507       4
   15468   15459   15465   15480       1   15468   15486  -15492   15480       1
   15468   15486   15492   15501       1   15465   15459   15468   15486       1
   15465   15480  -15492   15486       1   15465   15480   15492   15501       1
   15462   15456   15459   15465       3   15462   15456   15459   15468       3
   15459   15465   15480   15492       1   15459   15468  -15486   15492       1
   15456   15459   15465   15480       1   15456   15459   15468   15486       1
   16272   16323   16347   16365       3   16266   16323   16347   16365       3
   16260   16314   16344   16362       3   16254   16314   16344   16362       3
   16248   16305   16341   16359       3   16242   16305   16341   16359       3
   16236   16299   16338   16356       3   16230   16299   16338   16356       3
   16227   16287   16335   16353       3   16221   16287   16335   16353       3
   16212   16278   16332   16350       3   16206   16278   16332   16350       3
   16203   16164   16200   16266       1   16203   16272  -16323   16266       1
   16203   16272   16323   16347       1   16200   16164   16203   16272       1
   16200   16266  -16323   16272       1   16200   16266   16323   16347       1
   16197   16161   16194   16254       1   16197   16260  -16314   16254       1
   16197   16260   16314   16344       1   16194   16161   16197   16260       1
   16194   16254  -16314   16260       1   16194   16254   16314   16344       1
   16191   16155   16188   16242       1   16191   16248  -16305   16242       1
   16191   16248   16305   16341       1   16188   16155   16191   16248       1
   16188   16242  -16305   16248       1   16188   16242   16305   16341       1
   16185   16152   16182   16230       1   16185   16236  -16299   16230       1
   16185   16236   16299   16338       1   16182   16152   16185   16236       1
   16182   16230  -16299   16236       1   16182   16230   16299   16338       1
   16179   16149   16176   16221       1   16179   16227  -16287   16221       1
   16179   16227   16287   16335       1   16176   16149   16179   16227       1
   16176   16221  -16287   16227       1   16176   16221   16287   16335       1
   16173   16146   16170   16206       1   16173   16212  -16278   16206       1
   16173   16212   16278   16332       1   16170   16146   16173   16212       1
   16170   16206  -16278   16212       1   16170   16206   16278   16332       1
   16164   16137   16161   16194       4   16164   16137   16161   16197       4
   16164   16200   16266   16323       1   16164   16203  -16272   16323       1
   16161   16137   16164   16200       4   16161   16137   16164   16203       4
   16161   16194   16254   16314       1   16161   16197  -16260   16314       1
   16155   16128   16152   16182       4   16155   16128   16152   16185       4
   16155   16188   16242   16305       1   16155   16191  -16248   16305       1
   16152   16128   16155   16188       4   16152   16128   16155   16191       4
   16152   16182   16230   16299       1   16152   16185  -16236   16299       1
   16149   16125   16146   16170       4   16149   16125   16146   16173       4
   16149   16176   16221   16287       1   16149   16179  -16227   16287       1
   16146   16125   16149   16176       4   16146   16125   16149   16179       4
   16146   16170   16206   16278       1   16146   16173  -16212   16278       1
   16140   16107   16137   16161       4   16140   16107   16137   16164       4
   16137   16161   16194   16254       1   16137   16161   16197   16260       1
   16137   16164   16200   16266       1   16137   16164   16203   16272       1
   16131   16095   16128   16152       4   16131   16095   16128   16155       4
   16128   16152   16182   16230       1   16128   16152   16185   16236       1
   16128   16155   16188   16242       1   16128   16155   16191   16248       1
   16125   16146   16170   16206       1   16125   16146   16173   16212       1
   16125   16149   16176   16221       1   16125   16149   16179   16227       1
   16110   16140   16107   16137       1   16107   16137   16161   16194       4
   16107   16137   16161   16197       4   16107   16137   16164   16200       4
   16107   16137   16164   16203       4   16101   16071   16077   16110       5
   16101   16131   16095   16128       1   16095   16128   16152   16182       4
   16095   16128   16152   16185       4   16095   16128   16155   16188       4
   16095   16128   16155   16191       4   16089   16125   16146   16170       4
   16089   16125   16146   16173       4   16089   16125   16149   16176       4
   16089   16125   16149   16179       4   16083   16089   16125   16146       4
   16083   16089   16125   16149       4   16077   16056   16074   16107       1
   16077   16071   16101   16131       1   16077   16110  -16140   16107       1
   16074   16056   16077   16110       1   16074   16107   16137   16161       4
   16074   16107   16137   16164       4   16074   16107  -16140   16110       1
   16071   16053   16068   16095       1   16071   16077   16056   16074       1
   16071   16077   16110   16140       1   16071   16101  -16131   16095       1
   16068   16053   16071   16077       1   16068   16053   16071   16101       1
   16068   16095   16128   16152       4   16068   16095   16128   16155       4
   16068   16095  -16131   16101       1   16065   16089   16125   16146       4
   16065   16089   16125   16149       4   16062   16047   16050   16065       1
   16062   16083  -16089   16065       1   16062   16083   16089   16125       1
   16056   16032   16050   16065       6   16056   16032   16053   16068       6
   16056   16032  -16053   16071       7   16056   16074   16107   16137       1
   16056   16074   16107   16140       1   16056   16077   16071   16101       5
   16056   16077  -16110   16140       1   16053   16032   16050   16065       6
   16053   16032   16056   16074       6   16053   16032  -16056   16077       7
   16053   16068   16095   16128       1   16053   16068   16095   16131       1
   16053   16071  -16077   16056       5   16053   16071   16077   16110       5
   16053   16071  -16101   16131       1   16050   16032   16053   16068       6
   16050   16032   16053   16071       7   16050   16032   16056   16074       6
   16050   16032   16056   16077       7   16050   16047   16062   16083       1
   16050   16065  -16089   16083       1   16050   16065   16089   16125       1
   16047   16050   16032   16053       7   16047   16050   16032   16056       7
   16047   16050   16065   16089       1   16047   16062  -16083   16089       1
   16032   16005  -16029   16047       1   16032   16050   16047   16062       1
   16032   16050   16065   16089       1   16032   16053   16068   16095       1
   16032   16053  -16071   16077       1   16032   16053   16071   16101       1
   16032   16056   16074   16107       1   16032   16056  -16077   16071       1
   16032   16056   16077   16110       1   16029   16005  -16032   16050       7
   16029   16005   16032   16053       7   16029   16005   16032   16056       7
   16029   16047  -16050   16032       1   16029   16047   16050   16065       1
   16029   16047   16062   16083       1   16023   16038   16059   16080       3
   16017   16038   16059   16080       3   16011   16029   16005   16032       1
   16011   16029   16047   16050       5   16011   16029   16047   16062       5
   16005   16029  -16047   16050       5   16005   16029   16047   16062       5
   16005   16032  -16050   16047       7   16005   16032   16050   16065       6
   16005   16032   16053   16068       6   16005   16032   16053   16071       7
   16005   16032   16056   16074       6   16005   16032   16056   16077       7
   16002   15990   15999   16017       1   16002   16023  -16038   16017       1
   16002   16023   16038   16059       1   15999   15990   16002   16023       1
   15999   16017  -16038   16023       1   15999   16017   16038   16059       1
   15996   15987   15993   16005       1   15996   16011  -16029   16005       1
   15996   16011   16029   16047       1   15993   15987   15996   16011       1
   15993   16005  -16029   16011       1   15993   16005   16029   16047       1
   15993   16005   16032   16050       6   15993   16005   16032   16053       6
   15993   16005   16032   16056       6   15990   15984   15987   15993       4
   15990   15984   15987   15996       4   15990   15999   16017   16038       1
   15990   16002  -16023   16038       1   15987   15984   15990   15999       4
   15987   15984   15990   16002       4   15987   15993   16005   16029       1
   15987   15993   16005   16032       1   15987   15996  -16011   16029       1
   15984   15987   15993   16005       1   15984   15987   15996   16011       1
   15984   15990   15999   16017       1   15984   15990   16002   16023       1
   15975   15984   15987   15993       4   15975   15984   15987   15996       4
   15975   15984   15990   15999       4   15975   15984   15990   16002       4
   15969   15975   15984   15987       4   15969   15975   15984   15990       4
   15963   15975   15984   15987       4   15963   15975   15984   15990       4
   15951   15942   15948   15963       1   15951   15969  -15975   15963       1
   15951   15969   15975   15984       1   15948   15942   15951   15969       1
   15948   15963  -15975   15969       1   15948   15963   15975   15984       1
   15945   15939   15942   15948       3   15945   15939   15942   15951       3
   15942   15948   15963   15975       1   15942   15951  -15969   15975       1
   15939   15942   15948   15963       1   15939   15942   15951   15969       1
   16755   16806   16830   16848       3   16749   16806   16830   16848       3
   16743   16797   16827   16845       3   16737   16797   16827   16845       3
   16731   16788   16824   16842       3   16725   16788   16824   16842       3
   16719   16782   16821   16839       3   16713   16782   16821   16839       3
   16710   16770   16818   16836       3   16704   16770   16818   16836       3
   16695   16761   16815   16833       3   16689   16761   16815   16833       3
   16686   16647   16683   16749       1   16686   16755  -16806   16749       1
   16686   16755   16806   16830       1   16683   16647   16686   16755       1
   16683   16749  -16806   16755       1   16683   16749   16806   16830       1
   16680   16644   16677   16737       1   16680   16743  -16797   16737       1
   16680   16743   16797   16827       1   16677   16644   16680   16743       1
   16677   16737  -16797   16743       1   16677   16737   16797   16827       1
   16674   16638   16671   16725       1   16674   16731  -16788   16725       1
   16674   16731   16788   16824       1   16671   16638   16674   16731       1
   16671   16725  -16788   16731       1   16671   16725   16788   16824       1
   16668   16635   16665   16713       1   16668   16719  -16782   16713       1
   16668   16719   16782   16821       1   16665   16635   16668   16719       1
   16665   16713  -16782   16719       1   16665   16713   16782   16821       1
   16662   16632   16659   16704       1   16662   16710  -16770   16704       1
   16662   16710   16770   16818       1   16659   16632   16662   16710       1
   16659   16704  -16770   16710       1   16659   16704   16770   16818       1
   16656   16629   16653   16689       1   16656   16695  -16761   16689       1
   16656   16695   16761   16815       1   16653   16629   16656   16695       1
   16653   16689  -16761   16695       1   16653   16689   16761   16815       1
   16647   16620   16644   16677       4   16647   16620   16644   16680       4
   16647   16683   16749   16806       1   16647   16686  -16755   16806       1
   16644   16620   16647   16683       4   16644   16620   16647   16686       4
   16644   16677   16737   16797       1   16644   16680  -16743   16797       1
   16638   16611   16635   16665       4   16638   16611   16635   16668       4
   16638   16671   16725   16788       1   16638   16674  -16731   16788       1
   16635   16611   16638   16671       4   16635   16611   16638   16674       4
   16635   16665   16713   16782       1   16635   16668  -16719   16782       1
   16632   16608   16629   16653       4   16632   16608   16629   16656       4
   16632   16659   16704   16770       1   16632   16662  -16710   16770       1
   16629   16608   16632   16659       4   16629   16608   16632   16662       4
   16629   16653   16689   16761       1   16629   16656  -16695   16761       1
   16623   16590   16620   16644       4   16623   16590   16620   16647       4
   16620   16644   16677   16737       1   16620   16644   16680   16743       1
   16620   16647   16683   16749       1   16620   16647   16686   16755       1
   16614   16578   16611   16635       4   16614   16578   16611   16638       4
   16611   16635   16665   16713       1   16611   16635   16668   16719       1
   16611   16638   16671   16725       1   16611   16638   16674   16731       1
   16608   16629   16653   16689       1   16608   16629   16656   16695       1
   16608   16632   16659   16704       1   16608   16632   16662   16710       1
   16593   16623   16590   16620       1   16590   16620   16644   16677       4
   16590   16620   16644   16680       4   16590   16620   16647   16683       4
   16590   16620   16647   16686       4   16584   16554   16560   16593       5
   16584   16614   16578   16611       1   16578   16611   16635   16665       4
   16578   16611   16635   16668       4   16578   16611   16638   16671       4
   16578   16611   16638   16674       4   16572   16608   16629   16653       4
   16572   16608   16629   16656       4   16572   16608   16632   16659       4
   16572   16608   16632   16662       4   16566   16572   16608   16629       4
   16566   16572   16608   16632       4   16560   16539   16557   16590       1
   16560   16554   16584   16614       1   16560   16593  -16623   16590       1
   16557   16539   16560   16593       1   16557   16590   16620   16644       4
   16557   16590   16620   16647       4   16557   16590  -16623   16593       1
   16554   16536   16551   16578       1   16554   16560   16539   16557       1
   16554   16560   16593   16623       1   16554   16584  -16614   16578       1
   16551   16536   16554   16560       1   16551   16536   16554   16584       1
   16551   16578   16611   16635       4   16551   16578   16611   16638       4
   16551   16578  -16614   16584       1   16548   16572   16608   16629       4
   16548   16572   16608   16632       4   16545   16530   16533   16548       1
   16545   16566  -16572   16548       1   16545   16566   16572   16608       1
   16539   16515   16533   16548       6   16539   16515   16536   16551       6
   16539   16515  -16536   16554       7   16539   16557   16590   16620       1
   16539   16557   16590   16623       1   16539   16560   16554   16584       5
   16539   16560  -16593   16623       1   16536   16515   16533   16548       6
   16536   16515   16539   16557       6   16536   16515  -16539   16560       7
   16536   16551   16578   16611       1   16536   16551   16578   16614       1
   16536   16554  -16560   16539       5   16536   16554   16560   16593       5
   16536   16554  -16584   16614       1   16533   16515   16536   16551       6
   16533   16515   16536   16554       7   16533   16515   16539   16557       6
   16533   16515   16539   16560       7   16533   16530   16545   16566       1
   16533   16548  -16572   16566       1   16533   16548   16572   16608       1
   16530   16533   16515   16536       7   16530   16533   16515   16539       7
   16530   16533   16548   16572       1   16530   16545  -16566   16572       1
   16515   16488  -16512   16530       1   16515   16533   16530   16545       1
   16515   16533   16548   16572       1   16515   16536   16551   16578       1
   16515   16536  -16554   16560       1   16515   16536   16554   16584       1
   16515   16539   16557   16590       1   16515   16539  -16560   16554       1
   16515   16539   16560   16593       1   16512   16488  -16515   16533       7
   16512   16488   16515   16536       7   16512   16488   16515   16539       7
   16512   16530  -16533   16515       1   16512   16530   16533   16548       1
   16512   16530   16545   16566       1   16506   16521   16542   16563       3
   16500   16521   16542   16563       3   16494   16512   16488   16515       1
   16494   16512   16530   16533       5   16494   16512   16530   16545       5
   16488   16512  -16530   16533       5   16488   16512   16530   16545       5
   16488   16515  -16533   16530       7   16488   16515   16533   16548       6
   16488   16515   16536   16551       6   16488   16515   16536   16554       7
   16488   16515   16539   16557       6   16488   16515   16539   16560       7
   16485   16473   16482   16500       1   16485   16506  -16521   16500       1
   16485   16506   16521   16542       1   16482   16473   16485   16506       1
   16482   16500  -16521   16506       1   16482   16500   16521   16542       1
   16479   16470   16476   16488       1   16479   16494  -16512   16488       1
   16479   16494   16512   16530       1   16476   16470   16479   16494       1
   16476   16488  -16512   16494       1   16476   16488   16512   16530       1
   16476   16488   16515   16533       6   16476   16488   16515   16536       6
   16476   16488   16515   16539       6   16473   16467   16470   16476       4
   16473   16467   16470   16479       4   16473   16482   16500   16521       1
   16473   16485  -16506   16521       1   16470   16467   16473   16482       4
   16470   16467   16473   16485       4   16470   16476   16488   16512       1
   16470   16476   16488   16515       1   16470   16479  -16494   16512       1
   16467   16470   16476   16488       1   16467   16470   16479   16494       1
   16467   16473   16482   16500       1   16467   16473   16485   16506       1
   16458   16467   16470   16476       4   16458   16467   16470   16479       4
   16458   16467   16473   16482       4   16458   16467   16473   16485       4
   16452   16458   16467   16470       4   16452   16458   16467   16473       4
   16446   16458   16467   16470       4   16446   16458   16467   16473       4
   16434   16425   16431   16446       1   16434   16452  -16458   16446       1
   16434   16452   16458   16467       1   16431   16425   16434   16452       1
   16431   16446  -16458   16452       1   16431   16446   16458   16467       1
   16428   16422   16425   16431       3   16428   16422   16425   16434       3
   16425   16431   16446   16458       1   16425   16434  -16452   16458       1
   16422   16425   16431   16446       1   16422   16425   16434   16452       1
   17238   17289   17313   17331       3   17232   17289   17313   17331       3
   17226   17280   17310   17328       3   17220   17280   17310   17328       3
   17214   17271   17307   17325       3   17208   17271   17307   17325       3
   17202   17265   17304   17322       3   17196   17265   17304   17322       3
   17193   17253   17301   17319       3   17187   17253   17301   17319       3
   17178   17244   17298   17316       3   17172   17244   17298   17316       3
   17169   17130   17166   17232       1   17169   17238  -17289   17232       1
   17169   17238   17289   17313       1   17166   17130   17169   17238       1
   17166   17232  -17289   17238       1   17166   17232   17289   17313       1
   17163   17127   17160   17220       1   17163   17226  -17280   17220       1
   17163   17226   17280   17310       1   17160   17127   17163   17226       1
   17160   17220  -17280   17226       1   17160   17220   17280   17310       1
   17157   17121   17154   17208       1   17157   17214  -17271   17208       1
   17157   17214   17271   17307       1   17154   17121   17157   17214       1
   17154   17208  -17271   17214       1   17154   17208   17271   17307       1
   17151   17118   17148   17196       1   17151   17202  -17265   17196       1
   17151   17202   17265   17304       1   17148   17118   17151   17202       1
   17148   17196  -17265   17202       1   17148   17196   17265   17304       1
   17145   17115   17142   17187       1   17145   17193  -17253   17187       1
   17145   17193   17253   17301       1   17142   17115   17145   17193       1
   17142   17187  -17253   17193       1   17142   17187   17253   17301       1
   17139   17112   17136   17172       1   17139   17178  -17244   17172       1
   17139   17178   17244   17298       1   17136   17112   17139   17178       1
   17136   17172  -17244   17178       1   17136   17172   17244   17298       1
   17130   17103   17127   17160       4   17130   17103   17127   17163       4
   17130   17166   17232   17289       1   17130   17169  -17238   17289       1
   17127   17103   17130   17166       4   17127   17103   17130   17169       4
   17127   17160   17220   17280       1   17127   17163  -17226   17280       1
   17121   17094   17118   17148       4   17121   17094   17118   17151       4
   17121   17154   17208   17271       1   17121   17157  -17214   17271       1
   17118   17094   17121   17154       4   17118   17094   17121   17157       4
   17118   17148   17196   17265       1   17118   17151  -17202   17265       1
   17115   17091   17112   17136       4   17115   17091   17112   17139       4
   17115   17142   17187   17253       1   17115   17145  -17193   17253       1
   17112   17091   17115   17142       4   17112   17091   17115   17145       4
   17112   17136   17172   17244       1   17112   17139  -17178   17244       1
   17106   17073   17103   17127       4   17106   17073   17103   17130       4
   17103   17127   17160   17220       1   17103   17127   17163   17226       1
   17103   17130   17166   17232       1   17103   17130   17169   17238       1
   17097   17061   17094   17118       4   17097   17061   17094   17121       4
   17094   17118   17148   17196       1   17094   17118   17151   17202       1
   17094   17121   17154   17208       1   17094   17121   17157   17214       1
   17091   17112   17136   17172       1   17091   17112   17139   17178       1
   17091   17115   17142   17187       1   17091   17115   17145   17193       1
   17076   17106   17073   17103       1   17073   17103   17127   17160       4
   17073   17103   17127   17163       4   17073   17103   17130   17166       4
   17073   17103   17130   17169       4   17067   17037   17043   17076       5
   17067   17097   17061   17094       1   17061   17094   17118   17148       4
   17061   17094   17118   17151       4   17061   17094   17121   17154       4
   17061   17094   17121   17157       4   17055   17091   17112   17136       4
   17055   17091   17112   17139       4   17055   17091   17115   17142       4
   17055   17091   17115   17145       4   17049   17055   17091   17112       4
   17049   17055   17091   17115       4   17043   17022   17040   17073       1
   17043   17037   17067   17097       1   17043   17076  -17106   17073       1
   17040   17022   17043   17076       1   17040   17073   17103   17127       4
   17040   17073   17103   17130       4   17040   17073  -17106   17076       1
   17037   17019   17034   17061       1   17037   17043   17022   17040       1
   17037   17043   17076   17106       1   17037   17067  -17097   17061       1
   17034   17019   17037   17043       1   17034   17019   17037   17067       1
   17034   17061   17094   17118       4   17034   17061   17094   17121       4
   17034   17061  -17097   17067       1   17031   17055   17091   17112       4
   17031   17055   17091   17115       4   17028   17013   17016   17031       1
   17028   17049  -17055   17031       1   17028   17049   17055   17091       1
   17022   16998   17016   17031       6   17022   16998   17019   17034       6
   17022   16998  -17019   17037       7   17022   17040   17073   17103       1
   17022   17040   17073   17106       1   17022   17043   17037   17067       5
   17022   17043  -17076   17106       1   17019   16998   17016   17031       6
   17019   16998   17022   17040       6   17019   16998  -17022   17043       7
   17019   17034   17061   17094       1   17019   17034   17061   17097       1
   17019   17037  -17043   17022       5   17019   17037   17043   17076       5
   17019   17037  -17067   17097       1   17016   16998   17019   17034       6
   17016   16998   17019   17037       7   17016   16998   17022   17040       6
   17016   16998   17022   17043       7   17016   17013   17028   17049       1
   17016   17031  -17055   17049       1   17016   17031   17055   17091       1
   17013   17016   16998   17019       7   17013   17016   16998   17022       7
   17013   17016   17031   17055       1   17013   17028  -17049   17055       1
   16998   16971  -16995   17013       1   16998   17016   17013   17028       1
   16998   17016   17031   17055       1   16998   17019   17034   17061       1
   16998   17019  -17037   17043       1   16998   17019   17037   17067       1
   16998   17022   17040   17073       1   16998   17022  -17043   17037       1
   16998   17022   17043   17076       1   16995   16971  -16998   17016       7
   16995   16971   16998   17019       7   16995   16971   16998   17022       7
   16995   17013  -17016   16998       1   16995   17013   17016   17031       1
   16995   17013   17028   17049       1   16989   17004   17025   17046       3
   16983   17004   17025   17046       3   16977   16995   16971   16998       1
   16977   16995   17013   17016       5   16977   16995   17013   17028       5
   16971   16995  -17013   17016       5   16971   16995   17013   17028       5
   16971   16998  -17016   17013       7   16971   16998   17016   17031       6
   16971   16998   17019   17034       6   16971   16998   17019   17037       7
   16971   16998   17022   17040       6   16971   16998   17022   17043       7
   16968   16956   16965   16983       1   16968   16989  -17004   16983       1
   16968   16989   17004   17025       1   16965   16956   16968   16989       1
   16965   16983  -17004   16989       1   16965   16983   17004   17025       1
   16962   16953   16959   16971       1   16962   16977  -16995   16971       1
   16962   16977   16995   17013       1   16959   16953   16962   16977       1
   16959   16971  -16995   16977       1   16959   16971   16995   17013       1
   16959   16971   16998   17016       6   16959   16971   16998   17019       6
   16959   16971   16998   17022       6   16956   16950   16953   16959       4
   16956   16950   16953   16962       4   16956   16965   16983   17004       1
   16956   16968  -16989   17004       1   16953   16950   16956   16965       4
   16953   16950   16956   16968       4   16953   16959   16971   16995       1
   16953   16959   16971   16998       1   16953   16962  -16977   16995       1
   16950   16953   16959   16971       1   16950   16953   16962   16977       1
   16950   16956   16965   16983       1   16950   16956   16968   16989       1
   16941   16950   16953   16959       4   16941   16950   16953   16962       4
   16941   16950   16956   16965       4   16941   16950   16956   16968       4
   16935   16941   16950   16953       4   16935   16941   16950   16956       4
   16929   16941   16950   16953       4   16929   16941   16950   16956       4
   16917   16908   16914   16929       1   16917   16935  -16941   16929       1
   16917   16935   16941   16950       1   16914   16908   16917   16935       1
   16914   16929  -16941   16935       1   16914   16929   16941   16950       1
   16911   16905   16908   16914       3   16911   16905   16908   16917       3
   16908   16914   16929   16941       1   16908   16917  -16935   16941       1
   16905   16908   16914   16929       1   16905   16908   16917   16935       1
   17721   17772   17796   17814       3   17715   17772   17796   17814       3
   17709   17763   17793   17811       3   17703   17763   17793   17811       3
   17697   17754   17790   17808       3   17691   17754   17790   17808       3
   17685   17748   17787   17805       3   17679   17748   17787   17805       3
   17676   17736   17784   17802       3   17670   17736   17784   17802       3
   17661   17727   17781   17799       3   17655   17727   17781   17799       3
   17652   17613   17649   17715       1   17652   17721  -17772   17715       1
   17652   17721   17772   17796       1   17649   17613   17652   17721       1
   17649   17715  -17772   17721       1   17649   17715   17772   17796       1
   17646   17610   17643   17703       1   17646   17709  -17763   17703       1
   17646   17709   17763   17793       1   17643   17610   17646   17709       1
   17643   17703  -17763   17709       1   17643   17703   17763   17793       1
   17640   17604   17637   17691       1   17640   17697  -17754   17691       1
   17640   17697   17754   17790       1   17637   17604   17640   17697       1
   17637   17691  -17754   17697       1   17637   17691   17754   17790       1
   17634   17601   17631   17679       1   17634   17685  -17748   17679       1
   17634   17685   17748   17787       1   17631   17601   17634   17685       1
   17631   17679  -17748   17685       1   17631   17679   17748   17787       1
   17628   17598   17625   17670       1   17628   17676  -17736   17670       1
   17628   17676   17736   17784       1   17625   17598   17628   17676       1
   17625   17670  -17736   17676       1   17625   17670   17736   17784       1
   17622   17595   17619   17655       1   17622   17661  -17727   17655       1
   17622   17661   17727   17781       1   17619   17595   17622   17661       1
   17619   17655  -17727   17661       1   17619   17655   17727   17781       1
   17613   17586   17610   17643       4   17613   17586   17610   17646       4
   17613   17649   17715   17772       1   17613   17652  -17721   17772       1
   17610   17586   17613   17649       4   17610   17586   17613   17652       4
   17610   17643   17703   17763       1   17610   17646  -17709   17763       1
   17604   17577   17601   17631       4   17604   17577   17601   17634       4
   17604   17637   17691   17754       1   17604   17640  -17697   17754       1
   17601   17577   17604   17637       4   17601   17577   17604   17640       4
   17601   17631   17679   17748       1   17601   17634  -17685   17748       1
   17598   17574   17595   17619       4   17598   17574   17595   17622       4
   17598   17625   17670   17736       1   17598   17628  -17676   17736       1
   17595   17574   17598   17625       4   17595   17574   17598   17628       4
   17595   17619   17655   17727       1   17595   17622  -17661   17727       1
   17589   17556   17586   17610       4   17589   17556   17586   17613       4
   17586   17610   17643   17703       1   17586   17610   17646   17709       1
   17586   17613   17649   17715       1   17586   17613   17652   17721       1
   17580   17544   17577   17601       4   17580   17544   17577   17604       4
   17577   17601   17631   17679       1   17577   17601   17634   17685       1
   17577   17604   17637   17691       1   17577   17604   17640   17697       1
   17574   17595   17619   17655       1   17574   17595   17622   17661       1
   17574   17598   17625   17670       1   17574   17598   17628   17676       1
   17559   17589   17556   17586       1   17556   17586   17610   17643       4
   17556   17586   17610   17646       4   17556   17586   17613   17649       4
   17556   17586   17613   17652       4   17550   17520   17526   17559       5
   17550   17580   17544   17577       1   17544   17577   17601   17631       4
   17544   17577   17601   17634       4   17544   17577   17604   17637       4
   17544   17577   17604   17640       4   17538   17574   17595   17619       4
   17538   17574   17595   17622       4   17538   17574   17598   17625       4
   17538   17574   17598   17628       4   17532   17538   17574   17595       4
   17532   17538   17574   17598       4   17526   17505   17523   17556       1
   17526   17520   17550   17580       1   17526   17559  -17589   17556       1
   17523   17505   17526   17559       1   17523   17556   17586   17610       4
   17523   17556   17586   17613       4   17523   17556  -17589   17559       1
   17520   17502   17517   17544       1   17520   17526   17505   17523       1
   17520   17526   17559   17589       1   17520   17550  -17580   17544       1
   17517   17502   17520   17526       1   17517   17502   17520   17550       1
   17517   17544   17577   17601       4   17517   17544   17577   17604       4
   17517   17544  -17580   17550       1   17514   17538   17574   17595       4
   17514   17538   17574   17598       4   17511   17496   17499   17514       1
   17511   17532  -17538   17514       1   17511   17532   17538   17574       1
   17505   17481   17499   17514       6   17505   17481   17502   17517       6
   17505   17481  -17502   17520       7   17505   17523   17556   17586       1
   17505   17523   17556   17589       1   17505   17526   17520   17550       5
   17505   17526  -17559   17589       1   17502   17481   17499   17514       6
   17502   17481   17505   17523       6   17502   17481  -17505   17526       7
   17502   17517   17544   17577       1   17502   17517   17544   17580       1
   17502   17520  -17526   17505       5   17502   17520   17526   17559       5
   17502   17520  -17550   17580       1   17499   17481   17502   17517       6
   17499   17481   17502   17520       7   17499   17481   17505   17523       6
   17499   17481   17505   17526       7   17499   17496   17511   17532       1
   17499   17514  -17538   17532       1   17499   17514   17538   17574       1
   17496   17499   17481   17502       7   17496   17499   17481   17505       7
   17496   17499   17514   17538       1   17496   17511  -17532   17538       1
   17481   17454  -17478   17496       1   17481   17499   17496   17511       1
   17481   17499   17514   17538       1   17481   17502   17517   17544       1
   17481   17502  -17520   17526       1   17481   17502   17520   17550       1
   17481   17505   17523   17556       1   17481   17505  -17526   17520       1
   17481   17505   17526   17559       1   17478   17454  -17481   17499       7
   17478   17454   17481   17502       7   17478   17454   17481   17505       7
   17478   17496  -17499   17481       1   17478   17496   17499   17514       1
   17478   17496   17511   17532       1   17472   17487   17508   17529       3
   17466   17487   17508   17529       3   17460   17478   17454   17481       1
   17460   17478   17496   17499       5   17460   17478   17496   17511       5
   17454   17478  -17496   17499       5   17454   17478   17496   17511       5
   17454   17481  -17499   17496       7   17454   17481   17499   17514       6
   17454   17481   17502   17517       6   17454   17481   17502   17520       7
   17454   17481   17505   17523       6   17454   17481   17505   17526       7
   17451   17439   17448   17466       1   17451   17472  -17487   17466       1
   17451   17472   17487   17508       1   17448   17439   17451   17472       1
   17448   17466  -17487   17472       1   17448   17466   17487   17508       1
   17445   17436   17442   17454       1   17445   17460  -17478   17454       1
   17445   17460   17478   17496       1   17442   17436   17445   17460       1
   17442   17454  -17478   17460       1   17442   17454   17478   17496       1
   17442   17454   17481   17499       6   17442   17454   17481   17502       6
   17442   17454   17481   17505       6   17439   17433   17436   17442       4
   17439   17433   17436   17445       4   17439   17448   17466   17487       1
   17439   17451  -17472   17487       1   17436   17433   17439   17448       4
   17436   17433   17439   17451       4   17436   17442   17454   17478       1
   17436   17442   17454   17481       1   17436   17445  -17460   17478       1
   17433   17436   17442   17454       1   17433   17436   17445   17460       1
   17433   17439   17448   17466       1   17433   17439   17451   17472       1
   17424   17433   17436   17442       4   17424   17433   17436   17445       4
   17424   17433   17439   17448       4   17424   17433   17439   17451       4
   17418   17424   17433   17436       4   17418   17424   17433   17439       4
   17412   17424   17433   17436       4   17412   17424   17433   17439       4
   17400   17391   17397   17412       1   17400   17418  -17424   17412       1
   17400   17418   17424   17433       1   17397   17391   17400   17418       1
   17397   17412  -17424   17418       1   17397   17412   17424   17433       1
   17394   17388   17391   17397       3   17394   17388   17391   17400       3
   17391   17397   17412   17424       1   17391   17400  -17418   17424       1
   17388   17391   17397   17412       1   17388   17391   17400   17418       1
   18204   18255   18279   18297       3   18198   18255   18279   18297       3
   18192   18246   18276   18294       3   18186   18246   18276   18294       3
   18180   18237   18273   18291       3   18174   18237   18273   18291       3
   18168   18231   18270   18288       3   18162   18231   18270   18288       3
   18159   18219   18267   18285       3   18153   18219   18267   18285       3
   18144   18210   18264   18282       3   18138   18210   18264   18282       3
   18135   18096   18132   18198       1   18135   18204  -18255   18198       1
   18135   18204   18255   18279       1   18132   18096   18135   18204       1
   18132   18198  -18255   18204       1   18132   18198   18255   18279       1
   18129   18093   18126   18186       1   18129   18192  -18246   18186       1
   18129   18192   18246   18276       1   18126   18093   18129   18192       1
   18126   18186  -18246   18192       1   18126   18186   18246   18276       1
   18123   18087   18120   18174       1   18123   18180  -18237   18174       1
   18123   18180   18237   18273       1   18120   18087   18123   18180       1
   18120   18174  -18237   18180       1   18120   18174   18237   18273       1
   18117   18084   18114   18162       1   18117   18168  -18231   18162       1
   18117   18168   18231   18270       1   18114   18084   18117   18168       1
   18114   18162  -18231   18168       1   18114   18162   18231   18270       1
   18111   18081   18108   18153       1   18111   18159  -18219   18153       1
   18111   18159   18219   18267       1   18108   18081   18111   18159       1
   18108   18153  -18219   18159       1   18108   18153   18219   18267       1
   18105   18078   18102   18138       1   18105   18144  -18210   18138       1
   18105   18144   18210   18264       1   18102   18078   18105   18144       1
   18102   18138  -18210   18144       1   18102   18138   18210   18264       1
   18096   18069   18093   18126       4   18096   18069   18093   18129       4
   18096   18132   18198   18255       1   18096   18135  -18204   18255       1
   18093   18069   18096   18132       4   18093   18069   18096   18135       4
   18093   18126   18186   18246       1   18093   18129  -18192   18246       1
   18087   18060   18084   18114       4   18087   18060   18084   18117       4
   18087   18120   18174   18237       1   18087   18123  -18180   18237       1
   18084   18060   18087   18120       4   18084   18060   18087   18123       4
   18084   18114   18162   18231       1   18084   18117  -18168   18231       1
   18081   18057   18078   18102       4   18081   18057   18078   18105       4
   18081   18108   18153   18219       1   18081   18111  -18159   18219       1
   18078   18057   18081   18108       4   18078   18057   18081   18111       4
   18078   18102   18138   18210       1   18078   18105  -18144   18210       1
   18072   18039   18069   18093       4   18072   18039   18069   18096       4
   18069   18093   18126   18186       1   18069   18093   18129   18192       1
   18069   18096   18132   18198       1   18069   18096   18135   18204       1
   18063   18027   18060   18084       4   18063   18027   18060   18087       4
   18060   18084   18114   18162       1   18060   18084   18117   18168       1
   18060   18087   18120   18174       1   18060   18087   18123   18180       1
   18057   18078   18102   18138       1   18057   18078   18105   18144       1
   18057   18081   18108   18153       1   18057   18081   18111   18159       1
   18042   18072   18039   18069       1   18039   18069   18093   18126       4
   18039   18069   18093   18129       4   18039   18069   18096   18132       4
   18039   18069   18096   18135       4   18033   18003   18009   18042       5
   18033   18063   18027   18060       1   18027   18060   18084   18114       4
   18027   18060   18084   18117       4   18027   18060   18087   18120       4
   18027   18060   18087   18123       4   18021   18057   18078   18102       4
   18021   18057   18078   18105       4   18021   18057   18081   18108       4
   18021   18057   18081   18111       4   18015   18021   18057   18078       4
   18015   18021   18057   18081       4   18009   17988   18006   18039       1
   18009   18003   18033   18063       1   18009   18042  -18072   18039       1
   18006   17988   18009   18042       1   18006   18039   18069   18093       4
   18006   18039   18069   18096       4   18006   18039  -18072   18042       1
   18003   17985   18000   18027       1   18003   18009   17988   18006       1
   18003   18009   18042   18072       1   18003   18033  -18063   18027       1
   18000   17985   18003   18009       1   18000   17985   18003   18033       1
   18000   18027   18060   18084       4   18000   18027   18060   18087       4
   18000   18027  -18063   18033       1   17997   18021   18057   18078       4
   17997   18021   18057   18081       4   17994   17979   17982   17997       1
   17994   18015  -18021   17997       1   17994   18015   18021   18057       1
   17988   17964   17982   17997       6   17988   17964   17985   18000       6
   17988   17964  -17985   18003       7   17988   18006   18039   18069       1
   17988   18006   18039   18072       1   17988   18009   18003   18033       5
   17988   18009  -18042   18072       1   17985   17964   17982   17997       6
   17985   17964   17988   18006       6   17985   17964  -17988   18009       7
   17985   18000   18027   18060       1   17985   18000   18027   18063       1
   17985   18003  -18009   17988       5   17985   18003   18009   18042       5
   17985   18003  -18033   18063       1   17982   17964   17985   18000       6
   17982   17964   17985   18003       7   17982   17964   17988   18006       6
   17982   17964   17988   18009       7   17982   17979   17994   18015       1
   17982   17997  -18021   18015       1   17982   17997   18021   18057       1
   17979   17982   17964   17985       7   17979   17982   17964   17988       7
   17979   17982   17997   18021       1   17979   17994  -18015   18021       1
   17964   17937  -17961   17979       1   17964   17982   17979   17994       1
   17964   17982   17997   18021       1   17964   17985   18000   18027       1
   17964   17985  -18003   18009       1   17964   17985   18003   18033       1
   17964   17988   18006   18039       1   17964   17988  -18009   18003       1
   17964   17988   18009   18042       1   17961   17937  -17964   17982       7
   17961   17937   17964   17985       7   17961   17937   17964   17988       7
   17961   17979  -17982   17964       1   17961   17979   17982   17997       1
   17961   17979   17994   18015       1   17955   17970   17991   18012       3
   17949   17970   17991   18012       3   17943   17961   17937   17964       1
   17943   17961   17979   17982       5   17943   17961   17979   17994       5
   17937   17961  -17979   17982       5   17937   17961   17979   17994       5
   17937   17964  -17982   17979       7   17937   17964   17982   17997       6
   17937   17964   17985   18000       6   17937   17964   17985   18003       7
   17937   17964   17988   18006       6   17937   17964   17988   18009       7
   17934   17922   17931   17949       1   17934   17955  -17970   17949       1
   17934   17955   17970   17991       1   17931   17922   17934   17955       1
   17931   17949  -17970   17955       1   17931   17949   17970   17991       1
   17928   17919   17925   17937       1   17928   17943  -17961   17937       1
   17928   17943   17961   17979       1   17925   17919   17928   17943       1
   17925   17937  -17961   17943       1   17925   17937   17961   17979       1
   17925   17937   17964   17982       6   17925   17937   17964   17985       6
   17925   17937   17964   17988       6   17922   17916   17919   17925       4
   17922   17916   17919   17928       4   17922   17931   17949   17970       1
   17922   17934  -17955   17970       1   17919   17916   17922   17931       4
   17919   17916   17922   17934       4   17919   17925   17937   17961       1
   17919   17925   17937   17964       1   17919   17928  -17943   17961       1
   17916   17919   17925   17937       1   17916   17919   17928   17943       1
   17916   17922   17931   17949       1   17916   17922   17934   17955       1
   17907   17916   17919   17925       4   17907   17916   17919   17928       4
   17907   17916   17922   17931       4   17907   17916   17922   17934       4
   17901   17907   17916   17919       4   17901   17907   17916   17922       4
   17895   17907   17916   17919       4   17895   17907   17916   17922       4
   17883   17874   17880   17895       1   17883   17901  -17907   17895       1
   17883   17901   17907   17916       1   17880   17874   17883   17901       1
   17880   17895  -17907   17901       1   17880   17895   17907   17916       1
   17877   17871   17874   17880       3   17877   17871   17874   17883       3
   17874   17880   17895   17907       1   17874   17883  -17901   17907       1
   17871   17874   17880   17895       1   17871   17874   17883   17901       1
   18687   18738   18762   18780       3   18681   18738   18762   18780       3
   18675   18729   18759   18777       3   18669   18729   18759   18777       3
   18663   18720   18756   18774       3   18657   18720   18756   18774       3
   18651   18714   18753   18771       3   18645   18714   18753   18771       3
   18642   18702   18750   18768       3   18636   18702   18750   18768       3
   18627   18693   18747   18765       3   18621   18693   18747   18765       3
   18618   18579   18615   18681       1   18618   18687  -18738   18681       1
   18618   18687   18738   18762       1   18615   18579   18618   18687       1
   18615   18681  -18738   18687       1   18615   18681   18738   18762       1
   18612   18576   18609   18669       1   18612   18675  -18729   18669       1
   18612   18675   18729   18759       1   18609   18576   18612   18675       1
   18609   18669  -18729   18675       1   18609   18669   18729   18759       1
   18606   18570   18603   18657       1   18606   18663  -18720   18657       1
   18606   18663   18720   18756       1   18603   18570   18606   18663       1
   18603   18657  -18720   18663       1   18603   18657   18720   18756       1
   18600   18567   18597   18645       1   18600   18651  -18714   18645       1
   18600   18651   18714   18753       1   18597   18567   18600   18651       1
   18597   18645  -18714   18651       1   18597   18645   18714   18753       1
   18594   18564   18591   18636       1   18594   18642  -18702   18636       1
   18594   18642   18702   18750       1   18591   18564   18594   18642       1
   18591   18636  -18702   18642       1   18591   18636   18702   18750       1
   18588   18561   18585   18621       1   18588   18627  -18693   18621       1
   18588   18627   18693   18747       1   18585   18561   18588   18627       1
   18585   18621  -18693   18627       1   18585   18621   18693   18747       1
   18579   18552   18576   18609       4   18579   18552   18576   18612       4
   18579   18615   18681   18738       1   18579   18618  -18687   18738       1
   18576   18552   18579   18615       4   18576   18552   18579   18618       4
   18576   18609   18669   18729       1   18576   18612  -18675   18729       1
   18570   18543   18567   18597       4   18570   18543   18567   18600       4
   18570   18603   18657   18720       1   18570   18606  -18663   18720       1
   18567   18543   18570   18603       4   18567   18543   18570   18606       4
   18567   18597   18645   18714       1   18567   18600  -18651   18714       1
   18564   18540   18561   18585       4   18564   18540   18561   18588       4
   18564   18591   18636   18702       1   18564   18594  -18642   18702       1
   18561   18540   18564   18591       4   18561   18540   18564   18594       4
   18561   18585   18621   18693       1   18561   18588  -18627   18693       1
   18555   18522   18552   18576       4   18555   18522   18552   18579       4
   18552   18576   18609   18669       1   18552   18576   18612   18675       1
   18552   18579   18615   18681       1   18552   18579   18618   18687       1
   18546   18510   18543   18567       4   18546   18510   18543   18570       4
   18543   18567   18597   18645       1   18543   18567   18600   18651       1
   18543   18570   18603   18657       1   18543   18570   18606   18663       1
   18540   18561   18585   18621       1   18540   18561   18588   18627       1
   18540   18564   18591   18636       1   18540   18564   18594   18642       1
   18525   18555   18522   18552       1   18522   18552   18576   18609       4
   18522   18552   18576   18612       4   18522   18552   18579   18615       4
   18522   18552   18579   18618       4   18516   18486   18492   18525       5
   18516   18546   18510   18543       1   18510   18543   18567   18597       4
   18510   18543   18567   18600       4   18510   18543   18570   18603       4
   18510   18543   18570   18606       4   18504   18540   18561   18585       4
   18504   18540   18561   18588       4   18504   18540   18564   18591       4
   18504   18540   18564   18594       4   18498   18504   18540   18561       4
   18498   18504   18540   18564       4   18492   18471   18489   18522       1
   18492   18486   18516   18546       1   18492   18525  -18555   18522       1
   18489   18471   18492   18525       1   18489   18522   18552   18576       4
   18489   18522   18552   18579       4   18489   18522  -18555   18525       1
   18486   18468   18483   18510       1   18486   18492   18471   18489       1
   18486   18492   18525   18555       1   18486   18516  -18546   18510       1
   18483   18468   18486   18492       1   18483   18468   18486   18516       1
   18483   18510   18543   18567       4   18483   18510   18543   18570       4
   18483   18510  -18546   18516       1   18480   18504   18540   18561       4
   18480   18504   18540   18564       4   18477   18462   18465   18480       1
   18477   18498  -18504   18480       1   18477   18498   18504   18540       1
   18471   18447   18465   18480       6   18471   18447   18468   18483       6
   18471   18447  -18468   18486       7   18471   18489   18522   18552       1
   18471   18489   18522   18555       1   18471   18492   18486   18516       5
   18471   18492  -18525   18555       1   18468   18447   18465   18480       6
   18468   18447   18471   18489       6   18468   18447  -18471   18492       7
   18468   18483   18510   18543       1   18468   18483   18510   18546       1
   18468   18486  -18492   18471       5   18468   18486   18492   18525       5
   18468   18486  -18516   18546       1   18465   18447   18468   18483       6
   18465   18447   18468   18486       7   18465   18447   18471   18489       6
   18465   18447   18471   18492       7   18465   18462   18477   18498       1
   18465   18480  -18504   18498       1   18465   18480   18504   18540       1
   18462   18465   18447   18468       7   18462   18465   18447   18471       7
   18462   18465   18480   18504       1   18462   18477  -18498   18504       1
   18447   18420  -18444   18462       1   18447   18465   18462   18477       1
   18447   18465   18480   18504       1   18447   18468   18483   18510       1
   18447   18468  -18486   18492       1   18447   18468   18486   18516       1
   18447   18471   18489   18522       1   18447   18471  -18492   18486       1
   18447   18471   18492   18525       1   18444   18420  -18447   18465       7
   18444   18420   18447   18468       7   18444   18420   18447   18471       7
   18444   18462  -18465   18447       1   18444   18462   18465   18480       1
   18444   18462   18477   18498       1   18438   18453   18474   18495       3
   18432   18453   18474   18495       3   18426   18444   18420   18447       1
   18426   18444   18462   18465       5   18426   18444   18462   18477       5
   18420   18444  -18462   18465       5   18420   18444   18462   18477       5
   18420   18447  -18465   18462       7   18420   18447   18465   18480       6
   18420   18447   18468   18483       6   18420   18447   18468   18486       7
   18420   18447   18471   18489       6   18420   18447   18471   18492       7
   18417   18405   18414   18432       1   18417   18438  -18453   18432       1
   18417   18438   18453   18474       1   18414   18405   18417   18438       1
   18414   18432  -18453   18438       1   18414   18432   18453   18474       1
   18411   18402   18408   18420       1   18411   18426  -18444   18420       1
   18411   18426   18444   18462       1   18408   18402   18411   18426       1
   18408   18420  -18444   18426       1   18408   18420   18444   18462       1
   18408   18420   18447   18465       6   18408   18420   18447   18468       6
   18408   18420   18447   18471       6   18405   18399   18402   18408       4
   18405   18399   18402   18411       4   18405   18414   18432   18453       1
   18405   18417  -18438   18453       1   18402   18399   18405   18414       4
   18402   18399   18405   18417       4   18402   18408   18420   18444       1
   18402   18408   18420   18447       1   18402   18411  -18426   18444       1
   18399   18402   18408   18420       1   18399   18402   18411   18426       1
   18399   18405   18414   18432       1   18399   18405   18417   18438       1
   18390   18399   18402   18408       4   18390   18399   18402   18411       4
   18390   18399   18405   18414       4   18390   18399   18405   18417       4
   18384   18390   18399   18402       4   18384   18390   18399   18405       4
   18378   18390   18399   18402       4   18378   18390   18399   18405       4
   18366   18357   18363   18378       1   18366   18384  -18390   18378       1
   18366   18384   18390   18399       1   18363   18357   18366   18384       1
   18363   18378  -18390   18384       1   18363   18378   18390   18399       1
   18360   18354   18357   18363       3   18360   18354   18357   18366       3
   18357   18363   18378   18390       1   18357   18366  -18384   18390       1
   18354   18357   18363   18378       1   18354   18357   18366   18384       1
   19170   19221   19245   19263       3   19164   19221   19245   19263       3
   19158   19212   19242   19260       3   19152   19212   19242   19260       3
   19146   19203   19239   19257       3   19140   19203   19239   19257       3
   19134   19197   19236   19254       3   19128   19197   19236   19254       3
   19125   19185   19233   19251       3   19119   19185   19233   19251       3
   19110   19176   19230   19248       3   19104   19176   19230   19248       3
   19101   19062   19098   19164       1   19101   19170  -19221   19164       1
   19101   19170   19221   19245       1   19098   19062   19101   19170       1
   19098   19164  -19221   19170       1   19098   19164   19221   19245       1
   19095   19059   19092   19152       1   19095   19158  -19212   19152       1
   19095   19158   19212   19242       1   19092   19059   19095   19158       1
   19092   19152  -19212   19158       1   19092   19152   19212   19242       1
   19089   19053   19086   19140       1   19089   19146  -19203   19140       1
   19089   19146   19203   19239       1   19086   19053   19089   19146       1
   19086   19140  -19203   19146       1   19086   19140   19203   19239       1
   19083   19050   19080   19128       1   19083   19134  -19197   19128       1
   19083   19134   19197   19236       1   19080   19050   19083   19134       1
   19080   19128  -19197   19134       1   19080   19128   19197   19236       1
   19077   19047   19074   19119       1   19077   19125  -19185   19119       1
   19077   19125   19185   19233       1   19074   19047   19077   19125       1
   19074   19119  -19185   19125       1   19074   19119   19185   19233       1
   19071   19044   19068   19104       1   19071   19110  -19176   19104       1
   19071   19110   19176   19230       1   19068   19044   19071   19110       1
   19068   19104  -19176   19110       1   19068   19104   19176   19230       1
   19062   19035   19059   19092       4   19062   19035   19059   19095       4
   19062   19098   19164   19221       1   19062   19101  -19170   19221       1
   19059   19035   19062   19098       4   19059   19035   19062   19101       4
   19059   19092   19152   19212       1   19059   19095  -19158   19212       1
   19053   19026   19050   19080       4   19053   19026   19050   19083       4
   19053   19086   19140   19203       1   19053   19089  -19146   19203       1
   19050   19026   19053   19086       4   19050   19026   19053   19089       4
   19050   19080   19128   19197       1   19050   19083  -19134   19197       1
   19047   19023   19044   19068       4   19047   19023   19044   19071       4
   19047   19074   19119   19185       1   19047   19077  -19125   19185       1
   19044   19023   19047   19074       4   19044   19023   19047   19077       4
   19044   19068   19104   19176       1   19044   19071  -19110   19176       1
   19038   19005   19035   19059       4   19038   19005   19035   19062       4
   19035   19059   19092   19152       1   19035   19059   19095   19158       1
   19035   19062   19098   19164       1   19035   19062   19101   19170       1
   19029   18993   19026   19050       4   19029   18993   19026   19053       4
   19026   19050   19080   19128       1   19026   19050   19083   19134       1
   19026   19053   19086   19140       1   19026   19053   19089   19146       1
   19023   19044   19068   19104       1   19023   19044   19071   19110       1
   19023   19047   19074   19119       1   19023   19047   19077   19125       1
   19008   19038   19005   19035       1   19005   19035   19059   19092       4
   19005   19035   19059   19095       4   19005   19035   19062   19098       4
   19005   19035   19062   19101       4   18999   18969   18975   19008       5
   18999   19029   18993   19026       1   18993   19026   19050   19080       4
   18993   19026   19050   19083       4   18993   19026   19053   19086       4
   18993   19026   19053   19089       4   18987   19023   19044   19068       4
   18987   19023   19044   19071       4   18987   19023   19047   19074       4
   18987   19023   19047   19077       4   18981   18987   19023   19044       4
   18981   18987   19023   19047       4   18975   18954   18972   19005       1
   18975   18969   18999   19029       1   18975   19008  -19038   19005       1
   18972   18954   18975   19008       1   18972   19005   19035   19059       4
   18972   19005   19035   19062       4   18972   19005  -19038   19008       1
   18969   18951   18966   18993       1   18969   18975   18954   18972       1
   18969   18975   19008   19038       1   18969   18999  -19029   18993       1
   18966   18951   18969   18975       1   18966   18951   18969   18999       1
   18966   18993   19026   19050       4   18966   18993   19026   19053       4
   18966   18993  -19029   18999       1   18963   18987   19023   19044       4
   18963   18987   19023   19047       4   18960   18945   18948   18963       1
   18960   18981  -18987   18963       1   18960   18981   18987   19023       1
   18954   18930   18948   18963       6   18954   18930   18951   18966       6
   18954   18930  -18951   18969       7   18954   18972   19005   19035       1
   18954   18972   19005   19038       1   18954   18975   18969   18999       5
   18954   18975  -19008   19038       1   18951   18930   18948   18963       6
   18951   18930   18954   18972       6   18951   18930  -18954   18975       7
   18951   18966   18993   19026       1   18951   18966   18993   19029       1
   18951   18969  -18975   18954       5   18951   18969   18975   19008       5
   18951   18969  -18999   19029       1   18948   18930   18951   18966       6
   18948   18930   18951   18969       7   18948   18930   18954   18972       6
   18948   18930   18954   18975       7   18948   18945   18960   18981       1
   18948   18963  -18987   18981       1   18948   18963   18987   19023       1
   18945   18948   18930   18951       7   18945   18948   18930   18954       7
   18945   18948   18963   18987       1   18945   18960  -18981   18987       1
   18930   18903  -18927   18945       1   18930   18948   18945   18960       1
   18930   18948   18963   18987       1   18930   18951   18966   18993       1
   18930   18951  -18969   18975       1   18930   18951   18969   18999       1
   18930   18954   18972   19005       1   18930   18954  -18975   18969       1
   18930   18954   18975   19008       1   18927   18903  -18930   18948       7
   18927   18903   18930   18951       7   18927   18903   18930   18954       7
   18927   18945  -18948   18930       1   18927   18945   18948   18963       1
   18927   18945   18960   18981       1   18921   18936   18957   18978       3
   18915   18936   18957   18978       3   18909   18927   18903   18930       1
   18909   18927   18945   18948       5   18909   18927   18945   18960       5
   18903   18927  -18945   18948       5   18903   18927   18945   18960       5
   18903   18930  -18948   18945       7   18903   18930   18948   18963       6
   18903   18930   18951   18966       6   18903   18930   18951   18969       7
   18903   18930   18954   18972       6   18903   18930   18954   18975       7
   18900   18888   18897   18915       1   18900   18921  -18936   18915       1
   18900   18921   18936   18957       1   18897   18888   18900   18921       1
   18897   18915  -18936   18921       1   18897   18915   18936   18957       1
   18894   18885   18891   18903       1   18894   18909  -18927   18903       1
   18894   18909   18927   18945       1   18891   18885   18894   18909       1
   18891   18903  -18927   18909       1   18891   18903   18927   18945       1
   18891   18903   18930   18948       6   18891   18903   18930   18951       6
   18891   18903   18930   18954       6   18888   18882   18885   18891       4
   18888   18882   18885   18894       4   18888   18897   18915   18936       1
   18888   18900  -18921   18936       1   18885   18882   18888   18897       4
   18885   18882   18888   18900       4   18885   18891   18903   18927       1
   18885   18891   18903   18930       1   18885   18894  -18909   18927       1
   18882   18885   18891   18903       1   18882   18885   18894   18909       1
   18882   18888   18897   18915       1   18882   18888   18900   18921       1
   18873   18882   18885   18891       4   18873   18882   18885   18894       4
   18873   18882   18888   18897       4   18873   18882   18888   18900       4
   18867   18873   18882   18885       4   18867   18873   18882   18888       4
   18861   18873   18882   18885       4   18861   18873   18882   18888       4
   18849   18840   18846   18861       1   18849   18867  -18873   18861       1
   18849   18867   18873   18882       1   18846   18840   18849   18867       1
   18846   18861  -18873   18867       1   18846   18861   18873   18882       1
   18843   18837   18840   18846       3   18843   18837   18840   18849       3
   18840   18846   18861   18873       1   18840   18849  -18867   18873       1
   18837   18840   18846   18861       1   18837   18840   18849   18867       1
   19653   19704   19728   19746       3   19647   19704   19728   19746       3
   19641   19695   19725   19743       3   19635   19695   19725   19743       3
   19629   19686   19722   19740       3   19623   19686   19722   19740       3
   19617   19680   19719   19737       3   19611   19680   19719   19737       3
   19608   19668   19716   19734       3   19602   19668   19716   19734       3
   19593   19659   19713   19731       3   19587   19659   19713   19731       3
   19584   19545   19581   19647       1   19584   19653  -19704   19647       1
   19584   19653   19704   19728       1   19581   19545   19584   19653       1
   19581   19647  -19704   19653       1   19581   19647   19704   19728       1
   19578   19542   19575   19635       1   19578   19641  -19695   19635       1
   19578   19641   19695   19725       1   19575   19542   19578   19641       1
   19575   19635  -19695   19641       1   19575   19635   19695   19725       1
   19572   19536   19569   19623       1   19572   19629  -19686   19623       1
   19572   19629   19686   19722       1   19569   19536   19572   19629       1
   19569   19623  -19686   19629       1   19569   19623   19686   19722       1
   19566   19533   19563   19611       1   19566   19617  -19680   19611       1
   19566   19617   19680   19719       1   19563   19533   19566   19617       1
   19563   19611  -19680   19617       1   19563   19611   19680   19719       1
   19560   19530   19557   19602       1   19560   19608  -19668   19602       1
   19560   19608   19668   19716       1   19557   19530   19560   19608       1
   19557   19602  -19668   19608       1   19557   19602   19668   19716       1
   19554   19527   19551   19587       1   19554   19593  -19659   19587       1
   19554   19593   19659   19713       1   19551   19527   19554   19593       1
   19551   19587  -19659   19593       1   19551   19587   19659   19713       1
   19545   19518   19542   19575       4   19545   19518   19542   19578       4
   19545   19581   19647   19704       1   19545   19584  -19653   19704       1
   19542   19518   19545   19581       4   19542   19518   19545   19584       4
   19542   19575   19635   19695       1   19542   19578  -19641   19695       1
   19536   19509   19533   19563       4   19536   19509   19533   19566       4
   19536   19569   19623   19686       1   19536   19572  -19629   19686       1
   19533   19509   19536   19569       4   19533   19509   19536   19572       4
   19533   19563   19611   19680       1   19533   19566  -19617   19680       1
   19530   19506   19527   19551       4   19530   19506   19527   19554       4
   19530   19557   19602   19668       1   19530   19560  -19608   19668       1
   19527   19506   19530   19557       4   19527   19506   19530   19560       4
   19527   19551   19587   19659       1   19527   19554  -19593   19659       1
   19521   19488   19518   19542       4   19521   19488   19518   19545       4
   19518   19542   19575   19635       1   19518   19542   19578   19641       1
   19518   19545   19581   19647       1   19518   19545   19584   19653       1
   19512   19476   19509   19533       4   19512   19476   19509   19536       4
   19509   19533   19563   19611       1   19509   19533   19566   19617       1
   19509   19536   19569   19623       1   19509   19536   19572   19629       1
   19506   19527   19551   19587       1   19506   19527   19554   19593       1
   19506   19530   19557   19602       1   19506   19530   19560   19608       1
   19491   19521   19488   19518       1   19488   19518   19542   19575       4
   19488   19518   19542   19578       4   19488   19518   19545   19581       4
   19488   19518   19545   19584       4   19482   19452   19458   19491       5
   19482   19512   19476   19509       1   19476   19509   19533   19563       4
   19476   19509   19533   19566       4   19476   19509   19536   19569       4
   19476   19509   19536   19572       4   19470   19506   19527   19551       4
   19470   19506   19527   19554       4   19470   19506   19530   19557       4
   19470   19506   19530   19560       4   19464   19470   19506   19527       4
   19464   19470   19506   19530       4   19458   19437   19455   19488       1
   19458   19452   19482   19512       1   19458   19491  -19521   19488       1
   19455   19437   19458   19491       1   19455   19488   19518   19542       4
   19455   19488   19518   19545       4   19455   19488  -19521   19491       1
   19452   19434   19449   19476       1   19452   19458   19437   19455       1
   19452   19458   19491   19521       1   19452   19482  -19512   19476       1
   19449   19434   19452   19458       1   19449   19434   19452   19482       1
   19449   19476   19509   19533       4   19449   19476   19509   19536       4
   19449   19476  -19512   19482       1   19446   19470   19506   19527       4
   19446   19470   19506   19530       4   19443   19428   19431   19446       1
   19443   19464  -19470   19446       1   19443   19464   19470   19506       1
   19437   19413   19431   19446       6   19437   19413   19434   19449       6
   19437   19413  -19434   19452       7   19437   19455   19488   19518       1
   19437   19455   19488   19521       1   19437   19458   19452   19482       5
   19437   19458  -19491   19521       1   19434   19413   19431   19446       6
   19434   19413   19437   19455       6   19434   19413  -19437   19458       7
   19434   19449   19476   19509       1   19434   19449   19476   19512       1
   19434   19452  -19458   19437       5   19434   19452   19458   19491       5
   19434   19452  -19482   19512       1   19431   19413   19434   19449       6
   19431   19413   19434   19452       7   19431   19413   19437   19455       6
   19431   19413   19437   19458       7   19431   19428   19443   19464       1
   19431   19446  -19470   19464       1   19431   19446   19470   19506       1
   19428   19431   19413   19434       7   19428   19431   19413   19437       7
   19428   19431   19446   19470       1   19428   19443  -19464   19470       1
   19413   19386  -19410   19428       1   19413   19431   19428   19443       1
   19413   19431   19446   19470       1   19413   19434   19449   19476       1
   19413   19434  -19452   19458       1   19413   19434   19452   19482       1
   19413   19437   19455   19488       1   19413   19437  -19458   19452       1
   19413   19437   19458   19491       1   19410   19386  -19413   19431       7
   19410   19386   19413   19434       7   19410   19386   19413   19437       7
   19410   19428  -19431   19413       1   19410   19428   19431   19446       1
   19410   19428   19443   19464       1   19404   19419   19440   19461       3
   19398   19419   19440   19461       3   19392   19410   19386   19413       1
   19392   19410   19428   19431       5   19392   19410   19428   19443       5
   19386   19410  -19428   19431       5   19386   19410   19428   19443       5
   19386   19413  -19431   19428       7   19386   19413   19431   19446       6
   19386   19413   19434   19449       6   19386   19413   19434   19452       7
   19386   19413   19437   19455       6   19386   19413   19437   19458       7
   19383   19371   19380   19398       1   19383   19404  -19419   19398       1
   19383   19404   19419   19440       1   19380   19371   19383   19404       1
   19380   19398  -19419   19404       1   19380   19398   19419   19440       1
   19377   19368   19374   19386       1   19377   19392  -19410   19386       1
   19377   19392   19410   19428       1   19374   19368   19377   19392       1
   19374   19386  -19410   19392       1   19374   19386   19410   19428       1
   19374   19386   19413   19431       6   19374   19386   19413   19434       6
   19374   19386   19413   19437       6   19371   19365   19368   19374       4
   19371   19365   19368   19377       4   19371   19380   19398   19419       1
   19371   19383  -19404   19419       1   19368   19365   19371   19380       4
   19368   19365   19371   19383       4   19368   19374   19386   19410       1
   19368   19374   19386   19413       1   19368   19377  -19392   19410       1
   19365   19368   19374   19386       1   19365   19368   19377   19392       1
   19365   19371   19380   19398       1   19365   19371   19383   19404       1
   19356   19365   19368   19374       4   19356   19365   19368   19377       4
   19356   19365   19371   19380       4   19356   19365   19371   19383       4
   19350   19356   19365   19368       4   19350   19356   19365   19371       4
   19344   19356   19365   19368       4   19344   19356   19365   19371       4
   19332   19323   19329   19344       1   19332   19350  -19356   19344       1
   19332   19350   19356   19365       1   19329   19323   19332   19350       1
   19329   19344  -19356   19350       1   19329   19344   19356   19365       1
   19326   19320   19323   19329       3   19326   19320   19323   19332       3
   19323   19329   19344   19356       1   19323   19332  -19350   19356       1
   19320   19323   19329   19344       1   19320   19323   19332   19350       1
   20136   20187   20211   20229       3   20130   20187   20211   20229       3
   20124   20178   20208   20226       3   20118   20178   20208   20226       3
   20112   20169   20205   20223       3   20106   20169   20205   20223       3
   20100   20163   20202   20220       3   20094   20163   20202   20220       3
   20091   20151   20199   20217       3   20085   20151   20199   20217       3
   20076   20142   20196   20214       3   20070   20142   20196   20214       3
   20067   20028   20064   20130       1   20067   20136  -20187   20130       1
   20067   20136   20187   20211       1   20064   20028   20067   20136       1
   20064   20130  -20187   20136       1   20064   20130   20187   20211       1
   20061   20025   20058   20118       1   20061   20124  -20178   20118       1
   20061   20124   20178   20208       1   20058   20025   20061   20124       1
   20058   20118  -20178   20124       1   20058   20118   20178   20208       1
   20055   20019   20052   20106       1   20055   20112  -20169   20106       1
   20055   20112   20169   20205       1   20052   20019   20055   20112       1
   20052   20106  -20169   20112       1   20052   20106   20169   20205       1
   20049   20016   20046   20094       1   20049   20100  -20163   20094       1
   20049   20100   20163   20202       1   20046   20016   20049   20100       1
   20046   20094  -20163   20100       1   20046   20094   20163   20202       1
   20043   20013   20040   20085       1   20043   20091  -20151   20085       1
   20043   20091   20151   20199       1   20040   20013   20043   20091       1
   20040   20085  -20151   20091       1   20040   20085   20151   20199       1
   20037   20010   20034   20070       1   20037   20076  -20142   20070       1
   20037   20076   20142   20196       1   20034   20010   20037   20076       1
   20034   20070  -20142   20076       1   20034   20070   20142   20196       1
   20028   20001   20025   20058       4   20028   20001   20025   20061       4
   20028   20064   20130   20187       1   20028   20067  -20136   20187       1
   20025   20001   20028   20064       4   20025   20001   20028   20067       4
   20025   20058   20118   20178       1   20025   20061  -20124   20178       1
   20019   19992   20016   20046       4   20019   19992   20016   20049       4
   20019   20052   20106   20169       1   20019   20055  -20112   20169       1
   20016   19992   20019   20052       4   20016   19992   20019   20055       4
   20016   20046   20094   20163       1   20016   20049  -20100   20163       1
   20013   19989   20010   20034       4   20013   19989   20010   20037       4
   20013   20040   20085   20151       1   20013   20043  -20091   20151       1
   20010   19989   20013   20040       4   20010   19989   20013   20043       4
   20010   20034   20070   20142       1   20010   20037  -20076   20142       1
   20004   19971   20001   20025       4   20004   19971   20001   20028       4
   20001   20025   20058   20118       1   20001   20025   20061   20124       1
   20001   20028   20064   20130       1   20001   20028   20067   20136       1
   19995   19959   19992   20016       4   19995   19959   19992   20019       4
   19992   20016   20046   20094       1   19992   20016   20049   20100       1
   19992   20019   20052   20106       1   19992   20019   20055   20112       1
   19989   20010   20034   20070       1   19989   20010   20037   20076       1
   19989   20013   20040   20085       1   19989   20013   20043   20091       1
   19974   20004   19971   20001       1   19971   20001   20025   20058       4
   19971   20001   20025   20061       4   19971   20001   20028   20064       4
   19971   20001   20028   20067       4   19965   19935   19941   19974       5
   19965   19995   19959   19992       1   19959   19992   20016   20046       4
   19959   19992   20016   20049       4   19959   19992   20019   20052       4
   19959   19992   20019   20055       4   19953   19989   20010   20034       4
   19953   19989   20010   20037       4   19953   19989   20013   20040       4
   19953   19989   20013   20043       4   19947   19953   19989   20010       4
   19947   19953   19989   20013       4   19941   19920   19938   19971       1
   19941   19935   19965   19995       1   19941   19974  -20004   19971       1
   19938   19920   19941   19974       1   19938   19971   20001   20025       4
   19938   19971   20001   20028       4   19938   19971  -20004   19974       1
   19935   19917   19932   19959       1   19935   19941   19920   19938       1
   19935   19941   19974   20004       1   19935   19965  -19995   19959       1
   19932   19917   19935   19941       1   19932   19917   19935   19965       1
   19932   19959   19992   20016       4   19932   19959   19992   20019       4
   19932   19959  -19995   19965       1   19929   19953   19989   20010       4
   19929   19953   19989   20013       4   19926   19911   19914   19929       1
   19926   19947  -19953   19929       1   19926   19947   19953   19989       1
   19920   19896   19914   19929       6   19920   19896   19917   19932       6
   19920   19896  -19917   19935       7   19920   19938   19971   20001       1
   19920   19938   19971   20004       1   19920   19941   19935   19965       5
   19920   19941  -19974   20004       1   19917   19896   19914   19929       6
   19917   19896   19920   19938       6   19917   19896  -19920   19941       7
   19917   19932   19959   19992       1   19917   19932   19959   19995       1
   19917   19935  -19941   19920       5   19917   19935   19941   19974       5
   19917   19935  -19965   19995       1   19914   19896   19917   19932       6
   19914   19896   19917   19935       7   19914   19896   19920   19938       6
   19914   19896   19920   19941       7   19914   19911   19926   19947       1
   19914   19929  -19953   19947       1   19914   19929   19953   19989       1
   19911   19914   19896   19917       7   19911   19914   19896   19920       7
   19911   19914   19929   19953       1   19911   19926  -19947   19953       1
   19896   19869  -19893   19911       1   19896   19914   19911   19926       1
   19896   19914   19929   19953       1   19896   19917   19932   19959       1
   19896   19917  -19935   19941       1   19896   19917   19935   19965       1
   19896   19920   19938   19971       1   19896   19920  -19941   19935       1
   19896   19920   19941   19974       1   19893   19869  -19896   19914       7
   19893   19869   19896   19917       7   19893   19869   19896   19920       7
   19893   19911  -19914   19896       1   19893   19911   19914   19929       1
   19893   19911   19926   19947       1   19887   19902   19923   19944       3
   19881   19902   19923   19944       3   19875   19893   19869   19896       1
   19875   19893   19911   19914       5   19875   19893   19911   19926       5
   19869   19893  -19911   19914       5   19869   19893   19911   19926       5
   19869   19896  -19914   19911       7   19869   19896   19914   19929       6
   19869   19896   19917   19932       6   19869   19896   19917   19935       7
   19869   19896   19920   19938       6   19869   19896   19920   19941       7
   19866   19854   19863   19881       1   19866   19887  -19902   19881       1
   19866   19887   19902   19923       1   19863   19854   19866   19887       1
   19863   19881  -19902   19887       1   19863   19881   19902   19923       1
   19860   19851   19857   19869       1   19860   19875  -19893   19869       1
   19860   19875   19893   19911       1   19857   19851   19860   19875       1
   19857   19869  -19893   19875       1   19857   19869   19893   19911       1
   19857   19869   19896   19914       6   19857   19869   19896   19917       6
   19857   19869   19896   19920       6   19854   19848   19851   19857       4
   19854   19848   19851   19860       4   19854   19863   19881   19902       1
   19854   19866  -19887   19902       1   19851   19848   19854   19863       4
   19851   19848   19854   19866       4   19851   19857   19869   19893       1
   19851   19857   19869   19896       1   19851   19860  -19875   19893       1
   19848   19851   19857   19869       1   19848   19851   19860   19875       1
   19848   19854   19863   19881       1   19848   19854   19866   19887       1
   19839   19848   19851   19857       4   19839   19848   19851   19860       4
   19839   19848   19854   19863       4   19839   19848   19854   19866       4
   19833   19839   19848   19851       4   19833   19839   19848   19854       4
   19827   19839   19848   19851       4   19827   19839   19848   19854       4
   19815   19806   19812   19827       1   19815   19833  -19839   19827       1
   19815   19833   19839   19848       1   19812   19806   19815   19833       1
   19812   19827  -19839   19833       1   19812   19827   19839   19848       1
   19809   19803   19806   19812       3   19809   19803   19806   19815       3
   19806   19812   19827   19839       1   19806   19815  -19833   19839       1
   19803   19806   19812   19827       1   19803   19806   19815   19833       1
   20619   20670   20694   20712       3   20613   20670   20694   20712       3
   20607   20661   20691   20709       3   20601   20661   20691   20709       3
   20595   20652   20688   20706       3   20589   20652   20688   20706       3
   20583   20646   20685   20703       3   20577   20646   20685   20703       3
   20574   20634   20682   20700       3   20568   20634   20682   20700       3
   20559   20625   20679   20697       3   20553   20625   20679   20697       3
   20550   20511   20547   20613       1   20550   20619  -20670   20613       1
   20550   20619   20670   20694       1   20547   20511   20550   20619       1
   20547   20613  -20670   20619       1   20547   20613   20670   20694       1
   20544   20508   20541   20601       1   20544   20607  -20661   20601       1
   20544   20607   20661   20691       1   20541   20508   20544   20607       1
   20541   20601  -20661   20607       1   20541   20601   20661   20691       1
   20538   20502   20535   20589       1   20538   20595  -20652   20589       1
   20538   20595   20652   20688       1   20535   20502   20538   20595       1
   20535   20589  -20652   20595       1   20535   20589   20652   20688       1
   20532   20499   20529   20577       1   20532   20583  -20646   20577       1
   20532   20583   20646   20685       1   20529   20499   20532   20583       1
   20529   20577  -20646   20583       1   20529   20577   20646   20685       1
   20526   20496   20523   20568       1   20526   20574  -20634   20568       1
   20526   20574   20634   20682       1   20523   20496   20526   20574       1
   20523   20568  -20634   20574       1   20523   20568   20634   20682       1
   20520   20493   20517   20553       1   20520   20559  -20625   20553       1
   20520   20559   20625   20679       1   20517   20493   20520   20559       1
   20517   20553  -20625   20559       1   20517   20553   20625   20679       1
   20511   20484   20508   20541       4   20511   20484   20508   20544       4
   20511   20547   20613   20670       1   20511   20550  -20619   20670       1
   20508   20484   20511   20547       4   20508   20484   20511   20550       4
   20508   20541   20601   20661       1   20508   20544  -20607   20661       1
   20502   20475   20499   20529       4   20502   20475   20499   20532       4
   20502   20535   20589   20652       1   20502   20538  -20595   20652       1
   20499   20475   20502   20535       4   20499   20475   20502   20538       4
   20499   20529   20577   20646       1   20499   20532  -20583   20646       1
   20496   20472   20493   20517       4   20496   20472   20493   20520       4
   20496   20523   20568   20634       1   20496   20526  -20574   20634       1
   20493   20472   20496   20523       4   20493   20472   20496   20526       4
   20493   20517   20553   20625       1   20493   20520  -20559   20625       1
   20487   20454   20484   20508       4   20487   20454   20484   20511       4
   20484   20508   20541   20601       1   20484   20508   20544   20607       1
   20484   20511   20547   20613       1   20484   20511   20550   20619       1
   20478   20442   20475   20499       4   20478   20442   20475   20502       4
   20475   20499   20529   20577       1   20475   20499   20532   20583       1
   20475   20502   20535   20589       1   20475   20502   20538   20595       1
   20472   20493   20517   20553       1   20472   20493   20520   20559       1
   20472   20496   20523   20568       1   20472   20496   20526   20574       1
   20457   20487   20454   20484       1   20454   20484   20508   20541       4
   20454   20484   20508   20544       4   20454   20484   20511   20547       4
   20454   20484   20511   20550       4   20448   20418   20424   20457       5
   20448   20478   20442   20475       1   20442   20475   20499   20529       4
   20442   20475   20499   20532       4   20442   20475   20502   20535       4
   20442   20475   20502   20538       4   20436   20472   20493   20517       4
   20436   20472   20493   20520       4   20436   20472   20496   20523       4
   20436   20472   20496   20526       4   20430   20436   20472   20493       4
   20430   20436   20472   20496       4   20424   20403   20421   20454       1
   20424   20418   20448   20478       1   20424   20457  -20487   20454       1
   20421   20403   20424   20457       1   20421   20454   20484   20508       4
   20421   20454   20484   20511       4   20421   20454  -20487   20457       1
   20418   20400   20415   20442       1   20418   20424   20403   20421       1
   20418   20424   20457   20487       1   20418   20448  -20478   20442       1
   20415   20400   20418   20424       1   20415   20400   20418   20448       1
   20415   20442   20475   20499       4   20415   20442   20475   20502       4
   20415   20442  -20478   20448       1   20412   20436   20472   20493       4
   20412   20436   20472   20496       4   20409   20394   20397   20412       1
   20409   20430  -20436   20412       1   20409   20430   20436   20472       1
   20403   20379   20397   20412       6   20403   20379   20400   20415       6
   20403   20379  -20400   20418       7   20403   20421   20454   20484       1
   20403   20421   20454   20487       1   20403   20424   20418   20448       5
   20403   20424  -20457   20487       1   20400   20379   20397   20412       6
   20400   20379   20403   20421       6   20400   20379  -20403   20424       7
   20400   20415   20442   20475       1   20400   20415   20442   20478       1
   20400   20418  -20424   20403       5   20400   20418   20424   20457       5
   20400   20418  -20448   20478       1   20397   20379   20400   20415       6
   20397   20379   20400   20418       7   20397   20379   20403   20421       6
   20397   20379   20403   20424       7   20397   20394   20409   20430       1
   20397   20412  -20436   20430       1   20397   20412   20436   20472       1
   20394   20397   20379   20400       7   20394   20397   20379   20403       7
   20394   20397   20412   20436       1   20394   20409  -20430   20436       1
   20379   20352  -20376   20394       1   20379   20397   20394   20409       1
   20379   20397   20412   20436       1   20379   20400   20415   20442       1
   20379   20400  -20418   20424       1   20379   20400   20418   20448       1
   20379   20403   20421   20454       1   20379   20403  -20424   20418       1
   20379   20403   20424   20457       1   20376   20352  -20379   20397       7
   20376   20352   20379   20400       7   20376   20352   20379   20403       7
   20376   20394  -20397   20379       1   20376   20394   20397   20412       1
   20376   20394   20409   20430       1   20370   20385   20406   20427       3
   20364   20385   20406   20427       3   20358   20376   20352   20379       1
   20358   20376   20394   20397       5   20358   20376   20394   20409       5
   20352   20376  -20394   20397       5   20352   20376   20394   20409       5
   20352   20379  -20397   20394       7   20352   20379   20397   20412       6
   20352   20379   20400   20415       6   20352   20379   20400   20418       7
   20352   20379   20403   20421       6   20352   20379   20403   20424       7
   20349   20337   20346   20364       1   20349   20370  -20385   20364       1
   20349   20370   20385   20406       1   20346   20337   20349   20370       1
   20346   20364  -20385   20370       1   20346   20364   20385   20406       1
   20343   20334   20340   20352       1   20343   20358  -20376   20352       1
   20343   20358   20376   20394       1   20340   20334   20343   20358       1
   20340   20352  -20376   20358       1   20340   20352   20376   20394       1
   20340   20352   20379   20397       6   20340   20352   20379   20400       6
   20340   20352   20379   20403       6   20337   20331   20334   20340       4
   20337   20331   20334   20343       4   20337   20346   20364   20385       1
   20337   20349  -20370   20385       1   20334   20331   20337   20346       4
   20334   20331   20337   20349       4   20334   20340   20352   20376       1
   20334   20340   20352   20379       1   20334   20343  -20358   20376       1
   20331   20334   20340   20352       1   20331   20334   20343   20358       1
   20331   20337   20346   20364       1   20331   20337   20349   20370       1
   20322   20331   20334   20340       4   20322   20331   20334   20343       4
   20322   20331   20337   20346       4   20322   20331   20337   20349       4
   20316   20322   20331   20334       4   20316   20322   20331   20337       4
   20310   20322   20331   20334       4   20310   20322   20331   20337       4
   20298   20289   20295   20310       1   20298   20316  -20322   20310       1
   20298   20316   20322   20331       1   20295   20289   20298   20316       1
   20295   20310  -20322   20316       1   20295   20310   20322   20331       1
   20292   20286   20289   20295       3   20292   20286   20289   20298       3
   20289   20295   20310   20322       1   20289   20298  -20316   20322       1
   20286   20289   20295   20310       1   20286   20289   20298   20316       1
   21102   21153   21177   21195       3   21096   21153   21177   21195       3
   21090   21144   21174   21192       3   21084   21144   21174   21192       3
   21078   21135   21171   21189       3   21072   21135   21171   21189       3
   21066   21129   21168   21186       3   21060   21129   21168   21186       3
   21057   21117   21165   21183       3   21051   21117   21165   21183       3
   21042   21108   21162   21180       3   21036   21108   21162   21180       3
   21033   20994   21030   21096       1   21033   21102  -21153   21096       1
   21033   21102   21153   21177       1   21030   20994   21033   21102       1
   21030   21096  -21153   21102       1   21030   21096   21153   21177       1
   21027   20991   21024   21084       1   21027   21090  -21144   21084       1
   21027   21090   21144   21174       1   21024   20991   21027   21090       1
   21024   21084  -21144   21090       1   21024   21084   21144   21174       1
   21021   20985   21018   21072       1   21021   21078  -21135   21072       1
   21021   21078   21135   21171       1   21018   20985   21021   21078       1
   21018   21072  -21135   21078       1   21018   21072   21135   21171       1
   21015   20982   21012   21060       1   21015   21066  -21129   21060       1
   21015   21066   21129   21168       1   21012   20982   21015   21066       1
   21012   21060  -21129   21066       1   21012   21060   21129   21168       1
   21009   20979   21006   21051       1   21009   21057  -21117   21051       1
   21009   21057   21117   21165       1   21006   20979   21009   21057       1
   21006   21051  -21117   21057       1   21006   21051   21117   21165       1
   21003   20976   21000   21036       1   21003   21042  -21108   21036       1
   21003   21042   21108   21162       1   21000   20976   21003   21042       1
   21000   21036  -21108   21042       1   21000   21036   21108   21162       1
   20994   20967   20991   21024       4   20994   20967   20991   21027       4
   20994   21030   21096   21153       1   20994   21033  -21102   21153       1
   20991   20967   20994   21030       4   20991   20967   20994   21033       4
   20991   21024   21084   21144       1   20991   21027  -21090   21144       1
   20985   20958   20982   21012       4   20985   20958   20982   21015       4
   20985   21018   21072   21135       1   20985   21021  -21078   21135       1
   20982   20958   20985   21018       4   20982   20958   20985   21021       4
   20982   21012   21060   21129       1   20982   21015  -21066   21129       1
   20979   20955   20976   21000       4   20979   20955   20976   21003       4
   20979   21006   21051   21117       1   20979   21009  -21057   21117       1
   20976   20955   20979   21006       4   20976   20955   20979   21009       4
   20976   21000   21036   21108       1   20976   21003  -21042   21108       1
   20970   20937   20967   20991       4   20970   20937   20967   20994       4
   20967   20991   21024   21084       1   20967   20991   21027   21090       1
   20967   20994   21030   21096       1   20967   20994   21033   21102       1
   20961   20925   20958   20982       4   20961   20925   20958   20985       4
   20958   20982   21012   21060       1   20958   20982   21015   21066       1
   20958   20985   21018   21072       1   20958   20985   21021   21078       1
   20955   20976   21000   21036       1   20955   20976   21003   21042       1
   20955   20979   21006   21051       1   20955   20979   21009   21057       1
   20940   20970   20937   20967       1   20937   20967   20991   21024       4
   20937   20967   20991   21027       4   20937   20967   20994   21030       4
   20937   20967   20994   21033       4   20931   20901   20907   20940       5
   20931   20961   20925   20958       1   20925   20958   20982   21012       4
   20925   20958   20982   21015       4   20925   20958   20985   21018       4
   20925   20958   20985   21021       4   20919   20955   20976   21000       4
   20919   20955   20976   21003       4   20919   20955   20979   21006       4
   20919   20955   20979   21009       4   20913   20919   20955   20976       4
   20913   20919   20955   20979       4   20907   20886   20904   20937       1
   20907   20901   20931   20961       1   20907   20940  -20970   20937       1
   20904   20886   20907   20940       1   20904   20937   20967   20991       4
   20904   20937   20967   20994       4   20904   20937  -20970   20940       1
   20901   20883   20898   20925       1   20901   20907   20886   20904       1
   20901   20907   20940   20970       1   20901   20931  -20961   20925       1
   20898   20883   20901   20907       1   20898   20883   20901   20931       1
   20898   20925   20958   20982       4   20898   20925   20958   20985       4
   20898   20925  -20961   20931       1   20895   20919   20955   20976       4
   20895   20919   20955   20979       4   20892   20877   20880   20895       1
   20892   20913  -20919   20895       1   20892   20913   20919   20955       1
   20886   20862   20880   20895       6   20886   20862   20883   20898       6
   20886   20862  -20883   20901       7   20886   20904   20937   20967       1
   20886   20904   20937   20970       1   20886   20907   20901   20931       5
   20886   20907  -20940   20970       1   20883   20862   20880   20895       6
   20883   20862   20886   20904       6   20883   20862  -20886   20907       7
   20883   20898   20925   20958       1   20883   20898   20925   20961       1
   20883   20901  -20907   20886       5   20883   20901   20907   20940       5
   20883   20901  -20931   20961       1   20880   20862   20883   20898       6
   20880   20862   20883   20901       7   20880   20862   20886   20904       6
   20880   20862   20886   20907       7   20880   20877   20892   20913       1
   20880   20895  -20919   20913       1   20880   20895   20919   20955       1
   20877   20880   20862   20883       7   20877   20880   20862   20886       7
   20877   20880   20895   20919       1   20877   20892  -20913   20919       1
   20862   20835  -20859   20877       1   20862   20880   20877   20892       1
   20862   20880   20895   20919       1   20862   20883   20898   20925       1
   20862   20883  -20901   20907       1   20862   20883   20901   20931       1
   20862   20886   20904   20937       1   20862   20886  -20907   20901       1
   20862   20886   20907   20940       1   20859   20835  -20862   20880       7
   20859   20835   20862   20883       7   20859   20835   20862   20886       7
   20859   20877  -20880   20862       1   20859   20877   20880   20895       1
   20859   20877   20892   20913       1   20853   20868   20889   20910       3
   20847   20868   20889   20910       3   20841   20859   20835   20862       1
   20841   20859   20877   20880       5   20841   20859   20877   20892       5
   20835   20859  -20877   20880       5   20835   20859   20877   20892       5
   20835   20862  -20880   20877       7   20835   20862   20880   20895       6
   20835   20862   20883   20898       6   20835   20862   20883   20901       7
   20835   20862   20886   20904       6   20835   20862   20886   20907       7
   20832   20820   20829   20847       1   20832   20853  -20868   20847       1
   20832   20853   20868   20889       1   20829   20820   20832   20853       1
   20829   20847  -20868   20853       1   20829   20847   20868   20889       1
   20826   20817   20823   20835       1   20826   20841  -20859   20835       1
   20826   20841   20859   20877       1   20823   20817   20826   20841       1
   20823   20835  -20859   20841       1   20823   20835   20859   20877       1
   20823   20835   20862   20880       6   20823   20835   20862   20883       6
   20823   20835   20862   20886       6   20820   20814   20817   20823       4
   20820   20814   20817   20826       4   20820   20829   20847   20868       1
   20820   20832  -20853   20868       1   20817   20814   20820   20829       4
   20817   20814   20820   20832       4   20817   20823   20835   20859       1
   20817   20823   20835   20862       1   20817   20826  -20841   20859       1
   20814   20817   20823   20835       1   20814   20817   20826   20841       1
   20814   20820   20829   20847       1   20814   20820   20832   20853       1
   20805   20814   20817   20823       4   20805   20814   20817   20826       4
   20805   20814   20820   20829       4   20805   20814   20820   20832       4
   20799   20805   20814   20817       4   20799   20805   20814   20820       4
   20793   20805   20814   20817       4   20793   20805   20814   20820       4
   20781   20772   20778   20793       1   20781   20799  -20805   20793       1
   20781   20799   20805   20814       1   20778   20772   20781   20799       1
   20778   20793  -20805   20799       1   20778   20793   20805   20814       1
   20775   20769   20772   20778       3   20775   20769   20772   20781       3
   20772   20778   20793   20805       1   20772   20781  -20799   20805       1
   20769   20772   20778   20793       1   20769   20772   20781   20799       1
   21585   21636   21660   21678       3   21579   21636   21660   21678       3
   21573   21627   21657   21675       3   21567   21627   21657   21675       3
   21561   21618   21654   21672       3   21555   21618   21654   21672       3
   21549   21612   21651   21669       3   21543   21612   21651   21669       3
   21540   21600   21648   21666       3   21534   21600   21648   21666       3
   21525   21591   21645   21663       3   21519   21591   21645   21663       3
   21516   21477   21513   21579       1   21516   21585  -21636   21579       1
   21516   21585   21636   21660       1   21513   21477   21516   21585       1
   21513   21579  -21636   21585       1   21513   21579   21636   21660       1
   21510   21474   21507   21567       1   21510   21573  -21627   21567       1
   21510   21573   21627   21657       1   21507   21474   21510   21573       1
   21507   21567  -21627   21573       1   21507   21567   21627   21657       1
   21504   21468   21501   21555       1   21504   21561  -21618   21555       1
   21504   21561   21618   21654       1   21501   21468   21504   21561       1
   21501   21555  -21618   21561       1   21501   21555   21618   21654       1
   21498   21465   21495   21543       1   21498   21549  -21612   21543       1
   21498   21549   21612   21651       1   21495   21465   21498   21549       1
   21495   21543  -21612   21549       1   21495   21543   21612   21651       1
   21492   21462   21489   21534       1   21492   21540  -21600   21534       1
   21492   21540   21600   21648       1   21489   21462   21492   21540       1
   21489   21534  -21600   21540       1   21489   21534   21600   21648       1
   21486   21459   21483   21519       1   21486   21525  -21591   21519       1
   21486   21525   21591   21645       1   21483   21459   21486   21525       1
   21483   21519  -21591   21525       1   21483   21519   21591   21645       1
   21477   21450   21474   21507       4   21477   21450   21474   21510       4
   21477   21513   21579   21636       1   21477   21516  -21585   21636       1
   21474   21450   21477   21513       4   21474   21450   21477   21516       4
   21474   21507   21567   21627       1   21474   21510  -21573   21627       1
   21468   21441   21465   21495       4   21468   21441   21465   21498       4
   21468   21501   21555   21618       1   21468   21504  -21561   21618       1
   21465   21441   21468   21501       4   21465   21441   21468   21504       4
   21465   21495   21543   21612       1   21465   21498  -21549   21612       1
   21462   21438   21459   21483       4   21462   21438   21459   21486       4
   21462   21489   21534   21600       1   21462   21492  -21540   21600       1
   21459   21438   21462   21489       4   21459   21438   21462   21492       4
   21459   21483   21519   21591       1   21459   21486  -21525   21591       1
   21453   21420   21450   21474       4   21453   21420   21450   21477       4
   21450   21474   21507   21567       1   21450   21474   21510   21573       1
   21450   21477   21513   21579       1   21450   21477   21516   21585       1
   21444   21408   21441   21465       4   21444   21408   21441   21468       4
   21441   21465   21495   21543       1   21441   21465   21498   21549       1
   21441   21468   21501   21555       1   21441   21468   21504   21561       1
   21438   21459   21483   21519       1   21438   21459   21486   21525       1
   21438   21462   21489   21534       1   21438   21462   21492   21540       1
   21423   21453   21420   21450       1   21420   21450   21474   21507       4
   21420   21450   21474   21510       4   21420   21450   21477   21513       4
   21420   21450   21477   21516       4   21414   21384   21390   21423       5
   21414   21444   21408   21441       1   21408   21441   21465   21495       4
   21408   21441   21465   21498       4   21408   21441   21468   21501       4
   21408   21441   21468   21504       4   21402   21438   21459   21483       4
   21402   21438   21459   21486       4   21402   21438   21462   21489       4
   21402   21438   21462   21492       4   21396   21402   21438   21459       4
   21396   21402   21438   21462       4   21390   21369   21387   21420       1
   21390   21384   21414   21444       1   21390   21423  -21453   21420       1
   21387   21369   21390   21423       1   21387   21420   21450   21474       4
   21387   21420   21450   21477       4   21387   21420  -21453   21423       1
   21384   21366   21381   21408       1   21384   21390   21369   21387       1
   21384   21390   21423   21453       1   21384   21414  -21444   21408       1
   21381   21366   21384   21390       1   21381   21366   21384   21414       1
   21381   21408   21441   21465       4   21381   21408   21441   21468       4
   21381   21408  -21444   21414       1   21378   21402   21438   21459       4
   21378   21402   21438   21462       4   21375   21360   21363   21378       1
   21375   21396  -21402   21378       1   21375   21396   21402   21438       1
   21369   21345   21363   21378       6   21369   21345   21366   21381       6
   21369   21345  -21366   21384       7   21369   21387   21420   21450       1
   21369   21387   21420   21453       1   21369   21390   21384   21414       5
   21369   21390  -21423   21453       1   21366   21345   21363   21378       6
   21366   21345   21369   21387       6   21366   21345  -21369   21390       7
   21366   21381   21408   21441       1   21366   21381   21408   21444       1
   21366   21384  -21390   21369       5   21366   21384   21390   21423       5
   21366   21384  -21414   21444       1   21363   21345   21366   21381       6
   21363   21345   21366   21384       7   21363   21345   21369   21387       6
   21363   21345   21369   21390       7   21363   21360   21375   21396       1
   21363   21378  -21402   21396       1   21363   21378   21402   21438       1
   21360   21363   21345   21366       7   21360   21363   21345   21369       7
   21360   21363   21378   21402       1   21360   21375  -21396   21402       1
   21345   21318  -21342   21360       1   21345   21363   21360   21375       1
   21345   21363   21378   21402       1   21345   21366   21381   21408       1
   21345   21366  -21384   21390       1   21345   21366   21384   21414       1
   21345   21369   21387   21420       1   21345   21369  -21390   21384       1
   21345   21369   21390   21423       1   21342   21318  -21345   21363       7
   21342   21318   21345   21366       7   21342   21318   21345   21369       7
   21342   21360  -21363   21345       1   21342   21360   21363   21378       1
   21342   21360   21375   21396       1   21336   21351   21372   21393       3
   21330   21351   21372   21393       3   21324   21342   21318   21345       1
   21324   21342   21360   21363       5   21324   21342   21360   21375       5
   21318   21342  -21360   21363       5   21318   21342   21360   21375       5
   21318   21345  -21363   21360       7   21318   21345   21363   21378       6
   21318   21345   21366   21381       6   21318   21345   21366   21384       7
   21318   21345   21369   21387       6   21318   21345   21369   21390       7
   21315   21303   21312   21330       1   21315   21336  -21351   21330       1
   21315   21336   21351   21372       1   21312   21303   21315   21336       1
   21312   21330  -21351   21336       1   21312   21330   21351   21372       1
   21309   21300   21306   21318       1   21309   21324  -21342   21318       1
   21309   21324   21342   21360       1   21306   21300   21309   21324       1
   21306   21318  -21342   21324       1   21306   21318   21342   21360       1
   21306   21318   21345   21363       6   21306   21318   21345   21366       6
   21306   21318   21345   21369       6   21303   21297   21300   21306       4
   21303   21297   21300   21309       4   21303   21312   21330   21351       1
   21303   21315  -21336   21351       1   21300   21297   21303   21312       4
   21300   21297   21303   21315       4   21300   21306   21318   21342       1
   21300   21306   21318   21345       1   21300   21309  -21324   21342       1
   21297   21300   21306   21318       1   21297   21300   21309   21324       1
   21297   21303   21312   21330       1   21297   21303   21315   21336       1
   21288   21297   21300   21306       4   21288   21297   21300   21309       4
   21288   21297   21303   21312       4   21288   21297   21303   21315       4
   21282   21288   21297   21300       4   21282   21288   21297   21303       4
   21276   21288   21297   21300       4   21276   21288   21297   21303       4
   21264   21255   21261   21276       1   21264   21282  -21288   21276       1
   21264   21282   21288   21297       1   21261   21255   21264   21282       1
   21261   21276  -21288   21282       1   21261   21276   21288   21297       1
   21258   21252   21255   21261       3   21258   21252   21255   21264       3
   21255   21261   21276   21288       1   21255   21264  -21282   21288       1
   21252   21255   21261   21276       1   21252   21255   21264   21282       1
   22068   22119   22143   22161       3   22062   22119   22143   22161       3
   22056   22110   22140   22158       3   22050   22110   22140   22158       3
   22044   22101   22137   22155       3   22038   22101   22137   22155       3
   22032   22095   22134   22152       3   22026   22095   22134   22152       3
   22023   22083   22131   22149       3   22017   22083   22131   22149       3
   22008   22074   22128   22146       3   22002   22074   22128   22146       3
   21999   21960   21996   22062       1   21999   22068  -22119   22062       1
   21999   22068   22119   22143       1   21996   21960   21999   22068       1
   21996   22062  -22119   22068       1   21996   22062   22119   22143       1
   21993   21957   21990   22050       1   21993   22056  -22110   22050       1
   21993   22056   22110   22140       1   21990   21957   21993   22056       1
   21990   22050  -22110   22056       1   21990   22050   22110   22140       1
   21987   21951   21984   22038       1   21987   22044  -22101   22038       1
   21987   22044   22101   22137       1   21984   21951   21987   22044       1
   21984   22038  -22101   22044       1   21984   22038   22101   22137       1
   21981   21948   21978   22026       1   21981   22032  -22095   22026       1
   21981   22032   22095   22134       1   21978   21948   21981   22032       1
   21978   22026  -22095   22032       1   21978   22026   22095   22134       1
   21975   21945   21972   22017       1   21975   22023  -22083   22017       1
   21975   22023   22083   22131       1   21972   21945   21975   22023       1
   21972   22017  -22083   22023       1   21972   22017   22083   22131       1
   21969   21942   21966   22002       1   21969   22008  -22074   22002       1
   21969   22008   22074   22128       1   21966   21942   21969   22008       1
   21966   22002  -22074   22008       1   21966   22002   22074   22128       1
   21960   21933   21957   21990       4   21960   21933   21957   21993       4
   21960   21996   22062   22119       1   21960   21999  -22068   22119       1
   21957   21933   21960   21996       4   21957   21933   21960   21999       4
   21957   21990   22050   22110       1   21957   21993  -22056   22110       1
   21951   21924   21948   21978       4   21951   21924   21948   21981       4
   21951   21984   22038   22101       1   21951   21987  -22044   22101       1
   21948   21924   21951   21984       4   21948   21924   21951   21987       4
   21948   21978   22026   22095       1   21948   21981  -22032   22095       1
   21945   21921   21942   21966       4   21945   21921   21942   21969       4
   21945   21972   22017   22083       1   21945   21975  -22023   22083       1
   21942   21921   21945   21972       4   21942   21921   21945   21975       4
   21942   21966   22002   22074       1   21942   21969  -22008   22074       1
   21936   21903   21933   21957       4   21936   21903   21933   21960       4
   21933   21957   21990   22050       1   21933   21957   21993   22056       1
   21933   21960   21996   22062       1   21933   21960   21999   22068       1
   21927   21891   21924   21948       4   21927   21891   21924   21951       4
   21924   21948   21978   22026       1   21924   21948   21981   22032       1
   21924   21951   21984   22038       1   21924   21951   21987   22044       1
   21921   21942   21966   22002       1   21921   21942   21969   22008       1
   21921   21945   21972   22017       1   21921   21945   21975   22023       1
   21906   21936   21903   21933       1   21903   21933   21957   21990       4
   21903   21933   21957   21993       4   21903   21933   21960   21996       4
   21903   21933   21960   21999       4   21897   21867   21873   21906       5
   21897   21927   21891   21924       1   21891   21924   21948   21978       4
   21891   21924   21948   21981       4   21891   21924   21951   21984       4
   21891   21924   21951   21987       4   21885   21921   21942   21966       4
   21885   21921   21942   21969       4   21885   21921   21945   21972       4
   21885   21921   21945   21975       4   21879   21885   21921   21942       4
   21879   21885   21921   21945       4   21873   21852   21870   21903       1
   21873   21867   21897   21927       1   21873   21906  -21936   21903       1
   21870   21852   21873   21906       1   21870   21903   21933   21957       4
   21870   21903   21933   21960       4   21870   21903  -21936   21906       1
   21867   21849   21864   21891       1   21867   21873   21852   21870       1
   21867   21873   21906   21936       1   21867   21897  -21927   21891       1
   21864   21849   21867   21873       1   21864   21849   21867   21897       1
   21864   21891   21924   21948       4   21864   21891   21924   21951       4
   21864   21891  -21927   21897       1   21861   21885   21921   21942       4
   21861   21885   21921   21945       4   21858   21843   21846   21861       1
   21858   21879  -21885   21861       1   21858   21879   21885   21921       1
   21852   21828   21846   21861       6   21852   21828   21849   21864       6
   21852   21828  -21849   21867       7   21852   21870   21903   21933       1
   21852   21870   21903   21936       1   21852   21873   21867   21897       5
   21852   21873  -21906   21936       1   21849   21828   21846   21861       6
   21849   21828   21852   21870       6   21849   21828  -21852   21873       7
   21849   21864   21891   21924       1   21849   21864   21891   21927       1
   21849   21867  -21873   21852       5   21849   21867   21873   21906       5
   21849   21867  -21897   21927       1   21846   21828   21849   21864       6
   21846   21828   21849   21867       7   21846   21828   21852   21870       6
   21846   21828   21852   21873       7   21846   21843   21858   21879       1
   21846   21861  -21885   21879       1   21846   21861   21885   21921       1
   21843   21846   21828   21849       7   21843   21846   21828   21852       7
   21843   21846   21861   21885       1   21843   21858  -21879   21885       1
   21828   21801  -21825   21843       1   21828   21846   21843   21858       1
   21828   21846   21861   21885       1   21828   21849   21864   21891       1
   21828   21849  -21867   21873       1   21828   21849   21867   21897       1
   21828   21852   21870   21903       1   21828   21852  -21873   21867       1
   21828   21852   21873   21906       1   21825   21801  -21828   21846       7
   21825   21801   21828   21849       7   21825   21801   21828   21852       7
   21825   21843  -21846   21828       1   21825   21843   21846   21861       1
   21825   21843   21858   21879       1   21819   21834   21855   21876       3
   21813   21834   21855   21876       3   21807   21825   21801   21828       1
   21807   21825   21843   21846       5   21807   21825   21843   21858       5
   21801   21825  -21843   21846       5   21801   21825   21843   21858       5
   21801   21828  -21846   21843       7   21801   21828   21846   21861       6
   21801   21828   21849   21864       6   21801   21828   21849   21867       7
   21801   21828   21852   21870       6   21801   21828   21852   21873       7
   21798   21786   21795   21813       1   21798   21819  -21834   21813       1
   21798   21819   21834   21855       1   21795   21786   21798   21819       1
   21795   21813  -21834   21819       1   21795   21813   21834   21855       1
   21792   21783   21789   21801       1   21792   21807  -21825   21801       1
   21792   21807   21825   21843       1   21789   21783   21792   21807       1
   21789   21801  -21825   21807       1   21789   21801   21825   21843       1
   21789   21801   21828   21846       6   21789   21801   21828   21849       6
   21789   21801   21828   21852       6   21786   21780   21783   21789       4
   21786   21780   21783   21792       4   21786   21795   21813   21834       1
   21786   21798  -21819   21834       1   21783   21780   21786   21795       4
   21783   21780   21786   21798       4   21783   21789   21801   21825       1
   21783   21789   21801   21828       1   21783   21792  -21807   21825       1
   21780   21783   21789   21801       1   21780   21783   21792   21807       1
   21780   21786   21795   21813       1   21780   21786   21798   21819       1
   21771   21780   21783   21789       4   21771   21780   21783   21792       4
   21771   21780   21786   21795       4   21771   21780   21786   21798       4
   21765   21771   21780   21783       4   21765   21771   21780   21786       4
   21759   21771   21780   21783       4   21759   21771   21780   21786       4
   21747   21738   21744   21759       1   21747   21765  -21771   21759       1
   21747   21765   21771   21780       1   21744   21738   21747   21765       1
   21744   21759  -21771   21765       1   21744   21759   21771   21780       1
   21741   21735   21738   21744       3   21741   21735   21738   21747       3
   21738   21744   21759   21771       1   21738   21747  -21765   21771       1
   21735   21738   21744   21759       1   21735   21738   21747   21765       1
   22551   22602   22626   22644       3   22545   22602   22626   22644       3
   22539   22593   22623   22641       3   22533   22593   22623   22641       3
   22527   22584   22620   22638       3   22521   22584   22620   22638       3
   22515   22578   22617   22635       3   22509   22578   22617   22635       3
   22506   22566   22614   22632       3   22500   22566   22614   22632       3
   22491   22557   22611   22629       3   22485   22557   22611   22629       3
   22482   22443   22479   22545       1   22482   22551  -22602   22545       1
   22482   22551   22602   22626       1   22479   22443   22482   22551       1
   22479   22545  -22602   22551       1   22479   22545   22602   22626       1
   22476   22440   22473   22533       1   22476   22539  -22593   22533       1
   22476   22539   22593   22623       1   22473   22440   22476   22539       1
   22473   22533  -22593   22539       1   22473   22533   22593   22623       1
   22470   22434   22467   22521       1   22470   22527  -22584   22521       1
   22470   22527   22584   22620       1   22467   22434   22470   22527       1
   22467   22521  -22584   22527       1   22467   22521   22584   22620       1
   22464   22431   22461   22509       1   22464   22515  -22578   22509       1
   22464   22515   22578   22617       1   22461   22431   22464   22515       1
   22461   22509  -22578   22515       1   22461   22509   22578   22617       1
   22458   22428   22455   22500       1   22458   22506  -22566   22500       1
   22458   22506   22566   22614       1   22455   22428   22458   22506       1
   22455   22500  -22566   22506       1   22455   22500   22566   22614       1
   22452   22425   22449   22485       1   22452   22491  -22557   22485       1
   22452   22491   22557   22611       1   22449   22425   22452   22491       1
   22449   22485  -22557   22491       1   22449   22485   22557   22611       1
   22443   22416   22440   22473       4   22443   22416   22440   22476       4
   22443   22479   22545   22602       1   22443   22482  -22551   22602       1
   22440   22416   22443   22479       4   22440   22416   22443   22482       4
   22440   22473   22533   22593       1   22440   22476  -22539   22593       1
   22434   22407   22431   22461       4   22434   22407   22431   22464       4
   22434   22467   22521   22584       1   22434   22470  -22527   22584       1
   22431   22407   22434   22467       4   22431   22407   22434   22470       4
   22431   22461   22509   22578       1   22431   22464  -22515   22578       1
   22428   22404   22425   22449       4   22428   22404   22425   22452       4
   22428   22455   22500   22566       1   22428   22458  -22506   22566       1
   22425   22404   22428   22455       4   22425   22404   22428   22458       4
   22425   22449   22485   22557       1   22425   22452  -22491   22557       1
   22419   22386   22416   22440       4   22419   22386   22416   22443       4
   22416   22440   22473   22533       1   22416   22440   22476   22539       1
   22416   22443   22479   22545       1   22416   22443   22482   22551       1
   22410   22374   22407   22431       4   22410   22374   22407   22434       4
   22407   22431   22461   22509       1   22407   22431   22464   22515       1
   22407   22434   22467   22521       1   22407   22434   22470   22527       1
   22404   22425   22449   22485       1   22404   22425   22452   22491       1
   22404   22428   22455   22500       1   22404   22428   22458   22506       1
   22389   22419   22386   22416       1   22386   22416   22440   22473       4
   22386   22416   22440   22476       4   22386   22416   22443   22479       4
   22386   22416   22443   22482       4   22380   22350   22356   22389       5
   22380   22410   22374   22407       1   22374   22407   22431   22461       4
   22374   22407   22431   22464       4   22374   22407   22434   22467       4
   22374   22407   22434   22470       4   22368   22404   22425   22449       4
   22368   22404   22425   22452       4   22368   22404   22428   22455       4
   22368   22404   22428   22458       4   22362   22368   22404   22425       4
   22362   22368   22404   22428       4   22356   22335   22353   22386       1
   22356   22350   22380   22410       1   22356   22389  -22419   22386       1
   22353   22335   22356   22389       1   22353   22386   22416   22440       4
   22353   22386   22416   22443       4   22353   22386  -22419   22389       1
   22350   22332   22347   22374       1   22350   22356   22335   22353       1
   22350   22356   22389   22419       1   22350   22380  -22410   22374       1
   22347   22332   22350   22356       1   22347   22332   22350   22380       1
   22347   22374   22407   22431       4   22347   22374   22407   22434       4
   22347   22374  -22410   22380       1   22344   22368   22404   22425       4
   22344   22368   22404   22428       4   22341   22326   22329   22344       1
   22341   22362  -22368   22344       1   22341   22362   22368   22404       1
   22335   22311   22329   22344       6   22335   22311   22332   22347       6
   22335   22311  -22332   22350       7   22335   22353   22386   22416       1
   22335   22353   22386   22419       1   22335   22356   22350   22380       5
   22335   22356  -22389   22419       1   22332   22311   22329   22344       6
   22332   22311   22335   22353       6   22332   22311  -22335   22356       7
   22332   22347   22374   22407       1   22332   22347   22374   22410       1
   22332   22350  -22356   22335       5   22332   22350   22356   22389       5
   22332   22350  -22380   22410       1   22329   22311   22332   22347       6
   22329   22311   22332   22350       7   22329   22311   22335   22353       6
   22329   22311   22335   22356       7   22329   22326   22341   22362       1
   22329   22344  -22368   22362       1   22329   22344   22368   22404       1
   22326   22329   22311   22332       7   22326   22329   22311   22335       7
   22326   22329   22344   22368       1   22326   22341  -22362   22368       1
   22311   22284  -22308   22326       1   22311   22329   22326   22341       1
   22311   22329   22344   22368       1   22311   22332   22347   22374       1
   22311   22332  -22350   22356       1   22311   22332   22350   22380       1
   22311   22335   22353   22386       1   22311   22335  -22356   22350       1
   22311   22335   22356   22389       1   22308   22284  -22311   22329       7
   22308   22284   22311   22332       7   22308   22284   22311   22335       7
   22308   22326  -22329   22311       1   22308   22326   22329   22344       1
   22308   22326   22341   22362       1   22302   22317   22338   22359       3
   22296   22317   22338   22359       3   22290   22308   22284   22311       1
   22290   22308   22326   22329       5   22290   22308   22326   22341       5
   22284   22308  -22326   22329       5   22284   22308   22326   22341       5
   22284   22311  -22329   22326       7   22284   22311   22329   22344       6
   22284   22311   22332   22347       6   22284   22311   22332   22350       7
   22284   22311   22335   22353       6   22284   22311   22335   22356       7
   22281   22269   22278   22296       1   22281   22302  -22317   22296       1
   22281   22302   22317   22338       1   22278   22269   22281   22302       1
   22278   22296  -22317   22302       1   22278   22296   22317   22338       1
   22275   22266   22272   22284       1   22275   22290  -22308   22284       1
   22275   22290   22308   22326       1   22272   22266   22275   22290       1
   22272   22284  -22308   22290       1   22272   22284   22308   22326       1
   22272   22284   22311   22329       6   22272   22284   22311   22332       6
   22272   22284   22311   22335       6   22269   22263   22266   22272       4
   22269   22263   22266   22275       4   22269   22278   22296   22317       1
   22269   22281  -22302   22317       1   22266   22263   22269   22278       4
   22266   22263   22269   22281       4   22266   22272   22284   22308       1
   22266   22272   22284   22311       1   22266   22275  -22290   22308       1
   22263   22266   22272   22284       1   22263   22266   22275   22290       1
   22263   22269   22278   22296       1   22263   22269   22281   22302       1
   22254   22263   22266   22272       4   22254   22263   22266   22275       4
   22254   22263   22269   22278       4   22254   22263   22269   22281       4
   22248   22254   22263   22266       4   22248   22254   22263   22269       4
   22242   22254   22263   22266       4   22242   22254   22263   22269       4
   22230   22221   22227   22242       1   22230   22248  -22254   22242       1
   22230   22248   22254   22263       1   22227   22221   22230   22248       1
   22227   22242  -22254   22248       1   22227   22242   22254   22263       1
   22224   22218   22221   22227       3   22224   22218   22221   22230       3
   22221   22227   22242   22254       1   22221   22230  -22248   22254       1
   22218   22221   22227   22242       1   22218   22221   22230   22248       1
   23034   23085   23109   23127       3   23028   23085   23109   23127       3
   23022   23076   23106   23124       3   23016   23076   23106   23124       3
   23010   23067   23103   23121       3   23004   23067   23103   23121       3
   22998   23061   23100   23118       3   22992   23061   23100   23118       3
   22989   23049   23097   23115       3   22983   23049   23097   23115       3
   22974   23040   23094   23112       3   22968   23040   23094   23112       3
   22965   22926   22962   23028       1   22965   23034  -23085   23028       1
   22965   23034   23085   23109       1   22962   22926   22965   23034       1
   22962   23028  -23085   23034       1   22962   23028   23085   23109       1
   22959   22923   22956   23016       1   22959   23022  -23076   23016       1
   22959   23022   23076   23106       1   22956   22923   22959   23022       1
   22956   23016  -23076   23022       1   22956   23016   23076   23106       1
   22953   22917   22950   23004       1   22953   23010  -23067   23004       1
   22953   23010   23067   23103       1   22950   22917   22953   23010       1
   22950   23004  -23067   23010       1   22950   23004   23067   23103       1
   22947   22914   22944   22992       1   22947   22998  -23061   22992       1
   22947   22998   23061   23100       1   22944   22914   22947   22998       1
   22944   22992  -23061   22998       1   22944   22992   23061   23100       1
   22941   22911   22938   22983       1   22941   22989  -23049   22983       1
   22941   22989   23049   23097       1   22938   22911   22941   22989       1
   22938   22983  -23049   22989       1   22938   22983   23049   23097       1
   22935   22908   22932   22968       1   22935   22974  -23040   22968       1
   22935   22974   23040   23094       1   22932   22908   22935   22974       1
   22932   22968  -23040   22974       1   22932   22968   23040   23094       1
   22926   22899   22923   22956       4   22926   22899   22923   22959       4
   22926   22962   23028   23085       1   22926   22965  -23034   23085       1
   22923   22899   22926   22962       4   22923   22899   22926   22965       4
   22923   22956   23016   23076       1   22923   22959  -23022   23076       1
   22917   22890   22914   22944       4   22917   22890   22914   22947       4
   22917   22950   23004   23067       1   22917   22953  -23010   23067       1
   22914   22890   22917   22950       4   22914   22890   22917   22953       4
   22914   22944   22992   23061       1   22914   22947  -22998   23061       1
   22911   22887   22908   22932       4   22911   22887   22908   22935       4
   22911   22938   22983   23049       1   22911   22941  -22989   23049       1
   22908   22887   22911   22938       4   22908   22887   22911   22941       4
   22908   22932   22968   23040       1   22908   22935  -22974   23040       1
   22902   22869   22899   22923       4   22902   22869   22899   22926       4
   22899   22923   22956   23016       1   22899   22923   22959   23022       1
   22899   22926   22962   23028       1   22899   22926   22965   23034       1
   22893   22857   22890   22914       4   22893   22857   22890   22917       4
   22890   22914   22944   22992       1   22890   22914   22947   22998       1
   22890   22917   22950   23004       1   22890   22917   22953   23010       1
   22887   22908   22932   22968       1   22887   22908   22935   22974       1
   22887   22911   22938   22983       1   22887   22911   22941   22989       1
   22872   22902   22869   22899       1   22869   22899   22923   22956       4
   22869   22899   22923   22959       4   22869   22899   22926   22962       4
   22869   22899   22926   22965       4   22863   22833   22839   22872       5
   22863   22893   22857   22890       1   22857   22890   22914   22944       4
   22857   22890   22914   22947       4   22857   22890   22917   22950       4
   22857   22890   22917   22953       4   22851   22887   22908   22932       4
   22851   22887   22908   22935       4   22851   22887   22911   22938       4
   22851   22887   22911   22941       4   22845   22851   22887   22908       4
   22845   22851   22887   22911       4   22839   22818   22836   22869       1
   22839   22833   22863   22893       1   22839   22872  -22902   22869       1
   22836   22818   22839   22872       1   22836   22869   22899   22923       4
   22836   22869   22899   22926       4   22836   22869  -22902   22872       1
   22833   22815   22830   22857       1   22833   22839   22818   22836       1
   22833   22839   22872   22902       1   22833   22863  -22893   22857       1
   22830   22815   22833   22839       1   22830   22815   22833   22863       1
   22830   22857   22890   22914       4   22830   22857   22890   22917       4
   22830   22857  -22893   22863       1   22827   22851   22887   22908       4
   22827   22851   22887   22911       4   22824   22809   22812   22827       1
   22824   22845  -22851   22827       1   22824   22845   22851   22887       1
   22818   22794   22812   22827       6   22818   22794   22815   22830       6
   22818   22794  -22815   22833       7   22818   22836   22869   22899       1
   22818   22836   22869   22902       1   22818   22839   22833   22863       5
   22818   22839  -22872   22902       1   22815   22794   22812   22827       6
   22815   22794   22818   22836       6   22815   22794  -22818   22839       7
   22815   22830   22857   22890       1   22815   22830   22857   22893       1
   22815   22833  -22839   22818       5   22815   22833   22839   22872       5
   22815   22833  -22863   22893       1   22812   22794   22815   22830       6
   22812   22794   22815   22833       7   22812   22794   22818   22836       6
   22812   22794   22818   22839       7   22812   22809   22824   22845       1
   22812   22827  -22851   22845       1   22812   22827   22851   22887       1
   22809   22812   22794   22815       7   22809   22812   22794   22818       7
   22809   22812   22827   22851       1   22809   22824  -22845   22851       1
   22794   22767  -22791   22809       1   22794   22812   22809   22824       1
   22794   22812   22827   22851       1   22794   22815   22830   22857       1
   22794   22815  -22833   22839       1   22794   22815   22833   22863       1
   22794   22818   22836   22869       1   22794   22818  -22839   22833       1
   22794   22818   22839   22872       1   22791   22767  -22794   22812       7
   22791   22767   22794   22815       7   22791   22767   22794   22818       7
   22791   22809  -22812   22794       1   22791   22809   22812   22827       1
   22791   22809   22824   22845       1   22785   22800   22821   22842       3
   22779   22800   22821   22842       3   22773   22791   22767   22794       1
   22773   22791   22809   22812       5   22773   22791   22809   22824       5
   22767   22791  -22809   22812       5   22767   22791   22809   22824       5
   22767   22794  -22812   22809       7   22767   22794   22812   22827       6
   22767   22794   22815   22830       6   22767   22794   22815   22833       7
   22767   22794   22818   22836       6   22767   22794   22818   22839       7
   22764   22752   22761   22779       1   22764   22785  -22800   22779       1
   22764   22785   22800   22821       1   22761   22752   22764   22785       1
   22761   22779  -22800   22785       1   22761   22779   22800   22821       1
   22758   22749   22755   22767       1   22758   22773  -22791   22767       1
   22758   22773   22791   22809       1   22755   22749   22758   22773       1
   22755   22767  -22791   22773       1   22755   22767   22791   22809       1
   22755   22767   22794   22812       6   22755   22767   22794   22815       6
   22755   22767   22794   22818       6   22752   22746   22749   22755       4
   22752   22746   22749   22758       4   22752   22761   22779   22800       1
   22752   22764  -22785   22800       1   22749   22746   22752   22761       4
   22749   22746   22752   22764       4   22749   22755   22767   22791       1
   22749   22755   22767   22794       1   22749   22758  -22773   22791       1
   22746   22749   22755   22767       1   22746   22749   22758   22773       1
   22746   22752   22761   22779       1   22746   22752   22764   22785       1
   22737   22746   22749   22755       4   22737   22746   22749   22758       4
   22737   22746   22752   22761       4   22737   22746   22752   22764       4
   22731   22737   22746   22749       4   22731   22737   22746   22752       4
   22725   22737   22746   22749       4   22725   22737   22746   22752       4
   22713   22704   22710   22725       1   22713   22731  -22737   22725       1
   22713   22731   22737   22746       1   22710   22704   22713   22731       1
   22710   22725  -22737   22731       1   22710   22725   22737   22746       1
   22707   22701   22704   22710       3   22707   22701   22704   22713       3
   22704   22710   22725   22737       1   22704   22713  -22731   22737       1
   22701   22704   22710   22725       1   22701   22704   22713   22731       1
   23517   23568   23592   23610       3   23511   23568   23592   23610       3
   23505   23559   23589   23607       3   23499   23559   23589   23607       3
   23493   23550   23586   23604       3   23487   23550   23586   23604       3
   23481   23544   23583   23601       3   23475   23544   23583   23601       3
   23472   23532   23580   23598       3   23466   23532   23580   23598       3
   23457   23523   23577   23595       3   23451   23523   23577   23595       3
   23448   23409   23445   23511       1   23448   23517  -23568   23511       1
   23448   23517   23568   23592       1   23445   23409   23448   23517       1
   23445   23511  -23568   23517       1   23445   23511   23568   23592       1
   23442   23406   23439   23499       1   23442   23505  -23559   23499       1
   23442   23505   23559   23589       1   23439   23406   23442   23505       1
   23439   23499  -23559   23505       1   23439   23499   23559   23589       1
   23436   23400   23433   23487       1   23436   23493  -23550   23487       1
   23436   23493   23550   23586       1   23433   23400   23436   23493       1
   23433   23487  -23550   23493       1   23433   23487   23550   23586       1
   23430   23397   23427   23475       1   23430   23481  -23544   23475       1
   23430   23481   23544   23583       1   23427   23397   23430   23481       1
   23427   23475  -23544   23481       1   23427   23475   23544   23583       1
   23424   23394   23421   23466       1   23424   23472  -23532   23466       1
   23424   23472   23532   23580       1   23421   23394   23424   23472       1
   23421   23466  -23532   23472       1   23421   23466   23532   23580       1
   23418   23391   23415   23451       1   23418   23457  -23523   23451       1
   23418   23457   23523   23577       1   23415   23391   23418   23457       1
   23415   23451  -23523   23457       1   23415   23451   23523   23577       1
   23409   23382   23406   23439       4   23409   23382   23406   23442       4
   23409   23445   23511   23568       1   23409   23448  -23517   23568       1
   23406   23382   23409   23445       4   23406   23382   23409   23448       4
   23406   23439   23499   23559       1   23406   23442  -23505   23559       1
   23400   23373   23397   23427       4   23400   23373   23397   23430       4
   23400   23433   23487   23550       1   23400   23436  -23493   23550       1
   23397   23373   23400   23433       4   23397   23373   23400   23436       4
   23397   23427   23475   23544       1   23397   23430  -23481   23544       1
   23394   23370   23391   23415       4   23394   23370   23391   23418       4
   23394   23421   23466   23532       1   23394   23424  -23472   23532       1
   23391   23370   23394   23421       4   23391   23370   23394   23424       4
   23391   23415   23451   23523       1   23391   23418  -23457   23523       1
   23385   23352   23382   23406       4   23385   23352   23382   23409       4
   23382   23406   23439   23499       1   23382   23406   23442   23505       1
   23382   23409   23445   23511       1   23382   23409   23448   23517       1
   23376   23340   23373   23397       4   23376   23340   23373   23400       4
   23373   23397   23427   23475       1   23373   23397   23430   23481       1
   23373   23400   23433   23487       1   23373   23400   23436   23493       1
   23370   23391   23415   23451       1   23370   23391   23418   23457       1
   23370   23394   23421   23466       1   23370   23394   23424   23472       1
   23355   23385   23352   23382       1   23352   23382   23406   23439       4
   23352   23382   23406   23442       4   23352   23382   23409   23445       4
   23352   23382   23409   23448       4   23346   23316   23322   23355       5
   23346   23376   23340   23373       1   23340   23373   23397   23427       4
   23340   23373   23397   23430       4   23340   23373   23400   23433       4
   23340   23373   23400   23436       4   23334   23370   23391   23415       4
   23334   23370   23391   23418       4   23334   23370   23394   23421       4
   23334   23370   23394   23424       4   23328   23334   23370   23391       4
   23328   23334   23370   23394       4   23322   23301   23319   23352       1
   23322   23316   23346   23376       1   23322   23355  -23385   23352       1
   23319   23301   23322   23355       1   23319   23352   23382   23406       4
   23319   23352   23382   23409       4   23319   23352  -23385   23355       1
   23316   23298   23313   23340       1   23316   23322   23301   23319       1
   23316   23322   23355   23385       1   23316   23346  -23376   23340       1
   23313   23298   23316   23322       1   23313   23298   23316   23346       1
   23313   23340   23373   23397       4   23313   23340   23373   23400       4
   23313   23340  -23376   23346       1   23310   23334   23370   23391       4
   23310   23334   23370   23394       4   23307   23292   23295   23310       1
   23307   23328  -23334   23310       1   23307   23328   23334   23370       1
   23301   23277   23295   23310       6   23301   23277   23298   23313       6
   23301   23277  -23298   23316       7   23301   23319   23352   23382       1
   23301   23319   23352   23385       1   23301   23322   23316   23346       5
   23301   23322  -23355   23385       1   23298   23277   23295   23310       6
   23298   23277   23301   23319       6   23298   23277  -23301   23322       7
   23298   23313   23340   23373       1   23298   23313   23340   23376       1
   23298   23316  -23322   23301       5   23298   23316   23322   23355       5
   23298   23316  -23346   23376       1   23295   23277   23298   23313       6
   23295   23277   23298   23316       7   23295   23277   23301   23319       6
   23295   23277   23301   23322       7   23295   23292   23307   23328       1
   23295   23310  -23334   23328       1   23295   23310   23334   23370       1
   23292   23295   23277   23298       7   23292   23295   23277   23301       7
   23292   23295   23310   23334       1   23292   23307  -23328   23334       1
   23277   23250  -23274   23292       1   23277   23295   23292   23307       1
   23277   23295   23310   23334       1   23277   23298   23313   23340       1
   23277   23298  -23316   23322       1   23277   23298   23316   23346       1
   23277   23301   23319   23352       1   23277   23301  -23322   23316       1
   23277   23301   23322   23355       1   23274   23250  -23277   23295       7
   23274   23250   23277   23298       7   23274   23250   23277   23301       7
   23274   23292  -23295   23277       1   23274   23292   23295   23310       1
   23274   23292   23307   23328       1   23268   23283   23304   23325       3
   23262   23283   23304   23325       3   23256   23274   23250   23277       1
   23256   23274   23292   23295       5   23256   23274   23292   23307       5
   23250   23274  -23292   23295       5   23250   23274   23292   23307       5
   23250   23277  -23295   23292       7   23250   23277   23295   23310       6
   23250   23277   23298   23313       6   23250   23277   23298   23316       7
   23250   23277   23301   23319       6   23250   23277   23301   23322       7
   23247   23235   23244   23262       1   23247   23268  -23283   23262       1
   23247   23268   23283   23304       1   23244   23235   23247   23268       1
   23244   23262  -23283   23268       1   23244   23262   23283   23304       1
   23241   23232   23238   23250       1   23241   23256  -23274   23250       1
   23241   23256   23274   23292       1   23238   23232   23241   23256       1
   23238   23250  -23274   23256       1   23238   23250   23274   23292       1
   23238   23250   23277   23295       6   23238   23250   23277   23298       6
   23238   23250   23277   23301       6   23235   23229   23232   23238       4
   23235   23229   23232   23241       4   23235   23244   23262   23283       1
   23235   23247  -23268   23283       1   23232   23229   23235   23244       4
   23232   23229   23235   23247       4   23232   23238   23250   23274       1
   23232   23238   23250   23277       1   23232   23241  -23256   23274       1
   23229   23232   23238   23250       1   23229   23232   23241   23256       1
   23229   23235   23244   23262       1   23229   23235   23247   23268       1
   23220   23229   23232   23238       4   23220   23229   23232   23241       4
   23220   23229   23235   23244       4   23220   23229   23235   23247       4
   23214   23220   23229   23232       4   23214   23220   23229   23235       4
   23208   23220   23229   23232       4   23208   23220   23229   23235       4
   23196   23187   23193   23208       1   23196   23214  -23220   23208       1
   23196   23214   23220   23229       1   23193   23187   23196   23214       1
   23193   23208  -23220   23214       1   23193   23208   23220   23229       1
   23190   23184   23187   23193       3   23190   23184   23187   23196       3
   23187   23193   23208   23220       1   23187   23196  -23214   23220       1
   23184   23187   23193   23208       1   23184   23187   23196   23214       1
   24000   24051   24075   24093       3   23994   24051   24075   24093       3
   23988   24042   24072   24090       3   23982   24042   24072   24090       3
   23976   24033   24069   24087       3   23970   24033   24069   24087       3
   23964   24027   24066   24084       3   23958   24027   24066   24084       3
   23955   24015   24063   24081       3   23949   24015   24063   24081       3
   23940   24006   24060   24078       3   23934   24006   24060   24078       3
   23931   23892   23928   23994       1   23931   24000  -24051   23994       1
   23931   24000   24051   24075       1   23928   23892   23931   24000       1
   23928   23994  -24051   24000       1   23928   23994   24051   24075       1
   23925   23889   23922   23982       1   23925   23988  -24042   23982       1
   23925   23988   24042   24072       1   23922   23889   23925   23988       1
   23922   23982  -24042   23988       1   23922   23982   24042   24072       1
   23919   23883   23916   23970       1   23919   23976  -24033   23970       1
   23919   23976   24033   24069       1   23916   23883   23919   23976       1
   23916   23970  -24033   23976       1   23916   23970   24033   24069       1
   23913   23880   23910   23958       1   23913   23964  -24027   23958       1
   23913   23964   24027   24066       1   23910   23880   23913   23964       1
   23910   23958  -24027   23964       1   23910   23958   24027   24066       1
   23907   23877   23904   23949       1   23907   23955  -24015   23949       1
   23907   23955   24015   24063       1   23904   23877   23907   23955       1
   23904   23949  -24015   23955       1   23904   23949   24015   24063       1
   23901   23874   23898   23934       1   23901   23940  -24006   23934       1
   23901   23940   24006   24060       1   23898   23874   23901   23940       1
   23898   23934  -24006   23940       1   23898   23934   24006   24060       1
   23892   23865   23889   23922       4   23892   23865   23889   23925       4
   23892   23928   23994   24051       1   23892   23931  -24000   24051       1
   23889   23865   23892   23928       4   23889   23865   23892   23931       4
   23889   23922   23982   24042       1   23889   23925  -23988   24042       1
   23883   23856   23880   23910       4   23883   23856   23880   23913       4
   23883   23916   23970   24033       1   23883   23919  -23976   24033       1
   23880   23856   23883   23916       4   23880   23856   23883   23919       4
   23880   23910   23958   24027       1   23880   23913  -23964   24027       1
   23877   23853   23874   23898       4   23877   23853   23874   23901       4
   23877   23904   23949   24015       1   23877   23907  -23955   24015       1
   23874   23853   23877   23904       4   23874   23853   23877   23907       4
   23874   23898   23934   24006       1   23874   23901  -23940   24006       1
   23868   23835   23865   23889       4   23868   23835   23865   23892       4
   23865   23889   23922   23982       1   23865   23889   23925   23988       1
   23865   23892   23928   23994       1   23865   23892   23931   24000       1
   23859   23823   23856   23880       4   23859   23823   23856   23883       4
   23856   23880   23910   23958       1   23856   23880   23913   23964       1
   23856   23883   23916   23970       1   23856   23883   23919   23976       1
   23853   23874   23898   23934       1   23853   23874   23901   23940       1
   23853   23877   23904   23949       1   23853   23877   23907   23955       1
   23838   23868   23835   23865       1   23835   23865   23889   23922       4
   23835   23865   23889   23925       4   23835   23865   23892   23928       4
   23835   23865   23892   23931       4   23829   23799   23805   23838       5
   23829   23859   23823   23856       1   23823   23856   23880   23910       4
   23823   23856   23880   23913       4   23823   23856   23883   23916       4
   23823   23856   23883   23919       4   23817   23853   23874   23898       4
   23817   23853   23874   23901       4   23817   23853   23877   23904       4
   23817   23853   23877   23907       4   23811   23817   23853   23874       4
   23811   23817   23853   23877       4   23805   23784   23802   23835       1
   23805   23799   23829   23859       1   23805   23838  -23868   23835       1
   23802   23784   23805   23838       1   23802   23835   23865   23889       4
   23802   23835   23865   23892       4   23802   23835  -23868   23838       1
   23799   23781   23796   23823       1   23799   23805   23784   23802       1
   23799   23805   23838   23868       1   23799   23829  -23859   23823       1
   23796   23781   23799   23805       1   23796   23781   23799   23829       1
   23796   23823   23856   23880       4   23796   23823   23856   23883       4
   23796   23823  -23859   23829       1   23793   23817   23853   23874       4
   23793   23817   23853   23877       4   23790   23775   23778   23793       1
   23790   23811  -23817   23793       1   23790   23811   23817   23853       1
   23784   23760   23778   23793       6   23784   23760   23781   23796       6
   23784   23760  -23781   23799       7   23784   23802   23835   23865       1
   23784   23802   23835   23868       1   23784   23805   23799   23829       5
   23784   23805  -23838   23868       1   23781   23760   23778   23793       6
   23781   23760   23784   23802       6   23781   23760  -23784   23805       7
   23781   23796   23823   23856       1   23781   23796   23823   23859       1
   23781   23799  -23805   23784       5   23781   23799   23805   23838       5
   23781   23799  -23829   23859       1   23778   23760   23781   23796       6
   23778   23760   23781   23799       7   23778   23760   23784   23802       6
   23778   23760   23784   23805       7   23778   23775   23790   23811       1
   23778   23793  -23817   23811       1   23778   23793   23817   23853       1
   23775   23778   23760   23781       7   23775   23778   23760   23784       7
   23775   23778   23793   23817       1   23775   23790  -23811   23817       1
   23760   23733  -23757   23775       1   23760   23778   23775   23790       1
   23760   23778   23793   23817       1   23760   23781   23796   23823       1
   23760   23781  -23799   23805       1   23760   23781   23799   23829       1
   23760   23784   23802   23835       1   23760   23784  -23805   23799       1
   23760   23784   23805   23838       1   23757   23733  -23760   23778       7
   23757   23733   23760   23781       7   23757   23733   23760   23784       7
   23757   23775  -23778   23760       1   23757   23775   23778   23793       1
   23757   23775   23790   23811       1   23751   23766   23787   23808       3
   23745   23766   23787   23808       3   23739   23757   23733   23760       1
   23739   23757   23775   23778       5   23739   23757   23775   23790       5
   23733   23757  -23775   23778       5   23733   23757   23775   23790       5
   23733   23760  -23778   23775       7   23733   23760   23778   23793       6
   23733   23760   23781   23796       6   23733   23760   23781   23799       7
   23733   23760   23784   23802       6   23733   23760   23784   23805       7
   23730   23718   23727   23745       1   23730   23751  -23766   23745       1
   23730   23751   23766   23787       1   23727   23718   23730   23751       1
   23727   23745  -23766   23751       1   23727   23745   23766   23787       1
   23724   23715   23721   23733       1   23724   23739  -23757   23733       1
   23724   23739   23757   23775       1   23721   23715   23724   23739       1
   23721   23733  -23757   23739       1   23721   23733   23757   23775       1
   23721   23733   23760   23778       6   23721   23733   23760   23781       6
   23721   23733   23760   23784       6   23718   23712   23715   23721       4
   23718   23712   23715   23724       4   23718   23727   23745   23766       1
   23718   23730  -23751   23766       1   23715   23712   23718   23727       4
   23715   23712   23718   23730       4   23715   23721   23733   23757       1
   23715   23721   23733   23760       1   23715   23724  -23739   23757       1
   23712   23715   23721   23733       1   23712   23715   23724   23739       1
   23712   23718   23727   23745       1   23712   23718   23730   23751       1
   23703   23712   23715   23721       4   23703   23712   23715   23724       4
   23703   23712   23718   23727       4   23703   23712   23718   23730       4
   23697   23703   23712   23715       4   23697   23703   23712   23718       4
   23691   23703   23712   23715       4   23691   23703   23712   23718       4
   23679   23670   23676   23691       1   23679   23697  -23703   23691       1
   23679   23697   23703   23712       1   23676   23670   23679   23697       1
   23676   23691  -23703   23697       1   23676   23691   23703   23712       1
   23673   23667   23670   23676       3   23673   23667   23670   23679       3
   23670   23676   23691   23703       1   23670   23679  -23697   23703       1
   23667   23670   23676   23691       1   23667   23670   23679   23697       1
   24483   24534   24558   24576       3   24477   24534   24558   24576       3
   24471   24525   24555   24573       3   24465   24525   24555   24573       3
   24459   24516   24552   24570       3   24453   24516   24552   24570       3
   24447   24510   24549   24567       3   24441   24510   24549   24567       3
   24438   24498   24546   24564       3   24432   24498   24546   24564       3
   24423   24489   24543   24561       3   24417   24489   24543   24561       3
   24414   24375   24411   24477       1   24414   24483  -24534   24477       1
   24414   24483   24534   24558       1   24411   24375   24414   24483       1
   24411   24477  -24534   24483       1   24411   24477   24534   24558       1
   24408   24372   24405   24465       1   24408   24471  -24525   24465       1
   24408   24471   24525   24555       1   24405   24372   24408   24471       1
   24405   24465  -24525   24471       1   24405   24465   24525   24555       1
   24402   24366   24399   24453       1   24402   24459  -24516   24453       1
   24402   24459   24516   24552       1   24399   24366   24402   24459       1
   24399   24453  -24516   24459       1   24399   24453   24516   24552       1
   24396   24363   24393   24441       1   24396   24447  -24510   24441       1
   24396   24447   24510   24549       1   24393   24363   24396   24447       1
   24393   24441  -24510   24447       1   24393   24441   24510   24549       1
   24390   24360   24387   24432       1   24390   24438  -24498   24432       1
   24390   24438   24498   24546       1   24387   24360   24390   24438       1
   24387   24432  -24498   24438       1   24387   24432   24498   24546       1
   24384   24357   24381   24417       1   24384   24423  -24489   24417       1
   24384   24423   24489   24543       1   24381   24357   24384   24423       1
   24381   24417  -24489   24423       1   24381   24417   24489   24543       1
   24375   24348   24372   24405       4   24375   24348   24372   24408       4
   24375   24411   24477   24534       1   24375   24414  -24483   24534       1
   24372   24348   24375   24411       4   24372   24348   24375   24414       4
   24372   24405   24465   24525       1   24372   24408  -24471   24525       1
   24366   24339   24363   24393       4   24366   24339   24363   24396       4
   24366   24399   24453   24516       1   24366   24402  -24459   24516       1
   24363   24339   24366   24399       4   24363   24339   24366   24402       4
   24363   24393   24441   24510       1   24363   24396  -24447   24510       1
   24360   24336   24357   24381       4   24360   24336   24357   24384       4
   24360   24387   24432   24498       1   24360   24390  -24438   24498       1
   24357   24336   24360   24387       4   24357   24336   24360   24390       4
   24357   24381   24417   24489       1   24357   24384  -24423   24489       1
   24351   24318   24348   24372       4   24351   24318   24348   24375       4
   24348   24372   24405   24465       1   24348   24372   24408   24471       1
   24348   24375   24411   24477       1   24348   24375   24414   24483       1
   24342   24306   24339   24363       4   24342   24306   24339   24366       4
   24339   24363   24393   24441       1   24339   24363   24396   24447       1
   24339   24366   24399   24453       1   24339   24366   24402   24459       1
   24336   24357   24381   24417       1   24336   24357   24384   24423       1
   24336   24360   24387   24432       1   24336   24360   24390   24438       1
   24321   24351   24318   24348       1   24318   24348   24372   24405       4
   24318   24348   24372   24408       4   24318   24348   24375   24411       4
   24318   24348   24375   24414       4   24312   24282   24288   24321       5
   24312   24342   24306   24339       1   24306   24339   24363   24393       4
   24306   24339   24363   24396       4   24306   24339   24366   24399       4
   24306   24339   24366   24402       4   24300   24336   24357   24381       4
   24300   24336   24357   24384       4   24300   24336   24360   24387       4
   24300   24336   24360   24390       4   24294   24300   24336   24357       4
   24294   24300   24336   24360       4   24288   24267   24285   24318       1
   24288   24282   24312   24342       1   24288   24321  -24351   24318       1
   24285   24267   24288   24321       1   24285   24318   24348   24372       4
   24285   24318   24348   24375       4   24285   24318  -24351   24321       1
   24282   24264   24279   24306       1   24282   24288   24267   24285       1
   24282   24288   24321   24351       1   24282   24312  -24342   24306       1
   24279   24264   24282   24288       1   24279   24264   24282   24312       1
   24279   24306   24339   24363       4   24279   24306   24339   24366       4
   24279   24306  -24342   24312       1   24276   24300   24336   24357       4
   24276   24300   24336   24360       4   24273   24258   24261   24276       1
   24273   24294  -24300   24276       1   24273   24294   24300   24336       1
   24267   24243   24261   24276       6   24267   24243   24264   24279       6
   24267   24243  -24264   24282       7   24267   24285   24318   24348       1
   24267   24285   24318   24351       1   24267   24288   24282   24312       5
   24267   24288  -24321   24351       1   24264   24243   24261   24276       6
   24264   24243   24267   24285       6   24264   24243  -24267   24288       7
   24264   24279   24306   24339       1   24264   24279   24306   24342       1
   24264   24282  -24288   24267       5   24264   24282   24288   24321       5
   24264   24282  -24312   24342       1   24261   24243   24264   24279       6
   24261   24243   24264   24282       7   24261   24243   24267   24285       6
   24261   24243   24267   24288       7   24261   24258   24273   24294       1
   24261   24276  -24300   24294       1   24261   24276   24300   24336       1
   24258   24261   24243   24264       7   24258   24261   24243   24267       7
   24258   24261   24276   24300       1   24258   24273  -24294   24300       1
   24243   24216  -24240   24258       1   24243   24261   24258   24273       1
   24243   24261   24276   24300       1   24243   24264   24279   24306       1
   24243   24264  -24282   24288       1   24243   24264   24282   24312       1
   24243   24267   24285   24318       1   24243   24267  -24288   24282       1
   24243   24267   24288   24321       1   24240   24216  -24243   24261       7
   24240   24216   24243   24264       7   24240   24216   24243   24267       7
   24240   24258  -24261   24243       1   24240   24258   24261   24276       1
   24240   24258   24273   24294       1   24234   24249   24270   24291       3
   24228   24249   24270   24291       3   24222   24240   24216   24243       1
   24222   24240   24258   24261       5   24222   24240   24258   24273       5
   24216   24240  -24258   24261       5   24216   24240   24258   24273       5
   24216   24243  -24261   24258       7   24216   24243   24261   24276       6
   24216   24243   24264   24279       6   24216   24243   24264   24282       7
   24216   24243   24267   24285       6   24216   24243   24267   24288       7
   24213   24201   24210   24228       1   24213   24234  -24249   24228       1
   24213   24234   24249   24270       1   24210   24201   24213   24234       1
   24210   24228  -24249   24234       1   24210   24228   24249   24270       1
   24207   24198   24204   24216       1   24207   24222  -24240   24216       1
   24207   24222   24240   24258       1   24204   24198   24207   24222       1
   24204   24216  -24240   24222       1   24204   24216   24240   24258       1
   24204   24216   24243   24261       6   24204   24216   24243   24264       6
   24204   24216   24243   24267       6   24201   24195   24198   24204       4
   24201   24195   24198   24207       4   24201   24210   24228   24249       1
   24201   24213  -24234   24249       1   24198   24195   24201   24210       4
   24198   24195   24201   24213       4   24198   24204   24216   24240       1
   24198   24204   24216   24243       1   24198   24207  -24222   24240       1
   24195   24198   24204   24216       1   24195   24198   24207   24222       1
   24195   24201   24210   24228       1   24195   24201   24213   24234       1
   24186   24195   24198   24204       4   24186   24195   24198   24207       4
   24186   24195   24201   24210       4   24186   24195   24201   24213       4
   24180   24186   24195   24198       4   24180   24186   24195   24201       4
   24174   24186   24195   24198       4   24174   24186   24195   24201       4
   24162   24153   24159   24174       1   24162   24180  -24186   24174       1
   24162   24180   24186   24195       1   24159   24153   24162   24180       1
   24159   24174  -24186   24180       1   24159   24174   24186   24195       1
   24156   24150   24153   24159       3   24156   24150   24153   24162       3
   24153   24159   24174   24186       1   24153   24162  -24180   24186       1
   24150   24153   24159   24174       1   24150   24153   24162   24180       1
   24966   25017   25041   25059       3   24960   25017   25041   25059       3
   24954   25008   25038   25056       3   24948   25008   25038   25056       3
   24942   24999   25035   25053       3   24936   24999   25035   25053       3
   24930   24993   25032   25050       3   24924   24993   25032   25050       3
   24921   24981   25029   25047       3   24915   24981   25029   25047       3
   24906   24972   25026   25044       3   24900   24972   25026   25044       3
   24897   24858   24894   24960       1   24897   24966  -25017   24960       1
   24897   24966   25017   25041       1   24894   24858   24897   24966       1
   24894   24960  -25017   24966       1   24894   24960   25017   25041       1
   24891   24855   24888   24948       1   24891   24954  -25008   24948       1
   24891   24954   25008   25038       1   24888   24855   24891   24954       1
   24888   24948  -25008   24954       1   24888   24948   25008   25038       1
   24885   24849   24882   24936       1   24885   24942  -24999   24936       1
   24885   24942   24999   25035       1   24882   24849   24885   24942       1
   24882   24936  -24999   24942       1   24882   24936   24999   25035       1
   24879   24846   24876   24924       1   24879   24930  -24993   24924       1
   24879   24930   24993   25032       1   24876   24846   24879   24930       1
   24876   24924  -24993   24930       1   24876   24924   24993   25032       1
   24873   24843   24870   24915       1   24873   24921  -24981   24915       1
   24873   24921   24981   25029       1   24870   24843   24873   24921       1
   24870   24915  -24981   24921       1   24870   24915   24981   25029       1
   24867   24840   24864   24900       1   24867   24906  -24972   24900       1
   24867   24906   24972   25026       1   24864   24840   24867   24906       1
   24864   24900  -24972   24906       1   24864   24900   24972   25026       1
   24858   24831   24855   24888       4   24858   24831   24855   24891       4
   24858   24894   24960   25017       1   24858   24897  -24966   25017       1
   24855   24831   24858   24894       4   24855   24831   24858   24897       4
   24855   24888   24948   25008       1   24855   24891  -24954   25008       1
   24849   24822   24846   24876       4   24849   24822   24846   24879       4
   24849   24882   24936   24999       1   24849   24885  -24942   24999       1
   24846   24822   24849   24882       4   24846   24822   24849   24885       4
   24846   24876   24924   24993       1   24846   24879  -24930   24993       1
   24843   24819   24840   24864       4   24843   24819   24840   24867       4
   24843   24870   24915   24981       1   24843   24873  -24921   24981       1
   24840   24819   24843   24870       4   24840   24819   24843   24873       4
   24840   24864   24900   24972       1   24840   24867  -24906   24972       1
   24834   24801   24831   24855       4   24834   24801   24831   24858       4
   24831   24855   24888   24948       1   24831   24855   24891   24954       1
   24831   24858   24894   24960       1   24831   24858   24897   24966       1
   24825   24789   24822   24846       4   24825   24789   24822   24849       4
   24822   24846   24876   24924       1   24822   24846   24879   24930       1
   24822   24849   24882   24936       1   24822   24849   24885   24942       1
   24819   24840   24864   24900       1   24819   24840   24867   24906       1
   24819   24843   24870   24915       1   24819   24843   24873   24921       1
   24804   24834   24801   24831       1   24801   24831   24855   24888       4
   24801   24831   24855   24891       4   24801   24831   24858   24894       4
   24801   24831   24858   24897       4   24795   24765   24771   24804       5
   24795   24825   24789   24822       1   24789   24822   24846   24876       4
   24789   24822   24846   24879       4   24789   24822   24849   24882       4
   24789   24822   24849   24885       4   24783   24819   24840   24864       4
   24783   24819   24840   24867       4   24783   24819   24843   24870       4
   24783   24819   24843   24873       4   24777   24783   24819   24840       4
   24777   24783   24819   24843       4   24771   24750   24768   24801       1
   24771   24765   24795   24825       1   24771   24804  -24834   24801       1
   24768   24750   24771   24804       1   24768   24801   24831   24855       4
   24768   24801   24831   24858       4   24768   24801  -24834   24804       1
   24765   24747   24762   24789       1   24765   24771   24750   24768       1
   24765   24771   24804   24834       1   24765   24795  -24825   24789       1
   24762   24747   24765   24771       1   24762   24747   24765   24795       1
   24762   24789   24822   24846       4   24762   24789   24822   24849       4
   24762   24789  -24825   24795       1   24759   24783   24819   24840       4
   24759   24783   24819   24843       4   24756   24741   24744   24759       1
   24756   24777  -24783   24759       1   24756   24777   24783   24819       1
   24750   24726   24744   24759       6   24750   24726   24747   24762       6
   24750   24726  -24747   24765       7   24750   24768   24801   24831       1
   24750   24768   24801   24834       1   24750   24771   24765   24795       5
   24750   24771  -24804   24834       1   24747   24726   24744   24759       6
   24747   24726   24750   24768       6   24747   24726  -24750   24771       7
   24747   24762   24789   24822       1   24747   24762   24789   24825       1
   24747   24765  -24771   24750       5   24747   24765   24771   24804       5
   24747   24765  -24795   24825       1   24744   24726   24747   24762       6
   24744   24726   24747   24765       7   24744   24726   24750   24768       6
   24744   24726   24750   24771       7   24744   24741   24756   24777       1
   24744   24759  -24783   24777       1   24744   24759   24783   24819       1
   24741   24744   24726   24747       7   24741   24744   24726   24750       7
   24741   24744   24759   24783       1   24741   24756  -24777   24783       1
   24726   24699  -24723   24741       1   24726   24744   24741   24756       1
   24726   24744   24759   24783       1   24726   24747   24762   24789       1
   24726   24747  -24765   24771       1   24726   24747   24765   24795       1
   24726   24750   24768   24801       1   24726   24750  -24771   24765       1
   24726   24750   24771   24804       1   24723   24699  -24726   24744       7
   24723   24699   24726   24747       7   24723   24699   24726   24750       7
   24723   24741  -24744   24726       1   24723   24741   24744   24759       1
   24723   24741   24756   24777       1   24717   24732   24753   24774       3
   24711   24732   24753   24774       3   24705   24723   24699   24726       1
   24705   24723   24741   24744       5   24705   24723   24741   24756       5
   24699   24723  -24741   24744       5   24699   24723   24741   24756       5
   24699   24726  -24744   24741       7   24699   24726   24744   24759       6
   24699   24726   24747   24762       6   24699   24726   24747   24765       7
   24699   24726   24750   24768       6   24699   24726   24750   24771       7
   24696   24684   24693   24711       1   24696   24717  -24732   24711       1
   24696   24717   24732   24753       1   24693   24684   24696   24717       1
   24693   24711  -24732   24717       1   24693   24711   24732   24753       1
   24690   24681   24687   24699       1   24690   24705  -24723   24699       1
   24690   24705   24723   24741       1   24687   24681   24690   24705       1
   24687   24699  -24723   24705       1   24687   24699   24723   24741       1
   24687   24699   24726   24744       6   24687   24699   24726   24747       6
   24687   24699   24726   24750       6   24684   24678   24681   24687       4
   24684   24678   24681   24690       4   24684   24693   24711   24732       1
   24684   24696  -24717   24732       1   24681   24678   24684   24693       4
   24681   24678   24684   24696       4   24681   24687   24699   24723       1
   24681   24687   24699   24726       1   24681   24690  -24705   24723       1
   24678   24681   24687   24699       1   24678   24681   24690   24705       1
   24678   24684   24693   24711       1   24678   24684   24696   24717       1
   24669   24678   24681   24687       4   24669   24678   24681   24690       4
   24669   24678   24684   24693       4   24669   24678   24684   24696       4
   24663   24669   24678   24681       4   24663   24669   24678   24684       4
   24657   24669   24678   24681       4   24657   24669   24678   24684       4
   24645   24636   24642   24657       1   24645   24663  -24669   24657       1
   24645   24663   24669   24678       1   24642   24636   24645   24663       1
   24642   24657  -24669   24663       1   24642   24657   24669   24678       1
   24639   24633   24636   24642       3   24639   24633   24636   24645       3
   24636   24642   24657   24669       1   24636   24645  -24663   24669       1
   24633   24636   24642   24657       1   24633   24636   24645   24663       1
   25449   25500   25524   25542       3   25443   25500   25524   25542       3
   25437   25491   25521   25539       3   25431   25491   25521   25539       3
   25425   25482   25518   25536       3   25419   25482   25518   25536       3
   25413   25476   25515   25533       3   25407   25476   25515   25533       3
   25404   25464   25512   25530       3   25398   25464   25512   25530       3
   25389   25455   25509   25527       3   25383   25455   25509   25527       3
   25380   25341   25377   25443       1   25380   25449  -25500   25443       1
   25380   25449   25500   25524       1   25377   25341   25380   25449       1
   25377   25443  -25500   25449       1   25377   25443   25500   25524       1
   25374   25338   25371   25431       1   25374   25437  -25491   25431       1
   25374   25437   25491   25521       1   25371   25338   25374   25437       1
   25371   25431  -25491   25437       1   25371   25431   25491   25521       1
   25368   25332   25365   25419       1   25368   25425  -25482   25419       1
   25368   25425   25482   25518       1   25365   25332   25368   25425       1
   25365   25419  -25482   25425       1   25365   25419   25482   25518       1
   25362   25329   25359   25407       1   25362   25413  -25476   25407       1
   25362   25413   25476   25515       1   25359   25329   25362   25413       1
   25359   25407  -25476   25413       1   25359   25407   25476   25515       1
   25356   25326   25353   25398       1   25356   25404  -25464   25398       1
   25356   25404   25464   25512       1   25353   25326   25356   25404       1
   25353   25398  -25464   25404       1   25353   25398   25464   25512       1
   25350   25323   25347   25383       1   25350   25389  -25455   25383       1
   25350   25389   25455   25509       1   25347   25323   25350   25389       1
   25347   25383  -25455   25389       1   25347   25383   25455   25509       1
   25341   25314   25338   25371       4   25341   25314   25338   25374       4
   25341   25377   25443   25500       1   25341   25380  -25449   25500       1
   25338   25314   25341   25377       4   25338   25314   25341   25380       4
   25338   25371   25431   25491       1   25338   25374  -25437   25491       1
   25332   25305   25329   25359       4   25332   25305   25329   25362       4
   25332   25365   25419   25482       1   25332   25368  -25425   25482       1
   25329   25305   25332   25365       4   25329   25305   25332   25368       4
   25329   25359   25407   25476       1   25329   25362  -25413   25476       1
   25326   25302   25323   25347       4   25326   25302   25323   25350       4
   25326   25353   25398   25464       1   25326   25356  -25404   25464       1
   25323   25302   25326   25353       4   25323   25302   25326   25356       4
   25323   25347   25383   25455       1   25323   25350  -25389   25455       1
   25317   25284   25314   25338       4   25317   25284   25314   25341       4
   25314   25338   25371   25431       1   25314   25338   25374   25437       1
   25314   25341   25377   25443       1   25314   25341   25380   25449       1
   25308   25272   25305   25329       4   25308   25272   25305   25332       4
   25305   25329   25359   25407       1   25305   25329   25362   25413       1
   25305   25332   25365   25419       1   25305   25332   25368   25425       1
   25302   25323   25347   25383       1   25302   25323   25350   25389       1
   25302   25326   25353   25398       1   25302   25326   25356   25404       1
   25287   25317   25284   25314       1   25284   25314   25338   25371       4
   25284   25314   25338   25374       4   25284   25314   25341   25377       4
   25284   25314   25341   25380       4   25278   25248   25254   25287       5
   25278   25308   25272   25305       1   25272   25305   25329   25359       4
   25272   25305   25329   25362       4   25272   25305   25332   25365       4
   25272   25305   25332   25368       4   25266   25302   25323   25347       4
   25266   25302   25323   25350       4   25266   25302   25326   25353       4
   25266   25302   25326   25356       4   25260   25266   25302   25323       4
   25260   25266   25302   25326       4   25254   25233   25251   25284       1
   25254   25248   25278   25308       1   25254   25287  -25317   25284       1
   25251   25233   25254   25287       1   25251   25284   25314   25338       4
   25251   25284   25314   25341       4   25251   25284  -25317   25287       1
   25248   25230   25245   25272       1   25248   25254   25233   25251       1
   25248   25254   25287   25317       1   25248   25278  -25308   25272       1
   25245   25230   25248   25254       1   25245   25230   25248   25278       1
   25245   25272   25305   25329       4   25245   25272   25305   25332       4
   25245   25272  -25308   25278       1   25242   25266   25302   25323       4
   25242   25266   25302   25326       4   25239   25224   25227   25242       1
   25239   25260  -25266   25242       1   25239   25260   25266   25302       1
   25233   25209   25227   25242       6   25233   25209   25230   25245       6
   25233   25209  -25230   25248       7   25233   25251   25284   25314       1
   25233   25251   25284   25317       1   25233   25254   25248   25278       5
   25233   25254  -25287   25317       1   25230   25209   25227   25242       6
   25230   25209   25233   25251       6   25230   25209  -25233   25254       7
   25230   25245   25272   25305       1   25230   25245   25272   25308       1
   25230   25248  -25254   25233       5   25230   25248   25254   25287       5
   25230   25248  -25278   25308       1   25227   25209   25230   25245       6
   25227   25209   25230   25248       7   25227   25209   25233   25251       6
   25227   25209   25233   25254       7   25227   25224   25239   25260       1
   25227   25242  -25266   25260       1   25227   25242   25266   25302       1
   25224   25227   25209   25230       7   25224   25227   25209   25233       7
   25224   25227   25242   25266       1   25224   25239  -25260   25266       1
   25209   25182  -25206   25224       1   25209   25227   25224   25239       1
   25209   25227   25242   25266       1   25209   25230   25245   25272       1
   25209   25230  -25248   25254       1   25209   25230   25248   25278       1
   25209   25233   25251   25284       1   25209   25233  -25254   25248       1
   25209   25233   25254   25287       1   25206   25182  -25209   25227       7
   25206   25182   25209   25230       7   25206   25182   25209   25233       7
   25206   25224  -25227   25209       1   25206   25224   25227   25242       1
   25206   25224   25239   25260       1   25200   25215   25236   25257       3
   25194   25215   25236   25257       3   25188   25206   25182   25209       1
   25188   25206   25224   25227       5   25188   25206   25224   25239       5
   25182   25206  -25224   25227       5   25182   25206   25224   25239       5
   25182   25209  -25227   25224       7   25182   25209   25227   25242       6
   25182   25209   25230   25245       6   25182   25209   25230   25248       7
   25182   25209   25233   25251       6   25182   25209   25233   25254       7
   25179   25167   25176   25194       1   25179   25200  -25215   25194       1
   25179   25200   25215   25236       1   25176   25167   25179   25200       1
   25176   25194  -25215   25200       1   25176   25194   25215   25236       1
   25173   25164   25170   25182       1   25173   25188  -25206   25182       1
   25173   25188   25206   25224       1   25170   25164   25173   25188       1
   25170   25182  -25206   25188       1   25170   25182   25206   25224       1
   25170   25182   25209   25227       6   25170   25182   25209   25230       6
   25170   25182   25209   25233       6   25167   25161   25164   25170       4
   25167   25161   25164   25173       4   25167   25176   25194   25215       1
   25167   25179  -25200   25215       1   25164   25161   25167   25176       4
   25164   25161   25167   25179       4   25164   25170   25182   25206       1
   25164   25170   25182   25209       1   25164   25173  -25188   25206       1
   25161   25164   25170   25182       1   25161   25164   25173   25188       1
   25161   25167   25176   25194       1   25161   25167   25179   25200       1
   25152   25161   25164   25170       4   25152   25161   25164   25173       4
   25152   25161   25167   25176       4   25152   25161   25167   25179       4
   25146   25152   25161   25164       4   25146   25152   25161   25167       4
   25140   25152   25161   25164       4   25140   25152   25161   25167       4
   25128   25119   25125   25140       1   25128   25146  -25152   25140       1
   25128   25146   25152   25161       1   25125   25119   25128   25146       1
   25125   25140  -25152   25146       1   25125   25140   25152   25161       1
   25122   25116   25119   25125       3   25122   25116   25119   25128       3
   25119   25125   25140   25152       1   25119   25128  -25146   25152       1
   25116   25119   25125   25140       1   25116   25119   25128   25146       1
   25932   25983   26007   26025       3   25926   25983   26007   26025       3
   25920   25974   26004   26022       3   25914   25974   26004   26022       3
   25908   25965   26001   26019       3   25902   25965   26001   26019       3
   25896   25959   25998   26016       3   25890   25959   25998   26016       3
   25887   25947   25995   26013       3   25881   25947   25995   26013       3
   25872   25938   25992   26010       3   25866   25938   25992   26010       3
   25863   25824   25860   25926       1   25863   25932  -25983   25926       1
   25863   25932   25983   26007       1   25860   25824   25863   25932       1
   25860   25926  -25983   25932       1   25860   25926   25983   26007       1
   25857   25821   25854   25914       1   25857   25920  -25974   25914       1
   25857   25920   25974   26004       1   25854   25821   25857   25920       1
   25854   25914  -25974   25920       1   25854   25914   25974   26004       1
   25851   25815   25848   25902       1   25851   25908  -25965   25902       1
   25851   25908   25965   26001       1   25848   25815   25851   25908       1
   25848   25902  -25965   25908       1   25848   25902   25965   26001       1
   25845   25812   25842   25890       1   25845   25896  -25959   25890       1
   25845   25896   25959   25998       1   25842   25812   25845   25896       1
   25842   25890  -25959   25896       1   25842   25890   25959   25998       1
   25839   25809   25836   25881       1   25839   25887  -25947   25881       1
   25839   25887   25947   25995       1   25836   25809   25839   25887       1
   25836   25881  -25947   25887       1   25836   25881   25947   25995       1
   25833   25806   25830   25866       1   25833   25872  -25938   25866       1
   25833   25872   25938   25992       1   25830   25806   25833   25872       1
   25830   25866  -25938   25872       1   25830   25866   25938   25992       1
   25824   25797   25821   25854       4   25824   25797   25821   25857       4
   25824   25860   25926   25983       1   25824   25863  -25932   25983       1
   25821   25797   25824   25860       4   25821   25797   25824   25863       4
   25821   25854   25914   25974       1   25821   25857  -25920   25974       1
   25815   25788   25812   25842       4   25815   25788   25812   25845       4
   25815   25848   25902   25965       1   25815   25851  -25908   25965       1
   25812   25788   25815   25848       4   25812   25788   25815   25851       4
   25812   25842   25890   25959       1   25812   25845  -25896   25959       1
   25809   25785   25806   25830       4   25809   25785   25806   25833       4
   25809   25836   25881   25947       1   25809   25839  -25887   25947       1
   25806   25785   25809   25836       4   25806   25785   25809   25839       4
   25806   25830   25866   25938       1   25806   25833  -25872   25938       1
   25800   25767   25797   25821       4   25800   25767   25797   25824       4
   25797   25821   25854   25914       1   25797   25821   25857   25920       1
   25797   25824   25860   25926       1   25797   25824   25863   25932       1
   25791   25755   25788   25812       4   25791   25755   25788   25815       4
   25788   25812   25842   25890       1   25788   25812   25845   25896       1
   25788   25815   25848   25902       1   25788   25815   25851   25908       1
   25785   25806   25830   25866       1   25785   25806   25833   25872       1
   25785   25809   25836   25881       1   25785   25809   25839   25887       1
   25770   25800   25767   25797       1   25767   25797   25821   25854       4
   25767   25797   25821   25857       4   25767   25797   25824   25860       4
   25767   25797   25824   25863       4   25761   25731   25737   25770       5
   25761   25791   25755   25788       1   25755   25788   25812   25842       4
   25755   25788   25812   25845       4   25755   25788   25815   25848       4
   25755   25788   25815   25851       4   25749   25785   25806   25830       4
   25749   25785   25806   25833       4   25749   25785   25809   25836       4
   25749   25785   25809   25839       4   25743   25749   25785   25806       4
   25743   25749   25785   25809       4   25737   25716   25734   25767       1
   25737   25731   25761   25791       1   25737   25770  -25800   25767       1
   25734   25716   25737   25770       1   25734   25767   25797   25821       4
   25734   25767   25797   25824       4   25734   25767  -25800   25770       1
   25731   25713   25728   25755       1   25731   25737   25716   25734       1
   25731   25737   25770   25800       1   25731   25761  -25791   25755       1
   25728   25713   25731   25737       1   25728   25713   25731   25761       1
   25728   25755   25788   25812       4   25728   25755   25788   25815       4
   25728   25755  -25791   25761       1   25725   25749   25785   25806       4
   25725   25749   25785   25809       4   25722   25707   25710   25725       1
   25722   25743  -25749   25725       1   25722   25743   25749   25785       1
   25716   25692   25710   25725       6   25716   25692   25713   25728       6
   25716   25692  -25713   25731       7   25716   25734   25767   25797       1
   25716   25734   25767   25800       1   25716   25737   25731   25761       5
   25716   25737  -25770   25800       1   25713   25692   25710   25725       6
   25713   25692   25716   25734       6   25713   25692  -25716   25737       7
   25713   25728   25755   25788       1   25713   25728   25755   25791       1
   25713   25731  -25737   25716       5   25713   25731   25737   25770       5
   25713   25731  -25761   25791       1   25710   25692   25713   25728       6
   25710   25692   25713   25731       7   25710   25692   25716   25734       6
   25710   25692   25716   25737       7   25710   25707   25722   25743       1
   25710   25725  -25749   25743       1   25710   25725   25749   25785       1
   25707   25710   25692   25713       7   25707   25710   25692   25716       7
   25707   25710   25725   25749       1   25707   25722  -25743   25749       1
   25692   25665  -25689   25707       1   25692   25710   25707   25722       1
   25692   25710   25725   25749       1   25692   25713   25728   25755       1
   25692   25713  -25731   25737       1   25692   25713   25731   25761       1
   25692   25716   25734   25767       1   25692   25716  -25737   25731       1
   25692   25716   25737   25770       1   25689   25665  -25692   25710       7
   25689   25665   25692   25713       7   25689   25665   25692   25716       7
   25689   25707  -25710   25692       1   25689   25707   25710   25725       1
   25689   25707   25722   25743       1   25683   25698   25719   25740       3
   25677   25698   25719   25740       3   25671   25689   25665   25692       1
   25671   25689   25707   25710       5   25671   25689   25707   25722       5
   25665   25689  -25707   25710       5   25665   25689   25707   25722       5
   25665   25692  -25710   25707       7   25665   25692   25710   25725       6
   25665   25692   25713   25728       6   25665   25692   25713   25731       7
   25665   25692   25716   25734       6   25665   25692   25716   25737       7
   25662   25650   25659   25677       1   25662   25683  -25698   25677       1
   25662   25683   25698   25719       1   25659   25650   25662   25683       1
   25659   25677  -25698   25683       1   25659   25677   25698   25719       1
   25656   25647   25653   25665       1   25656   25671  -25689   25665       1
   25656   25671   25689   25707       1   25653   25647   25656   25671       1
   25653   25665  -25689   25671       1   25653   25665   25689   25707       1
   25653   25665   25692   25710       6   25653   25665   25692   25713       6
   25653   25665   25692   25716       6   25650   25644   25647   25653       4
   25650   25644   25647   25656       4   25650   25659   25677   25698       1
   25650   25662  -25683   25698       1   25647   25644   25650   25659       4
   25647   25644   25650   25662       4   25647   25653   25665   25689       1
   25647   25653   25665   25692       1   25647   25656  -25671   25689       1
   25644   25647   25653   25665       1   25644   25647   25656   25671       1
   25644   25650   25659   25677       1   25644   25650   25662   25683       1
   25635   25644   25647   25653       4   25635   25644   25647   25656       4
   25635   25644   25650   25659       4   25635   25644   25650   25662       4
   25629   25635   25644   25647       4   25629   25635   25644   25650       4
   25623   25635   25644   25647       4   25623   25635   25644   25650       4
   25611   25602   25608   25623       1   25611   25629  -25635   25623       1
   25611   25629   25635   25644       1   25608   25602   25611   25629       1
   25608   25623  -25635   25629       1   25608   25623   25635   25644       1
   25605   25599   25602   25608       3   25605   25599   25602   25611       3
   25602   25608   25623   25635       1   25602   25611  -25629   25635       1
   25599   25602   25608   25623       1   25599   25602   25611   25629       1
   26415   26466   26490   26508       3   26409   26466   26490   26508       3
   26403   26457   26487   26505       3   26397   26457   26487   26505       3
   26391   26448   26484   26502       3   26385   26448   26484   26502       3
   26379   26442   26481   26499       3   26373   26442   26481   26499       3
   26370   26430   26478   26496       3   26364   26430   26478   26496       3
   26355   26421   26475   26493       3   26349   26421   26475   26493       3
   26346   26307   26343   26409       1   26346   26415  -26466   26409       1
   26346   26415   26466   26490       1   26343   26307   26346   26415       1
   26343   26409  -26466   26415       1   26343   26409   26466   26490       1
   26340   26304   26337   26397       1   26340   26403  -26457   26397       1
   26340   26403   26457   26487       1   26337   26304   26340   26403       1
   26337   26397  -26457   26403       1   26337   26397   26457   26487       1
   26334   26298   26331   26385       1   26334   26391  -26448   26385       1
   26334   26391   26448   26484       1   26331   26298   26334   26391       1
   26331   26385  -26448   26391       1   26331   26385   26448   26484       1
   26328   26295   26325   26373       1   26328   26379  -26442   26373       1
   26328   26379   26442   26481       1   26325   26295   26328   26379       1
   26325   26373  -26442   26379       1   26325   26373   26442   26481       1
   26322   26292   26319   26364       1   26322   26370  -26430   26364       1
   26322   26370   26430   26478       1   26319   26292   26322   26370       1
   26319   26364  -26430   26370       1   26319   26364   26430   26478       1
   26316   26289   26313   26349       1   26316   26355  -26421   26349       1
   26316   26355   26421   26475       1   26313   26289   26316   26355       1
   26313   26349  -26421   26355       1   26313   26349   26421   26475       1
   26307   26280   26304   26337       4   26307   26280   26304   26340       4
   26307   26343   26409   26466       1   26307   26346  -26415   26466       1
   26304   26280   26307   26343       4   26304   26280   26307   26346       4
   26304   26337   26397   26457       1   26304   26340  -26403   26457       1
   26298   26271   26295   26325       4   26298   26271   26295   26328       4
   26298   26331   26385   26448       1   26298   26334  -26391   26448       1
   26295   26271   26298   26331       4   26295   26271   26298   26334       4
   26295   26325   26373   26442       1   26295   26328  -26379   26442       1
   26292   26268   26289   26313       4   26292   26268   26289   26316       4
   26292   26319   26364   26430       1   26292   26322  -26370   26430       1
   26289   26268   26292   26319       4   26289   26268   26292   26322       4
   26289   26313   26349   26421       1   26289   26316  -26355   26421       1
   26283   26250   26280   26304       4   26283   26250   26280   26307       4
   26280   26304   26337   26397       1   26280   26304   26340   26403       1
   26280   26307   26343   26409       1   26280   26307   26346   26415       1
   26274   26238   26271   26295       4   26274   26238   26271   26298       4
   26271   26295   26325   26373       1   26271   26295   26328   26379       1
   26271   26298   26331   26385       1   26271   26298   26334   26391       1
   26268   26289   26313   26349       1   26268   26289   26316   26355       1
   26268   26292   26319   26364       1   26268   26292   26322   26370       1
   26253   26283   26250   26280       1   26250   26280   26304   26337       4
   26250   26280   26304   26340       4   26250   26280   26307   26343       4
   26250   26280   26307   26346       4   26244   26214   26220   26253       5
   26244   26274   26238   26271       1   26238   26271   26295   26325       4
   26238   26271   26295   26328       4   26238   26271   26298   26331       4
   26238   26271   26298   26334       4   26232   26268   26289   26313       4
   26232   26268   26289   26316       4   26232   26268   26292   26319       4
   26232   26268   26292   26322       4   26226   26232   26268   26289       4
   26226   26232   26268   26292       4   26220   26199   26217   26250       1
   26220   26214   26244   26274       1   26220   26253  -26283   26250       1
   26217   26199   26220   26253       1   26217   26250   26280   26304       4
   26217   26250   26280   26307       4   26217   26250  -26283   26253       1
   26214   26196   26211   26238       1   26214   26220   26199   26217       1
   26214   26220   26253   26283       1   26214   26244  -26274   26238       1
   26211   26196   26214   26220       1   26211   26196   26214   26244       1
   26211   26238   26271   26295       4   26211   26238   26271   26298       4
   26211   26238  -26274   26244       1   26208   26232   26268   26289       4
   26208   26232   26268   26292       4   26205   26190   26193   26208       1
   26205   26226  -26232   26208       1   26205   26226   26232   26268       1
   26199   26175   26193   26208       6   26199   26175   26196   26211       6
   26199   26175  -26196   26214       7   26199   26217   26250   26280       1
   26199   26217   26250   26283       1   26199   26220   26214   26244       5
   26199   26220  -26253   26283       1   26196   26175   26193   26208       6
   26196   26175   26199   26217       6   26196   26175  -26199   26220       7
   26196   26211   26238   26271       1   26196   26211   26238   26274       1
   26196   26214  -26220   26199       5   26196   26214   26220   26253       5
   26196   26214  -26244   26274       1   26193   26175   26196   26211       6
   26193   26175   26196   26214       7   26193   26175   26199   26217       6
   26193   26175   26199   26220       7   26193   26190   26205   26226       1
   26193   26208  -26232   26226       1   26193   26208   26232   26268       1
   26190   26193   26175   26196       7   26190   26193   26175   26199       7
   26190   26193   26208   26232       1   26190   26205  -26226   26232       1
   26175   26148  -26172   26190       1   26175   26193   26190   26205       1
   26175   26193   26208   26232       1   26175   26196   26211   26238       1
   26175   26196  -26214   26220       1   26175   26196   26214   26244       1
   26175   26199   26217   26250       1   26175   26199  -26220   26214       1
   26175   26199   26220   26253       1   26172   26148  -26175   26193       7
   26172   26148   26175   26196       7   26172   26148   26175   26199       7
   26172   26190  -26193   26175       1   26172   26190   26193   26208       1
   26172   26190   26205   26226       1   26166   26181   26202   26223       3
   26160   26181   26202   26223       3   26154   26172   26148   26175       1
   26154   26172   26190   26193       5   26154   26172   26190   26205       5
   26148   26172  -26190   26193       5   26148   26172   26190   26205       5
   26148   26175  -26193   26190       7   26148   26175   26193   26208       6
   26148   26175   26196   26211       6   26148   26175   26196   26214       7
   26148   26175   26199   26217       6   26148   26175   26199   26220       7
   26145   26133   26142   26160       1   26145   26166  -26181   26160       1
   26145   26166   26181   26202       1   26142   26133   26145   26166       1
   26142   26160  -26181   26166       1   26142   26160   26181   26202       1
   26139   26130   26136   26148       1   26139   26154  -26172   26148       1
   26139   26154   26172   26190       1   26136   26130   26139   26154       1
   26136   26148  -26172   26154       1   26136   26148   26172   26190       1
   26136   26148   26175   26193       6   26136   26148   26175   26196       6
   26136   26148   26175   26199       6   26133   26127   26130   26136       4
   26133   26127   26130   26139       4   26133   26142   26160   26181       1
   26133   26145  -26166   26181       1   26130   26127   26133   26142       4
   26130   26127   26133   26145       4   26130   26136   26148   26172       1
   26130   26136   26148   26175       1   26130   26139  -26154   26172       1
   26127   26130   26136   26148       1   26127   26130   26139   26154       1
   26127   26133   26142   26160       1   26127   26133   26145   26166       1
   26118   26127   26130   26136       4   26118   26127   26130   26139       4
   26118   26127   26133   26142       4   26118   26127   26133   26145       4
   26112   26118   26127   26130       4   26112   26118   26127   26133       4
   26106   26118   26127   26130       4   26106   26118   26127   26133       4
   26094   26085   26091   26106       1   26094   26112  -26118   26106       1
   26094   26112   26118   26127       1   26091   26085   26094   26112       1
   26091   26106  -26118   26112       1   26091   26106   26118   26127       1
   26088   26082   26085   26091       3   26088   26082   26085   26094       3
   26085   26091   26106   26118       1   26085   26094  -26112   26118       1
   26082   26085   26091   26106       1   26082   26085   26094   26112       1
   26898   26949   26973   26991       3   26892   26949   26973   26991       3
   26886   26940   26970   26988       3   26880   26940   26970   26988       3
   26874   26931   26967   26985       3   26868   26931   26967   26985       3
   26862   26925   26964   26982       3   26856   26925   26964   26982       3
   26853   26913   26961   26979       3   26847   26913   26961   26979       3
   26838   26904   26958   26976       3   26832   26904   26958   26976       3
   26829   26790   26826   26892       1   26829   26898  -26949   26892       1
   26829   26898   26949   26973       1   26826   26790   26829   26898       1
   26826   26892  -26949   26898       1   26826   26892   26949   26973       1
   26823   26787   26820   26880       1   26823   26886  -26940   26880       1
   26823   26886   26940   26970       1   26820   26787   26823   26886       1
   26820   26880  -26940   26886       1   26820   26880   26940   26970       1
   26817   26781   26814   26868       1   26817   26874  -26931   26868       1
   26817   26874   26931   26967       1   26814   26781   26817   26874       1
   26814   26868  -26931   26874       1   26814   26868   26931   26967       1
   26811   26778   26808   26856       1   26811   26862  -26925   26856       1
   26811   26862   26925   26964       1   26808   26778   26811   26862       1
   26808   26856  -26925   26862       1   26808   26856   26925   26964       1
   26805   26775   26802   26847       1   26805   26853  -26913   26847       1
   26805   26853   26913   26961       1   26802   26775   26805   26853       1
   26802   26847  -26913   26853       1   26802   26847   26913   26961       1
   26799   26772   26796   26832       1   26799   26838  -26904   26832       1
   26799   26838   26904   26958       1   26796   26772   26799   26838       1
   26796   26832  -26904   26838       1   26796   26832   26904   26958       1
   26790   26763   26787   26820       4   26790   26763   26787   26823       4
   26790   26826   26892   26949       1   26790   26829  -26898   26949       1
   26787   26763   26790   26826       4   26787   26763   26790   26829       4
   26787   26820   26880   26940       1   26787   26823  -26886   26940       1
   26781   26754   26778   26808       4   26781   26754   26778   26811       4
   26781   26814   26868   26931       1   26781   26817  -26874   26931       1
   26778   26754   26781   26814       4   26778   26754   26781   26817       4
   26778   26808   26856   26925       1   26778   26811  -26862   26925       1
   26775   26751   26772   26796       4   26775   26751   26772   26799       4
   26775   26802   26847   26913       1   26775   26805  -26853   26913       1
   26772   26751   26775   26802       4   26772   26751   26775   26805       4
   26772   26796   26832   26904       1   26772   26799  -26838   26904       1
   26766   26733   26763   26787       4   26766   26733   26763   26790       4
   26763   26787   26820   26880       1   26763   26787   26823   26886       1
   26763   26790   26826   26892       1   26763   26790   26829   26898       1
   26757   26721   26754   26778       4   26757   26721   26754   26781       4
   26754   26778   26808   26856       1   26754   26778   26811   26862       1
   26754   26781   26814   26868       1   26754   26781   26817   26874       1
   26751   26772   26796   26832       1   26751   26772   26799   26838       1
   26751   26775   26802   26847       1   26751   26775   26805   26853       1
   26736   26766   26733   26763       1   26733   26763   26787   26820       4
   26733   26763   26787   26823       4   26733   26763   26790   26826       4
   26733   26763   26790   26829       4   26727   26697   26703   26736       5
   26727   26757   26721   26754       1   26721   26754   26778   26808       4
   26721   26754   26778   26811       4   26721   26754   26781   26814       4
   26721   26754   26781   26817       4   26715   26751   26772   26796       4
   26715   26751   26772   26799       4   26715   26751   26775   26802       4
   26715   26751   26775   26805       4   26709   26715   26751   26772       4
   26709   26715   26751   26775       4   26703   26682   26700   26733       1
   26703   26697   26727   26757       1   26703   26736  -26766   26733       1
   26700   26682   26703   26736       1   26700   26733   26763   26787       4
   26700   26733   26763   26790       4   26700   26733  -26766   26736       1
   26697   26679   26694   26721       1   26697   26703   26682   26700       1
   26697   26703   26736   26766       1   26697   26727  -26757   26721       1
   26694   26679   26697   26703       1   26694   26679   26697   26727       1
   26694   26721   26754   26778       4   26694   26721   26754   26781       4
   26694   26721  -26757   26727       1   26691   26715   26751   26772       4
   26691   26715   26751   26775       4   26688   26673   26676   26691       1
   26688   26709  -26715   26691       1   26688   26709   26715   26751       1
   26682   26658   26676   26691       6   26682   26658   26679   26694       6
   26682   26658  -26679   26697       7   26682   26700   26733   26763       1
   26682   26700   26733   26766       1   26682   26703   26697   26727       5
   26682   26703  -26736   26766       1   26679   26658   26676   26691       6
   26679   26658   26682   26700       6   26679   26658  -26682   26703       7
   26679   26694   26721   26754       1   26679   26694   26721   26757       1
   26679   26697  -26703   26682       5   26679   26697   26703   26736       5
   26679   26697  -26727   26757       1   26676   26658   26679   26694       6
   26676   26658   26679   26697       7   26676   26658   26682   26700       6
   26676   26658   26682   26703       7   26676   26673   26688   26709       1
   26676   26691  -26715   26709       1   26676   26691   26715   26751       1
   26673   26676   26658   26679       7   26673   26676   26658   26682       7
   26673   26676   26691   26715       1   26673   26688  -26709   26715       1
   26658   26631  -26655   26673       1   26658   26676   26673   26688       1
   26658   26676   26691   26715       1   26658   26679   26694   26721       1
   26658   26679  -26697   26703       1   26658   26679   26697   26727       1
   26658   26682   26700   26733       1   26658   26682  -26703   26697       1
   26658   26682   26703   26736       1   26655   26631  -26658   26676       7
   26655   26631   26658   26679       7   26655   26631   26658   26682       7
   26655   26673  -26676   26658       1   26655   26673   26676   26691       1
   26655   26673   26688   26709       1   26649   26664   26685   26706       3
   26643   26664   26685   26706       3   26637   26655   26631   26658       1
   26637   26655   26673   26676       5   26637   26655   26673   26688       5
   26631   26655  -26673   26676       5   26631   26655   26673   26688       5
   26631   26658  -26676   26673       7   26631   26658   26676   26691       6
   26631   26658   26679   26694       6   26631   26658   26679   26697       7
   26631   26658   26682   26700       6   26631   26658   26682   26703       7
   26628   26616   26625   26643       1   26628   26649  -26664   26643       1
   26628   26649   26664   26685       1   26625   26616   26628   26649       1
   26625   26643  -26664   26649       1   26625   26643   26664   26685       1
   26622   26613   26619   26631       1   26622   26637  -26655   26631       1
   26622   26637   26655   26673       1   26619   26613   26622   26637       1
   26619   26631  -26655   26637       1   26619   26631   26655   26673       1
   26619   26631   26658   26676       6   26619   26631   26658   26679       6
   26619   26631   26658   26682       6   26616   26610   26613   26619       4
   26616   26610   26613   26622       4   26616   26625   26643   26664       1
   26616   26628  -26649   26664       1   26613   26610   26616   26625       4
   26613   26610   26616   26628       4   26613   26619   26631   26655       1
   26613   26619   26631   26658       1   26613   26622  -26637   26655       1
   26610   26613   26619   26631       1   26610   26613   26622   26637       1
   26610   26616   26625   26643       1   26610   26616   26628   26649       1
   26601   26610   26613   26619       4   26601   26610   26613   26622       4
   26601   26610   26616   26625       4   26601   26610   26616   26628       4
   26595   26601   26610   26613       4   26595   26601   26610   26616       4
   26589   26601   26610   26613       4   26589   26601   26610   26616       4
   26577   26568   26574   26589       1   26577   26595  -26601   26589       1
   26577   26595   26601   26610       1   26574   26568   26577   26595       1
   26574   26589  -26601   26595       1   26574   26589   26601   26610       1
   26571   26565   26568   26574       3   26571   26565   26568   26577       3
   26568   26574   26589   26601       1   26568   26577  -26595   26601       1
   26565   26568   26574   26589       1   26565   26568   26577   26595       1
   27381   27432   27456   27474       3   27375   27432   27456   27474       3
   27369   27423   27453   27471       3   27363   27423   27453   27471       3
   27357   27414   27450   27468       3   27351   27414   27450   27468       3
   27345   27408   27447   27465       3   27339   27408   27447   27465       3
   27336   27396   27444   27462       3   27330   27396   27444   27462       3
   27321   27387   27441   27459       3   27315   27387   27441   27459       3
   27312   27273   27309   27375       1   27312   27381  -27432   27375       1
   27312   27381   27432   27456       1   27309   27273   27312   27381       1
   27309   27375  -27432   27381       1   27309   27375   27432   27456       1
   27306   27270   27303   27363       1   27306   27369  -27423   27363       1
   27306   27369   27423   27453       1   27303   27270   27306   27369       1
   27303   27363  -27423   27369       1   27303   27363   27423   27453       1
   27300   27264   27297   27351       1   27300   27357  -27414   27351       1
   27300   27357   27414   27450       1   27297   27264   27300   27357       1
   27297   27351  -27414   27357       1   27297   27351   27414   27450       1
   27294   27261   27291   27339       1   27294   27345  -27408   27339       1
   27294   27345   27408   27447       1   27291   27261   27294   27345       1
   27291   27339  -27408   27345       1   27291   27339   27408   27447       1
   27288   27258   27285   27330       1   27288   27336  -27396   27330       1
   27288   27336   27396   27444       1   27285   27258   27288   27336       1
   27285   27330  -27396   27336       1   27285   27330   27396   27444       1
   27282   27255   27279   27315       1   27282   27321  -27387   27315       1
   27282   27321   27387   27441       1   27279   27255   27282   27321       1
   27279   27315  -27387   27321       1   27279   27315   27387   27441       1
   27273   27246   27270   27303       4   27273   27246   27270   27306       4
   27273   27309   27375   27432       1   27273   27312  -27381   27432       1
   27270   27246   27273   27309       4   27270   27246   27273   27312       4
   27270   27303   27363   27423       1   27270   27306  -27369   27423       1
   27264   27237   27261   27291       4   27264   27237   27261   27294       4
   27264   27297   27351   27414       1   27264   27300  -27357   27414       1
   27261   27237   27264   27297       4   27261   27237   27264   27300       4
   27261   27291   27339   27408       1   27261   27294  -27345   27408       1
   27258   27234   27255   27279       4   27258   27234   27255   27282       4
   27258   27285   27330   27396       1   27258   27288  -27336   27396       1
   27255   27234   27258   27285       4   27255   27234   27258   27288       4
   27255   27279   27315   27387       1   27255   27282  -27321   27387       1
   27249   27216   27246   27270       4   27249   27216   27246   27273       4
   27246   27270   27303   27363       1   27246   27270   27306   27369       1
   27246   27273   27309   27375       1   27246   27273   27312   27381       1
   27240   27204   27237   27261       4   27240   27204   27237   27264       4
   27237   27261   27291   27339       1   27237   27261   27294   27345       1
   27237   27264   27297   27351       1   27237   27264   27300   27357       1
   27234   27255   27279   27315       1   27234   27255   27282   27321       1
   27234   27258   27285   27330       1   27234   27258   27288   27336       1
   27219   27249   27216   27246       1   27216   27246   27270   27303       4
   27216   27246   27270   27306       4   27216   27246   27273   27309       4
   27216   27246   27273   27312       4   27210   27180   27186   27219       5
   27210   27240   27204   27237       1   27204   27237   27261   27291       4
   27204   27237   27261   27294       4   27204   27237   27264   27297       4
   27204   27237   27264   27300       4   27198   27234   27255   27279       4
   27198   27234   27255   27282       4   27198   27234   27258   27285       4
   27198   27234   27258   27288       4   27192   27198   27234   27255       4
   27192   27198   27234   27258       4   27186   27165   27183   27216       1
   27186   27180   27210   27240       1   27186   27219  -27249   27216       1
   27183   27165   27186   27219       1   27183   27216   27246   27270       4
   27183   27216   27246   27273       4   27183   27216  -27249   27219       1
   27180   27162   27177   27204       1   27180   27186   27165   27183       1
   27180   27186   27219   27249       1   27180   27210  -27240   27204       1
   27177   27162   27180   27186       1   27177   27162   27180   27210       1
   27177   27204   27237   27261       4   27177   27204   27237   27264       4
   27177   27204  -27240   27210       1   27174   27198   27234   27255       4
   27174   27198   27234   27258       4   27171   27156   27159   27174       1
   27171   27192  -27198   27174       1   27171   27192   27198   27234       1
   27165   27141   27159   27174       6   27165   27141   27162   27177       6
   27165   27141  -27162   27180       7   27165   27183   27216   27246       1
   27165   27183   27216   27249       1   27165   27186   27180   27210       5
   27165   27186  -27219   27249       1   27162   27141   27159   27174       6
   27162   27141   27165   27183       6   27162   27141  -27165   27186       7
   27162   27177   27204   27237       1   27162   27177   27204   27240       1
   27162   27180  -27186   27165       5   27162   27180   27186   27219       5
   27162   27180  -27210   27240       1   27159   27141   27162   27177       6
   27159   27141   27162   27180       7   27159   27141   27165   27183       6
   27159   27141   27165   27186       7   27159   27156   27171   27192       1
   27159   27174  -27198   27192       1   27159   27174   27198   27234       1
   27156   27159   27141   27162       7   27156   27159   27141   27165       7
   27156   27159   27174   27198       1   27156   27171  -27192   27198       1
   27141   27114  -27138   27156       1   27141   27159   27156   27171       1
   27141   27159   27174   27198       1   27141   27162   27177   27204       1
   27141   27162  -27180   27186       1   27141   27162   27180   27210       1
   27141   27165   27183   27216       1   27141   27165  -27186   27180       1
   27141   27165   27186   27219       1   27138   27114  -27141   27159       7
   27138   27114   27141   27162       7   27138   27114   27141   27165       7
   27138   27156  -27159   27141       1   27138   27156   27159   27174       1
   27138   27156   27171   27192       1   27132   27147   27168   27189       3
   27126   27147   27168   27189       3   27120   27138   27114   27141       1
   27120   27138   27156   27159       5   27120   27138   27156   27171       5
   27114   27138  -27156   27159       5   27114   27138   27156   27171       5
   27114   27141  -27159   27156       7   27114   27141   27159   27174       6
   27114   27141   27162   27177       6   27114   27141   27162   27180       7
   27114   27141   27165   27183       6   27114   27141   27165   27186       7
   27111   27099   27108   27126       1   27111   27132  -27147   27126       1
   27111   27132   27147   27168       1   27108   27099   27111   27132       1
   27108   27126  -27147   27132       1   27108   27126   27147   27168       1
   27105   27096   27102   27114       1   27105   27120  -27138   27114       1
   27105   27120   27138   27156       1   27102   27096   27105   27120       1
   27102   27114  -27138   27120       1   27102   27114   27138   27156       1
   27102   27114   27141   27159       6   27102   27114   27141   27162       6
   27102   27114   27141   27165       6   27099   27093   27096   27102       4
   27099   27093   27096   27105       4   27099   27108   27126   27147       1
   27099   27111  -27132   27147       1   27096   27093   27099   27108       4
   27096   27093   27099   27111       4   27096   27102   27114   27138       1
   27096   27102   27114   27141       1   27096   27105  -27120   27138       1
   27093   27096   27102   27114       1   27093   27096   27105   27120       1
   27093   27099   27108   27126       1   27093   27099   27111   27132       1
   27084   27093   27096   27102       4   27084   27093   27096   27105       4
   27084   27093   27099   27108       4   27084   27093   27099   27111       4
   27078   27084   27093   27096       4   27078   27084   27093   27099       4
   27072   27084   27093   27096       4   27072   27084   27093   27099       4
   27060   27051   27057   27072       1   27060   27078  -27084   27072       1
   27060   27078   27084   27093       1   27057   27051   27060   27078       1
   27057   27072  -27084   27078       1   27057   27072   27084   27093       1
   27054   27048   27051   27057       3   27054   27048   27051   27060       3
   27051   27057   27072   27084       1   27051   27060  -27078   27084       1
   27048   27051   27057   27072       1   27048   27051   27060   27078       1
   27864   27915   27939   27957       3   27858   27915   27939   27957       3
   27852   27906   27936   27954       3   27846   27906   27936   27954       3
   27840   27897   27933   27951       3   27834   27897   27933   27951       3
   27828   27891   27930   27948       3   27822   27891   27930   27948       3
   27819   27879   27927   27945       3   27813   27879   27927   27945       3
   27804   27870   27924   27942       3   27798   27870   27924   27942       3
   27795   27756   27792   27858       1   27795   27864  -27915   27858       1
   27795   27864   27915   27939       1   27792   27756   27795   27864       1
   27792   27858  -27915   27864       1   27792   27858   27915   27939       1
   27789   27753   27786   27846       1   27789   27852  -27906   27846       1
   27789   27852   27906   27936       1   27786   27753   27789   27852       1
   27786   27846  -27906   27852       1   27786   27846   27906   27936       1
   27783   27747   27780   27834       1   27783   27840  -27897   27834       1
   27783   27840   27897   27933       1   27780   27747   27783   27840       1
   27780   27834  -27897   27840       1   27780   27834   27897   27933       1
   27777   27744   27774   27822       1   27777   27828  -27891   27822       1
   27777   27828   27891   27930       1   27774   27744   27777   27828       1
   27774   27822  -27891   27828       1   27774   27822   27891   27930       1
   27771   27741   27768   27813       1   27771   27819  -27879   27813       1
   27771   27819   27879   27927       1   27768   27741   27771   27819       1
   27768   27813  -27879   27819       1   27768   27813   27879   27927       1
   27765   27738   27762   27798       1   27765   27804  -27870   27798       1
   27765   27804   27870   27924       1   27762   27738   27765   27804       1
   27762   27798  -27870   27804       1   27762   27798   27870   27924       1
   27756   27729   27753   27786       4   27756   27729   27753   27789       4
   27756   27792   27858   27915       1   27756   27795  -27864   27915       1
   27753   27729   27756   27792       4   27753   27729   27756   27795       4
   27753   27786   27846   27906       1   27753   27789  -27852   27906       1
   27747   27720   27744   27774       4   27747   27720   27744   27777       4
   27747   27780   27834   27897       1   27747   27783  -27840   27897       1
   27744   27720   27747   27780       4   27744   27720   27747   27783       4
   27744   27774   27822   27891       1   27744   27777  -27828   27891       1
   27741   27717   27738   27762       4   27741   27717   27738   27765       4
   27741   27768   27813   27879       1   27741   27771  -27819   27879       1
   27738   27717   27741   27768       4   27738   27717   27741   27771       4
   27738   27762   27798   27870       1   27738   27765  -27804   27870       1
   27732   27699   27729   27753       4   27732   27699   27729   27756       4
   27729   27753   27786   27846       1   27729   27753   27789   27852       1
   27729   27756   27792   27858       1   27729   27756   27795   27864       1
   27723   27687   27720   27744       4   27723   27687   27720   27747       4
   27720   27744   27774   27822       1   27720   27744   27777   27828       1
   27720   27747   27780   27834       1   27720   27747   27783   27840       1
   27717   27738   27762   27798       1   27717   27738   27765   27804       1
   27717   27741   27768   27813       1   27717   27741   27771   27819       1
   27702   27732   27699   27729       1   27699   27729   27753   27786       4
   27699   27729   27753   27789       4   27699   27729   27756   27792       4
   27699   27729   27756   27795       4   27693   27663   27669   27702       5
   27693   27723   27687   27720       1   27687   27720   27744   27774       4
   27687   27720   27744   27777       4   27687   27720   27747   27780       4
   27687   27720   27747   27783       4   27681   27717   27738   27762       4
   27681   27717   27738   27765       4   27681   27717   27741   27768       4
   27681   27717   27741   27771       4   27675   27681   27717   27738       4
   27675   27681   27717   27741       4   27669   27648   27666   27699       1
   27669   27663   27693   27723       1   27669   27702  -27732   27699       1
   27666   27648   27669   27702       1   27666   27699   27729   27753       4
   27666   27699   27729   27756       4   27666   27699  -27732   27702       1
   27663   27645   27660   27687       1   27663   27669   27648   27666       1
   27663   27669   27702   27732       1   27663   27693  -27723   27687       1
   27660   27645   27663   27669       1   27660   27645   27663   27693       1
   27660   27687   27720   27744       4   27660   27687   27720   27747       4
   27660   27687  -27723   27693       1   27657   27681   27717   27738       4
   27657   27681   27717   27741       4   27654   27639   27642   27657       1
   27654   27675  -27681   27657       1   27654   27675   27681   27717       1
   27648   27624   27642   27657       6   27648   27624   27645   27660       6
   27648   27624  -27645   27663       7   27648   27666   27699   27729       1
   27648   27666   27699   27732       1   27648   27669   27663   27693       5
   27648   27669  -27702   27732       1   27645   27624   27642   27657       6
   27645   27624   27648   27666       6   27645   27624  -27648   27669       7
   27645   27660   27687   27720       1   27645   27660   27687   27723       1
   27645   27663  -27669   27648       5   27645   27663   27669   27702       5
   27645   27663  -27693   27723       1   27642   27624   27645   27660       6
   27642   27624   27645   27663       7   27642   27624   27648   27666       6
   27642   27624   27648   27669       7   27642   27639   27654   27675       1
   27642   27657  -27681   27675       1   27642   27657   27681   27717       1
   27639   27642   27624   27645       7   27639   27642   27624   27648       7
   27639   27642   27657   27681       1   27639   27654  -27675   27681       1
   27624   27597  -27621   27639       1   27624   27642   27639   27654       1
   27624   27642   27657   27681       1   27624   27645   27660   27687       1
   27624   27645  -27663   27669       1   27624   27645   27663   27693       1
   27624   27648   27666   27699       1   27624   27648  -27669   27663       1
   27624   27648   27669   27702       1   27621   27597  -27624   27642       7
   27621   27597   27624   27645       7   27621   27597   27624   27648       7
   27621   27639  -27642   27624       1   27621   27639   27642   27657       1
   27621   27639   27654   27675       1   27615   27630   27651   27672       3
   27609   27630   27651   27672       3   27603   27621   27597   27624       1
   27603   27621   27639   27642       5   27603   27621   27639   27654       5
   27597   27621  -27639   27642       5   27597   27621   27639   27654       5
   27597   27624  -27642   27639       7   27597   27624   27642   27657       6
   27597   27624   27645   27660       6   27597   27624   27645   27663       7
   27597   27624   27648   27666       6   27597   27624   27648   27669       7
   27594   27582   27591   27609       1   27594   27615  -27630   27609       1
   27594   27615   27630   27651       1   27591   27582   27594   27615       1
   27591   27609  -27630   27615       1   27591   27609   27630   27651       1
   27588   27579   27585   27597       1   27588   27603  -27621   27597       1
   27588   27603   27621   27639       1   27585   27579   27588   27603       1
   27585   27597  -27621   27603       1   27585   27597   27621   27639       1
   27585   27597   27624   27642       6   27585   27597   27624   27645       6
   27585   27597   27624   27648       6   27582   27576   27579   27585       4
   27582   27576   27579   27588       4   27582   27591   27609   27630       1
   27582   27594  -27615   27630       1   27579   27576   27582   27591       4
   27579   27576   27582   27594       4   27579   27585   27597   27621       1
   27579   27585   27597   27624       1   27579   27588  -27603   27621       1
   27576   27579   27585   27597       1   27576   27579   27588   27603       1
   27576   27582   27591   27609       1   27576   27582   27594   27615       1
   27567   27576   27579   27585       4   27567   27576   27579   27588       4
   27567   27576   27582   27591       4   27567   27576   27582   27594       4
   27561   27567   27576   27579       4   27561   27567   27576   27582       4
   27555   27567   27576   27579       4   27555   27567   27576   27582       4
   27543   27534   27540   27555       1   27543   27561  -27567   27555       1
   27543   27561   27567   27576       1   27540   27534   27543   27561       1
   27540   27555  -27567   27561       1   27540   27555   27567   27576       1
   27537   27531   27534   27540       3   27537   27531   27534   27543       3
   27534   27540   27555   27567       1   27534   27543  -27561   27567       1
   27531   27534   27540   27555       1   27531   27534   27543   27561       1
   28347   28398   28422   28440       3   28341   28398   28422   28440       3
   28335   28389   28419   28437       3   28329   28389   28419   28437       3
   28323   28380   28416   28434       3   28317   28380   28416   28434       3
   28311   28374   28413   28431       3   28305   28374   28413   28431       3
   28302   28362   28410   28428       3   28296   28362   28410   28428       3
   28287   28353   28407   28425       3   28281   28353   28407   28425       3
   28278   28239   28275   28341       1   28278   28347  -28398   28341       1
   28278   28347   28398   28422       1   28275   28239   28278   28347       1
   28275   28341  -28398   28347       1   28275   28341   28398   28422       1
   28272   28236   28269   28329       1   28272   28335  -28389   28329       1
   28272   28335   28389   28419       1   28269   28236   28272   28335       1
   28269   28329  -28389   28335       1   28269   28329   28389   28419       1
   28266   28230   28263   28317       1   28266   28323  -28380   28317       1
   28266   28323   28380   28416       1   28263   28230   28266   28323       1
   28263   28317  -28380   28323       1   28263   28317   28380   28416       1
   28260   28227   28257   28305       1   28260   28311  -28374   28305       1
   28260   28311   28374   28413       1   28257   28227   28260   28311       1
   28257   28305  -28374   28311       1   28257   28305   28374   28413       1
   28254   28224   28251   28296       1   28254   28302  -28362   28296       1
   28254   28302   28362   28410       1   28251   28224   28254   28302       1
   28251   28296  -28362   28302       1   28251   28296   28362   28410       1
   28248   28221   28245   28281       1   28248   28287  -28353   28281       1
   28248   28287   28353   28407       1   28245   28221   28248   28287       1
   28245   28281  -28353   28287       1   28245   28281   28353   28407       1
   28239   28212   28236   28269       4   28239   28212   28236   28272       4
   28239   28275   28341   28398       1   28239   28278  -28347   28398       1
   28236   28212   28239   28275       4   28236   28212   28239   28278       4
   28236   28269   28329   28389       1   28236   28272  -28335   28389       1
   28230   28203   28227   28257       4   28230   28203   28227   28260       4
   28230   28263   28317   28380       1   28230   28266  -28323   28380       1
   28227   28203   28230   28263       4   28227   28203   28230   28266       4
   28227   28257   28305   28374       1   28227   28260  -28311   28374       1
   28224   28200   28221   28245       4   28224   28200   28221   28248       4
   28224   28251   28296   28362       1   28224   28254  -28302   28362       1
   28221   28200   28224   28251       4   28221   28200   28224   28254       4
   28221   28245   28281   28353       1   28221   28248  -28287   28353       1
   28215   28182   28212   28236       4   28215   28182   28212   28239       4
   28212   28236   28269   28329       1   28212   28236   28272   28335       1
   28212   28239   28275   28341       1   28212   28239   28278   28347       1
   28206   28170   28203   28227       4   28206   28170   28203   28230       4
   28203   28227   28257   28305       1   28203   28227   28260   28311       1
   28203   28230   28263   28317       1   28203   28230   28266   28323       1
   28200   28221   28245   28281       1   28200   28221   28248   28287       1
   28200   28224   28251   28296       1   28200   28224   28254   28302       1
   28185   28215   28182   28212       1   28182   28212   28236   28269       4
   28182   28212   28236   28272       4   28182   28212   28239   28275       4
   28182   28212   28239   28278       4   28176   28146   28152   28185       5
   28176   28206   28170   28203       1   28170   28203   28227   28257       4
   28170   28203   28227   28260       4   28170   28203   28230   28263       4
   28170   28203   28230   28266       4   28164   28200   28221   28245       4
   28164   28200   28221   28248       4   28164   28200   28224   28251       4
   28164   28200   28224   28254       4   28158   28164   28200   28221       4
   28158   28164   28200   28224       4   28152   28131   28149   28182       1
   28152   28146   28176   28206       1   28152   28185  -28215   28182       1
   28149   28131   28152   28185       1   28149   28182   28212   28236       4
   28149   28182   28212   28239       4   28149   28182  -28215   28185       1
   28146   28128   28143   28170       1   28146   28152   28131   28149       1
   28146   28152   28185   28215       1   28146   28176  -28206   28170       1
   28143   28128   28146   28152       1   28143   28128   28146   28176       1
   28143   28170   28203   28227       4   28143   28170   28203   28230       4
   28143   28170  -28206   28176       1   28140   28164   28200   28221       4
   28140   28164   28200   28224       4   28137   28122   28125   28140       1
   28137   28158  -28164   28140       1   28137   28158   28164   28200       1
   28131   28107   28125   28140       6   28131   28107   28128   28143       6
   28131   28107  -28128   28146       7   28131   28149   28182   28212       1
   28131   28149   28182   28215       1   28131   28152   28146   28176       5
   28131   28152  -28185   28215       1   28128   28107   28125   28140       6
   28128   28107   28131   28149       6   28128   28107  -28131   28152       7
   28128   28143   28170   28203       1   28128   28143   28170   28206       1
   28128   28146  -28152   28131       5   28128   28146   28152   28185       5
   28128   28146  -28176   28206       1   28125   28107   28128   28143       6
   28125   28107   28128   28146       7   28125   28107   28131   28149       6
   28125   28107   28131   28152       7   28125   28122   28137   28158       1
   28125   28140  -28164   28158       1   28125   28140   28164   28200       1
   28122   28125   28107   28128       7   28122   28125   28107   28131       7
   28122   28125   28140   28164       1   28122   28137  -28158   28164       1
   28107   28080  -28104   28122       1   28107   28125   28122   28137       1
   28107   28125   28140   28164       1   28107   28128   28143   28170       1
   28107   28128  -28146   28152       1   28107   28128   28146   28176       1
   28107   28131   28149   28182       1   28107   28131  -28152   28146       1
   28107   28131   28152   28185       1   28104   28080  -28107   28125       7
   28104   28080   28107   28128       7   28104   28080   28107   28131       7
   28104   28122  -28125   28107       1   28104   28122   28125   28140       1
   28104   28122   28137   28158       1   28098   28113   28134   28155       3
   28092   28113   28134   28155       3   28086   28104   28080   28107       1
   28086   28104   28122   28125       5   28086   28104   28122   28137       5
   28080   28104  -28122   28125       5   28080   28104   28122   28137       5
   28080   28107  -28125   28122       7   28080   28107   28125   28140       6
   28080   28107   28128   28143       6   28080   28107   28128   28146       7
   28080   28107   28131   28149       6   28080   28107   28131   28152       7
   28077   28065   28074   28092       1   28077   28098  -28113   28092       1
   28077   28098   28113   28134       1   28074   28065   28077   28098       1
   28074   28092  -28113   28098       1   28074   28092   28113   28134       1
   28071   28062   28068   28080       1   28071   28086  -28104   28080       1
   28071   28086   28104   28122       1   28068   28062   28071   28086       1
   28068   28080  -28104   28086       1   28068   28080   28104   28122       1
   28068   28080   28107   28125       6   28068   28080   28107   28128       6
   28068   28080   28107   28131       6   28065   28059   28062   28068       4
   28065   28059   28062   28071       4   28065   28074   28092   28113       1
   28065   28077  -28098   28113       1   28062   28059   28065   28074       4
   28062   28059   28065   28077       4   28062   28068   28080   28104       1
   28062   28068   28080   28107       1   28062   28071  -28086   28104       1
   28059   28062   28068   28080       1   28059   28062   28071   28086       1
   28059   28065   28074   28092       1   28059   28065   28077   28098       1
   28050   28059   28062   28068       4   28050   28059   28062   28071       4
   28050   28059   28065   28074       4   28050   28059   28065   28077       4
   28044   28050   28059   28062       4   28044   28050   28059   28065       4
   28038   28050   28059   28062       4   28038   28050   28059   28065       4
   28026   28017   28023   28038       1   28026   28044  -28050   28038       1
   28026   28044   28050   28059       1   28023   28017   28026   28044       1
   28023   28038  -28050   28044       1   28023   28038   28050   28059       1
   28020   28014   28017   28023       3   28020   28014   28017   28026       3
   28017   28023   28038   28050       1   28017   28026  -28044   28050       1
   28014   28017   28023   28038       1   28014   28017   28026   28044       1
   28830   28881   28905   28923       3   28824   28881   28905   28923       3
   28818   28872   28902   28920       3   28812   28872   28902   28920       3
   28806   28863   28899   28917       3   28800   28863   28899   28917       3
   28794   28857   28896   28914       3   28788   28857   28896   28914       3
   28785   28845   28893   28911       3   28779   28845   28893   28911       3
   28770   28836   28890   28908       3   28764   28836   28890   28908       3
   28761   28722   28758   28824       1   28761   28830  -28881   28824       1
   28761   28830   28881   28905       1   28758   28722   28761   28830       1
   28758   28824  -28881   28830       1   28758   28824   28881   28905       1
   28755   28719   28752   28812       1   28755   28818  -28872   28812       1
   28755   28818   28872   28902       1   28752   28719   28755   28818       1
   28752   28812  -28872   28818       1   28752   28812   28872   28902       1
   28749   28713   28746   28800       1   28749   28806  -28863   28800       1
   28749   28806   28863   28899       1   28746   28713   28749   28806       1
   28746   28800  -28863   28806       1   28746   28800   28863   28899       1
   28743   28710   28740   28788       1   28743   28794  -28857   28788       1
   28743   28794   28857   28896       1   28740   28710   28743   28794       1
   28740   28788  -28857   28794       1   28740   28788   28857   28896       1
   28737   28707   28734   28779       1   28737   28785  -28845   28779       1
   28737   28785   28845   28893       1   28734   28707   28737   28785       1
   28734   28779  -28845   28785       1   28734   28779   28845   28893       1
   28731   28704   28728   28764       1   28731   28770  -28836   28764       1
   28731   28770   28836   28890       1   28728   28704   28731   28770       1
   28728   28764  -28836   28770       1   28728   28764   28836   28890       1
   28722   28695   28719   28752       4   28722   28695   28719   28755       4
   28722   28758   28824   28881       1   28722   28761  -28830   28881       1
   28719   28695   28722   28758       4   28719   28695   28722   28761       4
   28719   28752   28812   28872       1   28719   28755  -28818   28872       1
   28713   28686   28710   28740       4   28713   28686   28710   28743       4
   28713   28746   28800   28863       1   28713   28749  -28806   28863       1
   28710   28686   28713   28746       4   28710   28686   28713   28749       4
   28710   28740   28788   28857       1   28710   28743  -28794   28857       1
   28707   28683   28704   28728       4   28707   28683   28704   28731       4
   28707   28734   28779   28845       1   28707   28737  -28785   28845       1
   28704   28683   28707   28734       4   28704   28683   28707   28737       4
   28704   28728   28764   28836       1   28704   28731  -28770   28836       1
   28698   28665   28695   28719       4   28698   28665   28695   28722       4
   28695   28719   28752   28812       1   28695   28719   28755   28818       1
   28695   28722   28758   28824       1   28695   28722   28761   28830       1
   28689   28653   28686   28710       4   28689   28653   28686   28713       4
   28686   28710   28740   28788       1   28686   28710   28743   28794       1
   28686   28713   28746   28800       1   28686   28713   28749   28806       1
   28683   28704   28728   28764       1   28683   28704   28731   28770       1
   28683   28707   28734   28779       1   28683   28707   28737   28785       1
   28668   28698   28665   28695       1   28665   28695   28719   28752       4
   28665   28695   28719   28755       4   28665   28695   28722   28758       4
   28665   28695   28722   28761       4   28659   28629   28635   28668       5
   28659   28689   28653   28686       1   28653   28686   28710   28740       4
   28653   28686   28710   28743       4   28653   28686   28713   28746       4
   28653   28686   28713   28749       4   28647   28683   28704   28728       4
   28647   28683   28704   28731       4   28647   28683   28707   28734       4
   28647   28683   28707   28737       4   28641   28647   28683   28704       4
   28641   28647   28683   28707       4   28635   28614   28632   28665       1
   28635   28629   28659   28689       1   28635   28668  -28698   28665       1
   28632   28614   28635   28668       1   28632   28665   28695   28719       4
   28632   28665   28695   28722       4   28632   28665  -28698   28668       1
   28629   28611   28626   28653       1   28629   28635   28614   28632       1
   28629   28635   28668   28698       1   28629   28659  -28689   28653       1
   28626   28611   28629   28635       1   28626   28611   28629   28659       1
   28626   28653   28686   28710       4   28626   28653   28686   28713       4
   28626   28653  -28689   28659       1   28623   28647   28683   28704       4
   28623   28647   28683   28707       4   28620   28605   28608   28623       1
   28620   28641  -28647   28623       1   28620   28641   28647   28683       1
   28614   28590   28608   28623       6   28614   28590   28611   28626       6
   28614   28590  -28611   28629       7   28614   28632   28665   28695       1
   28614   28632   28665   28698       1   28614   28635   28629   28659       5
   28614   28635  -28668   28698       1   28611   28590   28608   28623       6
   28611   28590   28614   28632       6   28611   28590  -28614   28635       7
   28611   28626   28653   28686       1   28611   28626   28653   28689       1
   28611   28629  -28635   28614       5   28611   28629   28635   28668       5
   28611   28629  -28659   28689       1   28608   28590   28611   28626       6
   28608   28590   28611   28629       7   28608   28590   28614   28632       6
   28608   28590   28614   28635       7   28608   28605   28620   28641       1
   28608   28623  -28647   28641       1   28608   28623   28647   28683       1
   28605   28608   28590   28611       7   28605   28608   28590   28614       7
   28605   28608   28623   28647       1   28605   28620  -28641   28647       1
   28590   28563  -28587   28605       1   28590   28608   28605   28620       1
   28590   28608   28623   28647       1   28590   28611   28626   28653       1
   28590   28611  -28629   28635       1   28590   28611   28629   28659       1
   28590   28614   28632   28665       1   28590   28614  -28635   28629       1
   28590   28614   28635   28668       1   28587   28563  -28590   28608       7
   28587   28563   28590   28611       7   28587   28563   28590   28614       7
   28587   28605  -28608   28590       1   28587   28605   28608   28623       1
   28587   28605   28620   28641       1   28581   28596   28617   28638       3
   28575   28596   28617   28638       3   28569   28587   28563   28590       1
   28569   28587   28605   28608       5   28569   28587   28605   28620       5
   28563   28587  -28605   28608       5   28563   28587   28605   28620       5
   28563   28590  -28608   28605       7   28563   28590   28608   28623       6
   28563   28590   28611   28626       6   28563   28590   28611   28629       7
   28563   28590   28614   28632       6   28563   28590   28614   28635       7
   28560   28548   28557   28575       1   28560   28581  -28596   28575       1
   28560   28581   28596   28617       1   28557   28548   28560   28581       1
   28557   28575  -28596   28581       1   28557   28575   28596   28617       1
   28554   28545   28551   28563       1   28554   28569  -28587   28563       1
   28554   28569   28587   28605       1   28551   28545   28554   28569       1
   28551   28563  -28587   28569       1   28551   28563   28587   28605       1
   28551   28563   28590   28608       6   28551   28563   28590   28611       6
   28551   28563   28590   28614       6   28548   28542   28545   28551       4
   28548   28542   28545   28554       4   28548   28557   28575   28596       1
   28548   28560  -28581   28596       1   28545   28542   28548   28557       4
   28545   28542   28548   28560       4   28545   28551   28563   28587       1
   28545   28551   28563   28590       1   28545   28554  -28569   28587       1
   28542   28545   28551   28563       1   28542   28545   28554   28569       1
   28542   28548   28557   28575       1   28542   28548   28560   28581       1
   28533   28542   28545   28551       4   28533   28542   28545   28554       4
   28533   28542   28548   28557       4   28533   28542   28548   28560       4
   28527   28533   28542   28545       4   28527   28533   28542   28548       4
   28521   28533   28542   28545       4   28521   28533   28542   28548       4
   28509   28500   28506   28521       1   28509   28527  -28533   28521       1
   28509   28527   28533   28542       1   28506   28500   28509   28527       1
   28506   28521  -28533   28527       1   28506   28521   28533   28542       1
   28503   28497   28500   28506       3   28503   28497   28500   28509       3
   28500   28506   28521   28533       1   28500   28509  -28527   28533       1
   28497   28500   28506   28521       1   28497   28500   28509   28527       1
   29313   29364   29388   29406       3   29307   29364   29388   29406       3
   29301   29355   29385   29403       3   29295   29355   29385   29403       3
   29289   29346   29382   29400       3   29283   29346   29382   29400       3
   29277   29340   29379   29397       3   29271   29340   29379   29397       3
   29268   29328   29376   29394       3   29262   29328   29376   29394       3
   29253   29319   29373   29391       3   29247   29319   29373   29391       3
   29244   29205   29241   29307       1   29244   29313  -29364   29307       1
   29244   29313   29364   29388       1   29241   29205   29244   29313       1
   29241   29307  -29364   29313       1   29241   29307   29364   29388       1
   29238   29202   29235   29295       1   29238   29301  -29355   29295       1
   29238   29301   29355   29385       1   29235   29202   29238   29301       1
   29235   29295  -29355   29301       1   29235   29295   29355   29385       1
   29232   29196   29229   29283       1   29232   29289  -29346   29283       1
   29232   29289   29346   29382       1   29229   29196   29232   29289       1
   29229   29283  -29346   29289       1   29229   29283   29346   29382       1
   29226   29193   29223   29271       1   29226   29277  -29340   29271       1
   29226   29277   29340   29379       1   29223   29193   29226   29277       1
   29223   29271  -29340   29277       1   29223   29271   29340   29379       1
   29220   29190   29217   29262       1   29220   29268  -29328   29262       1
   29220   29268   29328   29376       1   29217   29190   29220   29268       1
   29217   29262  -29328   29268       1   29217   29262   29328   29376       1
   29214   29187   29211   29247       1   29214   29253  -29319   29247       1
   29214   29253   29319   29373       1   29211   29187   29214   29253       1
   29211   29247  -29319   29253       1   29211   29247   29319   29373       1
   29205   29178   29202   29235       4   29205   29178   29202   29238       4
   29205   29241   29307   29364       1   29205   29244  -29313   29364       1
   29202   29178   29205   29241       4   29202   29178   29205   29244       4
   29202   29235   29295   29355       1   29202   29238  -29301   29355       1
   29196   29169   29193   29223       4   29196   29169   29193   29226       4
   29196   29229   29283   29346       1   29196   29232  -29289   29346       1
   29193   29169   29196   29229       4   29193   29169   29196   29232       4
   29193   29223   29271   29340       1   29193   29226  -29277   29340       1
   29190   29166   29187   29211       4   29190   29166   29187   29214       4
   29190   29217   29262   29328       1   29190   29220  -29268   29328       1
   29187   29166   29190   29217       4   29187   29166   29190   29220       4
   29187   29211   29247   29319       1   29187   29214  -29253   29319       1
   29181   29148   29178   29202       4   29181   29148   29178   29205       4
   29178   29202   29235   29295       1   29178   29202   29238   29301       1
   29178   29205   29241   29307       1   29178   29205   29244   29313       1
   29172   29136   29169   29193       4   29172   29136   29169   29196       4
   29169   29193   29223   29271       1   29169   29193   29226   29277       1
   29169   29196   29229   29283       1   29169   29196   29232   29289       1
   29166   29187   29211   29247       1   29166   29187   29214   29253       1
   29166   29190   29217   29262       1   29166   29190   29220   29268       1
   29151   29181   29148   29178       1   29148   29178   29202   29235       4
   29148   29178   29202   29238       4   29148   29178   29205   29241       4
   29148   29178   29205   29244       4   29142   29112   29118   29151       5
   29142   29172   29136   29169       1   29136   29169   29193   29223       4
   29136   29169   29193   29226       4   29136   29169   29196   29229       4
   29136   29169   29196   29232       4   29130   29166   29187   29211       4
   29130   29166   29187   29214       4   29130   29166   29190   29217       4
   29130   29166   29190   29220       4   29124   29130   29166   29187       4
   29124   29130   29166   29190       4   29118   29097   29115   29148       1
   29118   29112   29142   29172       1   29118   29151  -29181   29148       1
   29115   29097   29118   29151       1   29115   29148   29178   29202       4
   29115   29148   29178   29205       4   29115   29148  -29181   29151       1
   29112   29094   29109   29136       1   29112   29118   29097   29115       1
   29112   29118   29151   29181       1   29112   29142  -29172   29136       1
   29109   29094   29112   29118       1   29109   29094   29112   29142       1
   29109   29136   29169   29193       4   29109   29136   29169   29196       4
   29109   29136  -29172   29142       1   29106   29130   29166   29187       4
   29106   29130   29166   29190       4   29103   29088   29091   29106       1
   29103   29124  -29130   29106       1   29103   29124   29130   29166       1
   29097   29073   29091   29106       6   29097   29073   29094   29109       6
   29097   29073  -29094   29112       7   29097   29115   29148   29178       1
   29097   29115   29148   29181       1   29097   29118   29112   29142       5
   29097   29118  -29151   29181       1   29094   29073   29091   29106       6
   29094   29073   29097   29115       6   29094   29073  -29097   29118       7
   29094   29109   29136   29169       1   29094   29109   29136   29172       1
   29094   29112  -29118   29097       5   29094   29112   29118   29151       5
   29094   29112  -29142   29172       1   29091   29073   29094   29109       6
   29091   29073   29094   29112       7   29091   29073   29097   29115       6
   29091   29073   29097   29118       7   29091   29088   29103   29124       1
   29091   29106  -29130   29124       1   29091   29106   29130   29166       1
   29088   29091   29073   29094       7   29088   29091   29073   29097       7
   29088   29091   29106   29130       1   29088   29103  -29124   29130       1
   29073   29046  -29070   29088       1   29073   29091   29088   29103       1
   29073   29091   29106   29130       1   29073   29094   29109   29136       1
   29073   29094  -29112   29118       1   29073   29094   29112   29142       1
   29073   29097   29115   29148       1   29073   29097  -29118   29112       1
   29073   29097   29118   29151       1   29070   29046  -29073   29091       7
   29070   29046   29073   29094       7   29070   29046   29073   29097       7
   29070   29088  -29091   29073       1   29070   29088   29091   29106       1
   29070   29088   29103   29124       1   29064   29079   29100   29121       3
   29058   29079   29100   29121       3   29052   29070   29046   29073       1
   29052   29070   29088   29091       5   29052   29070   29088   29103       5
   29046   29070  -29088   29091       5   29046   29070   29088   29103       5
   29046   29073  -29091   29088       7   29046   29073   29091   29106       6
   29046   29073   29094   29109       6   29046   29073   29094   29112       7
   29046   29073   29097   29115       6   29046   29073   29097   29118       7
   29043   29031   29040   29058       1   29043   29064  -29079   29058       1
   29043   29064   29079   29100       1   29040   29031   29043   29064       1
   29040   29058  -29079   29064       1   29040   29058   29079   29100       1
   29037   29028   29034   29046       1   29037   29052  -29070   29046       1
   29037   29052   29070   29088       1   29034   29028   29037   29052       1
   29034   29046  -29070   29052       1   29034   29046   29070   29088       1
   29034   29046   29073   29091       6   29034   29046   29073   29094       6
   29034   29046   29073   29097       6   29031   29025   29028   29034       4
   29031   29025   29028   29037       4   29031   29040   29058   29079       1
   29031   29043  -29064   29079       1   29028   29025   29031   29040       4
   29028   29025   29031   29043       4   29028   29034   29046   29070       1
   29028   29034   29046   29073       1   29028   29037  -29052   29070       1
   29025   29028   29034   29046       1   29025   29028   29037   29052       1
   29025   29031   29040   29058       1   29025   29031   29043   29064       1
   29016   29025   29028   29034       4   29016   29025   29028   29037       4
   29016   29025   29031   29040       4   29016   29025   29031   29043       4
   29010   29016   29025   29028       4   29010   29016   29025   29031       4
   29004   29016   29025   29028       4   29004   29016   29025   29031       4
   28992   28983   28989   29004       1   28992   29010  -29016   29004       1
   28992   29010   29016   29025       1   28989   28983   28992   29010       1
   28989   29004  -29016   29010       1   28989   29004   29016   29025       1
   28986   28980   28983   28989       3   28986   28980   28983   28992       3
   28983   28989   29004   29016       1   28983   28992  -29010   29016       1
   28980   28983   28989   29004       1   28980   28983   28992   29010       1
   29796   29847   29871   29889       3   29790   29847   29871   29889       3
   29784   29838   29868   29886       3   29778   29838   29868   29886       3
   29772   29829   29865   29883       3   29766   29829   29865   29883       3
   29760   29823   29862   29880       3   29754   29823   29862   29880       3
   29751   29811   29859   29877       3   29745   29811   29859   29877       3
   29736   29802   29856   29874       3   29730   29802   29856   29874       3
   29727   29688   29724   29790       1   29727   29796  -29847   29790       1
   29727   29796   29847   29871       1   29724   29688   29727   29796       1
   29724   29790  -29847   29796       1   29724   29790   29847   29871       1
   29721   29685   29718   29778       1   29721   29784  -29838   29778       1
   29721   29784   29838   29868       1   29718   29685   29721   29784       1
   29718   29778  -29838   29784       1   29718   29778   29838   29868       1
   29715   29679   29712   29766       1   29715   29772  -29829   29766       1
   29715   29772   29829   29865       1   29712   29679   29715   29772       1
   29712   29766  -29829   29772       1   29712   29766   29829   29865       1
   29709   29676   29706   29754       1   29709   29760  -29823   29754       1
   29709   29760   29823   29862       1   29706   29676   29709   29760       1
   29706   29754  -29823   29760       1   29706   29754   29823   29862       1
   29703   29673   29700   29745       1   29703   29751  -29811   29745       1
   29703   29751   29811   29859       1   29700   29673   29703   29751       1
   29700   29745  -29811   29751       1   29700   29745   29811   29859       1
   29697   29670   29694   29730       1   29697   29736  -29802   29730       1
   29697   29736   29802   29856       1   29694   29670   29697   29736       1
   29694   29730  -29802   29736       1   29694   29730   29802   29856       1
   29688   29661   29685   29718       4   29688   29661   29685   29721       4
   29688   29724   29790   29847       1   29688   29727  -29796   29847       1
   29685   29661   29688   29724       4   29685   29661   29688   29727       4
   29685   29718   29778   29838       1   29685   29721  -29784   29838       1
   29679   29652   29676   29706       4   29679   29652   29676   29709       4
   29679   29712   29766   29829       1   29679   29715  -29772   29829       1
   29676   29652   29679   29712       4   29676   29652   29679   29715       4
   29676   29706   29754   29823       1   29676   29709  -29760   29823       1
   29673   29649   29670   29694       4   29673   29649   29670   29697       4
   29673   29700   29745   29811       1   29673   29703  -29751   29811       1
   29670   29649   29673   29700       4   29670   29649   29673   29703       4
   29670   29694   29730   29802       1   29670   29697  -29736   29802       1
   29664   29631   29661   29685       4   29664   29631   29661   29688       4
   29661   29685   29718   29778       1   29661   29685   29721   29784       1
   29661   29688   29724   29790       1   29661   29688   29727   29796       1
   29655   29619   29652   29676       4   29655   29619   29652   29679       4
   29652   29676   29706   29754       1   29652   29676   29709   29760       1
   29652   29679   29712   29766       1   29652   29679   29715   29772       1
   29649   29670   29694   29730       1   29649   29670   29697   29736       1
   29649   29673   29700   29745       1   29649   29673   29703   29751       1
   29634   29664   29631   29661       1   29631   29661   29685   29718       4
   29631   29661   29685   29721       4   29631   29661   29688   29724       4
   29631   29661   29688   29727       4   29625   29595   29601   29634       5
   29625   29655   29619   29652       1   29619   29652   29676   29706       4
   29619   29652   29676   29709       4   29619   29652   29679   29712       4
   29619   29652   29679   29715       4   29613   29649   29670   29694       4
   29613   29649   29670   29697       4   29613   29649   29673   29700       4
   29613   29649   29673   29703       4   29607   29613   29649   29670       4
   29607   29613   29649   29673       4   29601   29580   29598   29631       1
   29601   29595   29625   29655       1   29601   29634  -29664   29631       1
   29598   29580   29601   29634       1   29598   29631   29661   29685       4
   29598   29631   29661   29688       4   29598   29631  -29664   29634       1
   29595   29577   29592   29619       1   29595   29601   29580   29598       1
   29595   29601   29634   29664       1   29595   29625  -29655   29619       1
   29592   29577   29595   29601       1   29592   29577   29595   29625       1
   29592   29619   29652   29676       4   29592   29619   29652   29679       4
   29592   29619  -29655   29625       1   29589   29613   29649   29670       4
   29589   29613   29649   29673       4   29586   29571   29574   29589       1
   29586   29607  -29613   29589       1   29586   29607   29613   29649       1
   29580   29556   29574   29589       6   29580   29556   29577   29592       6
   29580   29556  -29577   29595       7   29580   29598   29631   29661       1
   29580   29598   29631   29664       1   29580   29601   29595   29625       5
   29580   29601  -29634   29664       1   29577   29556   29574   29589       6
   29577   29556   29580   29598       6   29577   29556  -29580   29601       7
   29577   29592   29619   29652       1   29577   29592   29619   29655       1
   29577   29595  -29601   29580       5   29577   29595   29601   29634       5
   29577   29595  -29625   29655       1   29574   29556   29577   29592       6
   29574   29556   29577   29595       7   29574   29556   29580   29598       6
   29574   29556   29580   29601       7   29574   29571   29586   29607       1
   29574   29589  -29613   29607       1   29574   29589   29613   29649       1
   29571   29574   29556   29577       7   29571   29574   29556   29580       7
   29571   29574   29589   29613       1   29571   29586  -29607   29613       1
   29556   29529  -29553   29571       1   29556   29574   29571   29586       1
   29556   29574   29589   29613       1   29556   29577   29592   29619       1
   29556   29577  -29595   29601       1   29556   29577   29595   29625       1
   29556   29580   29598   29631       1   29556   29580  -29601   29595       1
   29556   29580   29601   29634       1   29553   29529  -29556   29574       7
   29553   29529   29556   29577       7   29553   29529   29556   29580       7
   29553   29571  -29574   29556       1   29553   29571   29574   29589       1
   29553   29571   29586   29607       1   29547   29562   29583   29604       3
   29541   29562   29583   29604       3   29535   29553   29529   29556       1
   29535   29553   29571   29574       5   29535   29553   29571   29586       5
   29529   29553  -29571   29574       5   29529   29553   29571   29586       5
   29529   29556  -29574   29571       7   29529   29556   29574   29589       6
   29529   29556   29577   29592       6   29529   29556   29577   29595       7
   29529   29556   29580   29598       6   29529   29556   29580   29601       7
   29526   29514   29523   29541       1   29526   29547  -29562   29541       1
   29526   29547   29562   29583       1   29523   29514   29526   29547       1
   29523   29541  -29562   29547       1   29523   29541   29562   29583       1
   29520   29511   29517   29529       1   29520   29535  -29553   29529       1
   29520   29535   29553   29571       1   29517   29511   29520   29535       1
   29517   29529  -29553   29535       1   29517   29529   29553   29571       1
   29517   29529   29556   29574       6   29517   29529   29556   29577       6
   29517   29529   29556   29580       6   29514   29508   29511   29517       4
   29514   29508   29511   29520       4   29514   29523   29541   29562       1
   29514   29526  -29547   29562       1   29511   29508   29514   29523       4
   29511   29508   29514   29526       4   29511   29517   29529   29553       1
   29511   29517   29529   29556       1   29511   29520  -29535   29553       1
   29508   29511   29517   29529       1   29508   29511   29520   29535       1
   29508   29514   29523   29541       1   29508   29514   29526   29547       1
   29499   29508   29511   29517       4   29499   29508   29511   29520       4
   29499   29508   29514   29523       4   29499   29508   29514   29526       4
   29493   29499   29508   29511       4   29493   29499   29508   29514       4
   29487   29499   29508   29511       4   29487   29499   29508   29514       4
   29475   29466   29472   29487       1   29475   29493  -29499   29487       1
   29475   29493   29499   29508       1   29472   29466   29475   29493       1
   29472   29487  -29499   29493       1   29472   29487   29499   29508       1
   29469   29463   29466   29472       3   29469   29463   29466   29475       3
   29466   29472   29487   29499       1   29466   29475  -29493   29499       1
   29463   29466   29472   29487       1   29463   29466   29475   29493       1
   30279   30330   30354   30372       3   30273   30330   30354   30372       3
   30267   30321   30351   30369       3   30261   30321   30351   30369       3
   30255   30312   30348   30366       3   30249   30312   30348   30366       3
   30243   30306   30345   30363       3   30237   30306   30345   30363       3
   30234   30294   30342   30360       3   30228   30294   30342   30360       3
   30219   30285   30339   30357       3   30213   30285   30339   30357       3
   30210   30171   30207   30273       1   30210   30279  -30330   30273       1
   30210   30279   30330   30354       1   30207   30171   30210   30279       1
   30207   30273  -30330   30279       1   30207   30273   30330   30354       1
   30204   30168   30201   30261       1   30204   30267  -30321   30261       1
   30204   30267   30321   30351       1   30201   30168   30204   30267       1
   30201   30261  -30321   30267       1   30201   30261   30321   30351       1
   30198   30162   30195   30249       1   30198   30255  -30312   30249       1
   30198   30255   30312   30348       1   30195   30162   30198   30255       1
   30195   30249  -30312   30255       1   30195   30249   30312   30348       1
   30192   30159   30189   30237       1   30192   30243  -30306   30237       1
   30192   30243   30306   30345       1   30189   30159   30192   30243       1
   30189   30237  -30306   30243       1   30189   30237   30306   30345       1
   30186   30156   30183   30228       1   30186   30234  -30294   30228       1
   30186   30234   30294   30342       1   30183   30156   30186   30234       1
   30183   30228  -30294   30234       1   30183   30228   30294   30342       1
   30180   30153   30177   30213       1   30180   30219  -30285   30213       1
   30180   30219   30285   30339       1   30177   30153   30180   30219       1
   30177   30213  -30285   30219       1   30177   30213   30285   30339       1
   30171   30144   30168   30201       4   30171   30144   30168   30204       4
   30171   30207   30273   30330       1   30171   30210  -30279   30330       1
   30168   30144   30171   30207       4   30168   30144   30171   30210       4
   30168   30201   30261   30321       1   30168   30204  -30267   30321       1
   30162   30135   30159   30189       4   30162   30135   30159   30192       4
   30162   30195   30249   30312       1   30162   30198  -30255   30312       1
   30159   30135   30162   30195       4   30159   30135   30162   30198       4
   30159   30189   30237   30306       1   30159   30192  -30243   30306       1
   30156   30132   30153   30177       4   30156   30132   30153   30180       4
   30156   30183   30228   30294       1   30156   30186  -30234   30294       1
   30153   30132   30156   30183       4   30153   30132   30156   30186       4
   30153   30177   30213   30285       1   30153   30180  -30219   30285       1
   30147   30114   30144   30168       4   30147   30114   30144   30171       4
   30144   30168   30201   30261       1   30144   30168   30204   30267       1
   30144   30171   30207   30273       1   30144   30171   30210   30279       1
   30138   30102   30135   30159       4   30138   30102   30135   30162       4
   30135   30159   30189   30237       1   30135   30159   30192   30243       1
   30135   30162   30195   30249       1   30135   30162   30198   30255       1
   30132   30153   30177   30213       1   30132   30153   30180   30219       1
   30132   30156   30183   30228       1   30132   30156   30186   30234       1
   30117   30147   30114   30144       1   30114   30144   30168   30201       4
   30114   30144   30168   30204       4   30114   30144   30171   30207       4
   30114   30144   30171   30210       4   30108   30078   30084   30117       5
   30108   30138   30102   30135       1   30102   30135   30159   30189       4
   30102   30135   30159   30192       4   30102   30135   30162   30195       4
   30102   30135   30162   30198       4   30096   30132   30153   30177       4
   30096   30132   30153   30180       4   30096   30132   30156   30183       4
   30096   30132   30156   30186       4   30090   30096   30132   30153       4
   30090   30096   30132   30156       4   30084   30063   30081   30114       1
   30084   30078   30108   30138       1   30084   30117  -30147   30114       1
   30081   30063   30084   30117       1   30081   30114   30144   30168       4
   30081   30114   30144   30171       4   30081   30114  -30147   30117       1
   30078   30060   30075   30102       1   30078   30084   30063   30081       1
   30078   30084   30117   30147       1   30078   30108  -30138   30102       1
   30075   30060   30078   30084       1   30075   30060   30078   30108       1
   30075   30102   30135   30159       4   30075   30102   30135   30162       4
   30075   30102  -30138   30108       1   30072   30096   30132   30153       4
   30072   30096   30132   30156       4   30069   30054   30057   30072       1
   30069   30090  -30096   30072       1   30069   30090   30096   30132       1
   30063   30039   30057   30072       6   30063   30039   30060   30075       6
   30063   30039  -30060   30078       7   30063   30081   30114   30144       1
   30063   30081   30114   30147       1   30063   30084   30078   30108       5
   30063   30084  -30117   30147       1   30060   30039   30057   30072       6
   30060   30039   30063   30081       6   30060   30039  -30063   30084       7
   30060   30075   30102   30135       1   30060   30075   30102   30138       1
   30060   30078  -30084   30063       5   30060   30078   30084   30117       5
   30060   30078  -30108   30138       1   30057   30039   30060   30075       6
   30057   30039   30060   30078       7   30057   30039   30063   30081       6
   30057   30039   30063   30084       7   30057   30054   30069   30090       1
   30057   30072  -30096   30090       1   30057   30072   30096   30132       1
   30054   30057   30039   30060       7   30054   30057   30039   30063       7
   30054   30057   30072   30096       1   30054   30069  -30090   30096       1
   30039   30012  -30036   30054       1   30039   30057   30054   30069       1
   30039   30057   30072   30096       1   30039   30060   30075   30102       1
   30039   30060  -30078   30084       1   30039   30060   30078   30108       1
   30039   30063   30081   30114       1   30039   30063  -30084   30078       1
   30039   30063   30084   30117       1   30036   30012  -30039   30057       7
   30036   30012   30039   30060       7   30036   30012   30039   30063       7
   30036   30054  -30057   30039       1   30036   30054   30057   30072       1
   30036   30054   30069   30090       1   30030   30045   30066   30087       3
   30024   30045   30066   30087       3   30018   30036   30012   30039       1
   30018   30036   30054   30057       5   30018   30036   30054   30069       5
   30012   30036  -30054   30057       5   30012   30036   30054   30069       5
   30012   30039  -30057   30054       7   30012   30039   30057   30072       6
   30012   30039   30060   30075       6   30012   30039   30060   30078       7
   30012   30039   30063   30081       6   30012   30039   30063   30084       7
   30009   29997   30006   30024       1   30009   30030  -30045   30024       1
   30009   30030   30045   30066       1   30006   29997   30009   30030       1
   30006   30024  -30045   30030       1   30006   30024   30045   30066       1
   30003   29994   30000   30012       1   30003   30018  -30036   30012       1
   30003   30018   30036   30054       1   30000   29994   30003   30018       1
   30000   30012  -30036   30018       1   30000   30012   30036   30054       1
   30000   30012   30039   30057       6   30000   30012   30039   30060       6
   30000   30012   30039   30063       6   29997   29991   29994   30000       4
   29997   29991   29994   30003       4   29997   30006   30024   30045       1
   29997   30009  -30030   30045       1   29994   29991   29997   30006       4
   29994   29991   29997   30009       4   29994   30000   30012   30036       1
   29994   30000   30012   30039       1   29994   30003  -30018   30036       1
   29991   29994   30000   30012       1   29991   29994   30003   30018       1
   29991   29997   30006   30024       1   29991   29997   30009   30030       1
   29982   29991   29994   30000       4   29982   29991   29994   30003       4
   29982   29991   29997   30006       4   29982   29991   29997   30009       4
   29976   29982   29991   29994       4   29976   29982   29991   29997       4
   29970   29982   29991   29994       4   29970   29982   29991   29997       4
   29958   29949   29955   29970       1   29958   29976  -29982   29970       1
   29958   29976   29982   29991       1   29955   29949   29958   29976       1
   29955   29970  -29982   29976       1   29955   29970   29982   29991       1
   29952   29946   29949   29955       3   29952   29946   29949   29958       3
   29949   29955   29970   29982       1   29949   29958  -29976   29982       1
   29946   29949   29955   29970       1   29946   29949   29958   29976       1
   30762   30813   30837   30855       3   30756   30813   30837   30855       3
   30750   30804   30834   30852       3   30744   30804   30834   30852       3
   30738   30795   30831   30849       3   30732   30795   30831   30849       3
   30726   30789   30828   30846       3   30720   30789   30828   30846       3
   30717   30777   30825   30843       3   30711   30777   30825   30843       3
   30702   30768   30822   30840       3   30696   30768   30822   30840       3
   30693   30654   30690   30756       1   30693   30762  -30813   30756       1
   30693   30762   30813   30837       1   30690   30654   30693   30762       1
   30690   30756  -30813   30762       1   30690   30756   30813   30837       1
   30687   30651   30684   30744       1   30687   30750  -30804   30744       1
   30687   30750   30804   30834       1   30684   30651   30687   30750       1
   30684   30744  -30804   30750       1   30684   30744   30804   30834       1
   30681   30645   30678   30732       1   30681   30738  -30795   30732       1
   30681   30738   30795   30831       1   30678   30645   30681   30738       1
   30678   30732  -30795   30738       1   30678   30732   30795   30831       1
   30675   30642   30672   30720       1   30675   30726  -30789   30720       1
   30675   30726   30789   30828       1   30672   30642   30675   30726       1
   30672   30720  -30789   30726       1   30672   30720   30789   30828       1
   30669   30639   30666   30711       1   30669   30717  -30777   30711       1
   30669   30717   30777   30825       1   30666   30639   30669   30717       1
   30666   30711  -30777   30717       1   30666   30711   30777   30825       1
   30663   30636   30660   30696       1   30663   30702  -30768   30696       1
   30663   30702   30768   30822       1   30660   30636   30663   30702       1
   30660   30696  -30768   30702       1   30660   30696   30768   30822       1
   30654   30627   30651   30684       4   30654   30627   30651   30687       4
   30654   30690   30756   30813       1   30654   30693  -30762   30813       1
   30651   30627   30654   30690       4   30651   30627   30654   30693       4
   30651   30684   30744   30804       1   30651   30687  -30750   30804       1
   30645   30618   30642   30672       4   30645   30618   30642   30675       4
   30645   30678   30732   30795       1   30645   30681  -30738   30795       1
   30642   30618   30645   30678       4   30642   30618   30645   30681       4
   30642   30672   30720   30789       1   30642   30675  -30726   30789       1
   30639   30615   30636   30660       4   30639   30615   30636   30663       4
   30639   30666   30711   30777       1   30639   30669  -30717   30777       1
   30636   30615   30639   30666       4   30636   30615   30639   30669       4
   30636   30660   30696   30768       1   30636   30663  -30702   30768       1
   30630   30597   30627   30651       4   30630   30597   30627   30654       4
   30627   30651   30684   30744       1   30627   30651   30687   30750       1
   30627   30654   30690   30756       1   30627   30654   30693   30762       1
   30621   30585   30618   30642       4   30621   30585   30618   30645       4
   30618   30642   30672   30720       1   30618   30642   30675   30726       1
   30618   30645   30678   30732       1   30618   30645   30681   30738       1
   30615   30636   30660   30696       1   30615   30636   30663   30702       1
   30615   30639   30666   30711       1   30615   30639   30669   30717       1
   30600   30630   30597   30627       1   30597   30627   30651   30684       4
   30597   30627   30651   30687       4   30597   30627   30654   30690       4
   30597   30627   30654   30693       4   30591   30561   30567   30600       5
   30591   30621   30585   30618       1   30585   30618   30642   30672       4
   30585   30618   30642   30675       4   30585   30618   30645   30678       4
   30585   30618   30645   30681       4   30579   30615   30636   30660       4
   30579   30615   30636   30663       4   30579   30615   30639   30666       4
   30579   30615   30639   30669       4   30573   30579   30615   30636       4
   30573   30579   30615   30639       4   30567   30546   30564   30597       1
   30567   30561   30591   30621       1   30567   30600  -30630   30597       1
   30564   30546   30567   30600       1   30564   30597   30627   30651       4
   30564   30597   30627   30654       4   30564   30597  -30630   30600       1
   30561   30543   30558   30585       1   30561   30567   30546   30564       1
   30561   30567   30600   30630       1   30561   30591  -30621   30585       1
   30558   30543   30561   30567       1   30558   30543   30561   30591       1
   30558   30585   30618   30642       4   30558   30585   30618   30645       4
   30558   30585  -30621   30591       1   30555   30579   30615   30636       4
   30555   30579   30615   30639       4   30552   30537   30540   30555       1
   30552   30573  -30579   30555       1   30552   30573   30579   30615       1
   30546   30522   30540   30555       6   30546   30522   30543   30558       6
   30546   30522  -30543   30561       7   30546   30564   30597   30627       1
   30546   30564   30597   30630       1   30546   30567   30561   30591       5
   30546   30567  -30600   30630       1   30543   30522   30540   30555       6
   30543   30522   30546   30564       6   30543   30522  -30546   30567       7
   30543   30558   30585   30618       1   30543   30558   30585   30621       1
   30543   30561  -30567   30546       5   30543   30561   30567   30600       5
   30543   30561  -30591   30621       1   30540   30522   30543   30558       6
   30540   30522   30543   30561       7   30540   30522   30546   30564       6
   30540   30522   30546   30567       7   30540   30537   30552   30573       1
   30540   30555  -30579   30573       1   30540   30555   30579   30615       1
   30537   30540   30522   30543       7   30537   30540   30522   30546       7
   30537   30540   30555   30579       1   30537   30552  -30573   30579       1
   30522   30495  -30519   30537       1   30522   30540   30537   30552       1
   30522   30540   30555   30579       1   30522   30543   30558   30585       1
   30522   30543  -30561   30567       1   30522   30543   30561   30591       1
   30522   30546   30564   30597       1   30522   30546  -30567   30561       1
   30522   30546   30567   30600       1   30519   30495  -30522   30540       7
   30519   30495   30522   30543       7   30519   30495   30522   30546       7
   30519   30537  -30540   30522       1   30519   30537   30540   30555       1
   30519   30537   30552   30573       1   30513   30528   30549   30570       3
   30507   30528   30549   30570       3   30501   30519   30495   30522       1
   30501   30519   30537   30540       5   30501   30519   30537   30552       5
   30495   30519  -30537   30540       5   30495   30519   30537   30552       5
   30495   30522  -30540   30537       7   30495   30522   30540   30555       6
   30495   30522   30543   30558       6   30495   30522   30543   30561       7
   30495   30522   30546   30564       6   30495   30522   30546   30567       7
   30492   30480   30489   30507       1   30492   30513  -30528   30507       1
   30492   30513   30528   30549       1   30489   30480   30492   30513       1
   30489   30507  -30528   30513       1   30489   30507   30528   30549       1
   30486   30477   30483   30495       1   30486   30501  -30519   30495       1
   30486   30501   30519   30537       1   30483   30477   30486   30501       1
   30483   30495  -30519   30501       1   30483   30495   30519   30537       1
   30483   30495   30522   30540       6   30483   30495   30522   30543       6
   30483   30495   30522   30546       6   30480   30474   30477   30483       4
   30480   30474   30477   30486       4   30480   30489   30507   30528       1
   30480   30492  -30513   30528       1   30477   30474   30480   30489       4
   30477   30474   30480   30492       4   30477   30483   30495   30519       1
   30477   30483   30495   30522       1   30477   30486  -30501   30519       1
   30474   30477   30483   30495       1   30474   30477   30486   30501       1
   30474   30480   30489   30507       1   30474   30480   30492   30513       1
   30465   30474   30477   30483       4   30465   30474   30477   30486       4
   30465   30474   30480   30489       4   30465   30474   30480   30492       4
   30459   30465   30474   30477       4   30459   30465   30474   30480       4
   30453   30465   30474   30477       4   30453   30465   30474   30480       4
   30441   30432   30438   30453       1   30441   30459  -30465   30453       1
   30441   30459   30465   30474       1   30438   30432   30441   30459       1
   30438   30453  -30465   30459       1   30438   30453   30465   30474       1
   30435   30429   30432   30438       3   30435   30429   30432   30441       3
   30432   30438   30453   30465       1   30432   30441  -30459   30465       1
   30429   30432   30438   30453       1   30429   30432   30441   30459       1
   31245   31296   31320   31338       3   31239   31296   31320   31338       3
   31233   31287   31317   31335       3   31227   31287   31317   31335       3
   31221   31278   31314   31332       3   31215   31278   31314   31332       3
   31209   31272   31311   31329       3   31203   31272   31311   31329       3
   31200   31260   31308   31326       3   31194   31260   31308   31326       3
   31185   31251   31305   31323       3   31179   31251   31305   31323       3
   31176   31137   31173   31239       1   31176   31245  -31296   31239       1
   31176   31245   31296   31320       1   31173   31137   31176   31245       1
   31173   31239  -31296   31245       1   31173   31239   31296   31320       1
   31170   31134   31167   31227       1   31170   31233  -31287   31227       1
   31170   31233   31287   31317       1   31167   31134   31170   31233       1
   31167   31227  -31287   31233       1   31167   31227   31287   31317       1
   31164   31128   31161   31215       1   31164   31221  -31278   31215       1
   31164   31221   31278   31314       1   31161   31128   31164   31221       1
   31161   31215  -31278   31221       1   31161   31215   31278   31314       1
   31158   31125   31155   31203       1   31158   31209  -31272   31203       1
   31158   31209   31272   31311       1   31155   31125   31158   31209       1
   31155   31203  -31272   31209       1   31155   31203   31272   31311       1
   31152   31122   31149   31194       1   31152   31200  -31260   31194       1
   31152   31200   31260   31308       1   31149   31122   31152   31200       1
   31149   31194  -31260   31200       1   31149   31194   31260   31308       1
   31146   31119   31143   31179       1   31146   31185  -31251   31179       1
   31146   31185   31251   31305       1   31143   31119   31146   31185       1
   31143   31179  -31251   31185       1   31143   31179   31251   31305       1
   31137   31110   31134   31167       4   31137   31110   31134   31170       4
   31137   31173   31239   31296       1   31137   31176  -31245   31296       1
   31134   31110   31137   31173       4   31134   31110   31137   31176       4
   31134   31167   31227   31287       1   31134   31170  -31233   31287       1
   31128   31101   31125   31155       4   31128   31101   31125   31158       4
   31128   31161   31215   31278       1   31128   31164  -31221   31278       1
   31125   31101   31128   31161       4   31125   31101   31128   31164       4
   31125   31155   31203   31272       1   31125   31158  -31209   31272       1
   31122   31098   31119   31143       4   31122   31098   31119   31146       4
   31122   31149   31194   31260       1   31122   31152  -31200   31260       1
   31119   31098   31122   31149       4   31119   31098   31122   31152       4
   31119   31143   31179   31251       1   31119   31146  -31185   31251       1
   31113   31080   31110   31134       4   31113   31080   31110   31137       4
   31110   31134   31167   31227       1   31110   31134   31170   31233       1
   31110   31137   31173   31239       1   31110   31137   31176   31245       1
   31104   31068   31101   31125       4   31104   31068   31101   31128       4
   31101   31125   31155   31203       1   31101   31125   31158   31209       1
   31101   31128   31161   31215       1   31101   31128   31164   31221       1
   31098   31119   31143   31179       1   31098   31119   31146   31185       1
   31098   31122   31149   31194       1   31098   31122   31152   31200       1
   31083   31113   31080   31110       1   31080   31110   31134   31167       4
   31080   31110   31134   31170       4   31080   31110   31137   31173       4
   31080   31110   31137   31176       4   31074   31044   31050   31083       5
   31074   31104   31068   31101       1   31068   31101   31125   31155       4
   31068   31101   31125   31158       4   31068   31101   31128   31161       4
   31068   31101   31128   31164       4   31062   31098   31119   31143       4
   31062   31098   31119   31146       4   31062   31098   31122   31149       4
   31062   31098   31122   31152       4   31056   31062   31098   31119       4
   31056   31062   31098   31122       4   31050   31029   31047   31080       1
   31050   31044   31074   31104       1   31050   31083  -31113   31080       1
   31047   31029   31050   31083       1   31047   31080   31110   31134       4
   31047   31080   31110   31137       4   31047   31080  -31113   31083       1
   31044   31026   31041   31068       1   31044   31050   31029   31047       1
   31044   31050   31083   31113       1   31044   31074  -31104   31068       1
   31041   31026   31044   31050       1   31041   31026   31044   31074       1
   31041   31068   31101   31125       4   31041   31068   31101   31128       4
   31041   31068  -31104   31074       1   31038   31062   31098   31119       4
   31038   31062   31098   31122       4   31035   31020   31023   31038       1
   31035   31056  -31062   31038       1   31035   31056   31062   31098       1
   31029   31005   31023   31038       6   31029   31005   31026   31041       6
   31029   31005  -31026   31044       7   31029   31047   31080   31110       1
   31029   31047   31080   31113       1   31029   31050   31044   31074       5
   31029   31050  -31083   31113       1   31026   31005   31023   31038       6
   31026   31005   31029   31047       6   31026   31005  -31029   31050       7
   31026   31041   31068   31101       1   31026   31041   31068   31104       1
   31026   31044  -31050   31029       5   31026   31044   31050   31083       5
   31026   31044  -31074   31104       1   31023   31005   31026   31041       6
   31023   31005   31026   31044       7   31023   31005   31029   31047       6
   31023   31005   31029   31050       7   31023   31020   31035   31056       1
   31023   31038  -31062   31056       1   31023   31038   31062   31098       1
   31020   31023   31005   31026       7   31020   31023   31005   31029       7
   31020   31023   31038   31062       1   31020   31035  -31056   31062       1
   31005   30978  -31002   31020       1   31005   31023   31020   31035       1
   31005   31023   31038   31062       1   31005   31026   31041   31068       1
   31005   31026  -31044   31050       1   31005   31026   31044   31074       1
   31005   31029   31047   31080       1   31005   31029  -31050   31044       1
   31005   31029   31050   31083       1   31002   30978  -31005   31023       7
   31002   30978   31005   31026       7   31002   30978   31005   31029       7
   31002   31020  -31023   31005       1   31002   31020   31023   31038       1
   31002   31020   31035   31056       1   30996   31011   31032   31053       3
   30990   31011   31032   31053       3   30984   31002   30978   31005       1
   30984   31002   31020   31023       5   30984   31002   31020   31035       5
   30978   31002  -31020   31023       5   30978   31002   31020   31035       5
   30978   31005  -31023   31020       7   30978   31005   31023   31038       6
   30978   31005   31026   31041       6   30978   31005   31026   31044       7
   30978   31005   31029   31047       6   30978   31005   31029   31050       7
   30975   30963   30972   30990       1   30975   30996  -31011   30990       1
   30975   30996   31011   31032       1   30972   30963   30975   30996       1
   30972   30990  -31011   30996       1   30972   30990   31011   31032       1
   30969   30960   30966   30978       1   30969   30984  -31002   30978       1
   30969   30984   31002   31020       1   30966   30960   30969   30984       1
   30966   30978  -31002   30984       1   30966   30978   31002   31020       1
   30966   30978   31005   31023       6   30966   30978   31005   31026       6
   30966   30978   31005   31029       6   30963   30957   30960   30966       4
   30963   30957   30960   30969       4   30963   30972   30990   31011       1
   30963   30975  -30996   31011       1   30960   30957   30963   30972       4
   30960   30957   30963   30975       4   30960   30966   30978   31002       1
   30960   30966   30978   31005       1   30960   30969  -30984   31002       1
   30957   30960   30966   30978       1   30957   30960   30969   30984       1
   30957   30963   30972   30990       1   30957   30963   30975   30996       1
   30948   30957   30960   30966       4   30948   30957   30960   30969       4
   30948   30957   30963   30972       4   30948   30957   30963   30975       4
   30942   30948   30957   30960       4   30942   30948   30957   30963       4
   30936   30948   30957   30960       4   30936   30948   30957   30963       4
   30924   30915   30921   30936       1   30924   30942  -30948   30936       1
   30924   30942   30948   30957       1   30921   30915   30924   30942       1
   30921   30936  -30948   30942       1   30921   30936   30948   30957       1
   30918   30912   30915   30921       3   30918   30912   30915   30924       3
   30915   30921   30936   30948       1   30915   30924  -30942   30948       1
   30912   30915   30921   30936       1   30912   30915   30924   30942       1
   31728   31779   31803   31821       3   31722   31779   31803   31821       3
   31716   31770   31800   31818       3   31710   31770   31800   31818       3
   31704   31761   31797   31815       3   31698   31761   31797   31815       3
   31692   31755   31794   31812       3   31686   31755   31794   31812       3
   31683   31743   31791   31809       3   31677   31743   31791   31809       3
   31668   31734   31788   31806       3   31662   31734   31788   31806       3
   31659   31620   31656   31722       1   31659   31728  -31779   31722       1
   31659   31728   31779   31803       1   31656   31620   31659   31728       1
   31656   31722  -31779   31728       1   31656   31722   31779   31803       1
   31653   31617   31650   31710       1   31653   31716  -31770   31710       1
   31653   31716   31770   31800       1   31650   31617   31653   31716       1
   31650   31710  -31770   31716       1   31650   31710   31770   31800       1
   31647   31611   31644   31698       1   31647   31704  -31761   31698       1
   31647   31704   31761   31797       1   31644   31611   31647   31704       1
   31644   31698  -31761   31704       1   31644   31698   31761   31797       1
   31641   31608   31638   31686       1   31641   31692  -31755   31686       1
   31641   31692   31755   31794       1   31638   31608   31641   31692       1
   31638   31686  -31755   31692       1   31638   31686   31755   31794       1
   31635   31605   31632   31677       1   31635   31683  -31743   31677       1
   31635   31683   31743   31791       1   31632   31605   31635   31683       1
   31632   31677  -31743   31683       1   31632   31677   31743   31791       1
   31629   31602   31626   31662       1   31629   31668  -31734   31662       1
   31629   31668   31734   31788       1   31626   31602   31629   31668       1
   31626   31662  -31734   31668       1   31626   31662   31734   31788       1
   31620   31593   31617   31650       4   31620   31593   31617   31653       4
   31620   31656   31722   31779       1   31620   31659  -31728   31779       1
   31617   31593   31620   31656       4   31617   31593   31620   31659       4
   31617   31650   31710   31770       1   31617   31653  -31716   31770       1
   31611   31584   31608   31638       4   31611   31584   31608   31641       4
   31611   31644   31698   31761       1   31611   31647  -31704   31761       1
   31608   31584   31611   31644       4   31608   31584   31611   31647       4
   31608   31638   31686   31755       1   31608   31641  -31692   31755       1
   31605   31581   31602   31626       4   31605   31581   31602   31629       4
   31605   31632   31677   31743       1   31605   31635  -31683   31743       1
   31602   31581   31605   31632       4   31602   31581   31605   31635       4
   31602   31626   31662   31734       1   31602   31629  -31668   31734       1
   31596   31563   31593   31617       4   31596   31563   31593   31620       4
   31593   31617   31650   31710       1   31593   31617   31653   31716       1
   31593   31620   31656   31722       1   31593   31620   31659   31728       1
   31587   31551   31584   31608       4   31587   31551   31584   31611       4
   31584   31608   31638   31686       1   31584   31608   31641   31692       1
   31584   31611   31644   31698       1   31584   31611   31647   31704       1
   31581   31602   31626   31662       1   31581   31602   31629   31668       1
   31581   31605   31632   31677       1   31581   31605   31635   31683       1
   31566   31596   31563   31593       1   31563   31593   31617   31650       4
   31563   31593   31617   31653       4   31563   31593   31620   31656       4
   31563   31593   31620   31659       4   31557   31527   31533   31566       5
   31557   31587   31551   31584       1   31551   31584   31608   31638       4
   31551   31584   31608   31641       4   31551   31584   31611   31644       4
   31551   31584   31611   31647       4   31545   31581   31602   31626       4
   31545   31581   31602   31629       4   31545   31581   31605   31632       4
   31545   31581   31605   31635       4   31539   31545   31581   31602       4
   31539   31545   31581   31605       4   31533   31512   31530   31563       1
   31533   31527   31557   31587       1   31533   31566  -31596   31563       1
   31530   31512   31533   31566       1   31530   31563   31593   31617       4
   31530   31563   31593   31620       4   31530   31563  -31596   31566       1
   31527   31509   31524   31551       1   31527   31533   31512   31530       1
   31527   31533   31566   31596       1   31527   31557  -31587   31551       1
   31524   31509   31527   31533       1   31524   31509   31527   31557       1
   31524   31551   31584   31608       4   31524   31551   31584   31611       4
   31524   31551  -31587   31557       1   31521   31545   31581   31602       4
   31521   31545   31581   31605       4   31518   31503   31506   31521       1
   31518   31539  -31545   31521       1   31518   31539   31545   31581       1
   31512   31488   31506   31521       6   31512   31488   31509   31524       6
   31512   31488  -31509   31527       7   31512   31530   31563   31593       1
   31512   31530   31563   31596       1   31512   31533   31527   31557       5
   31512   31533  -31566   31596       1   31509   31488   31506   31521       6
   31509   31488   31512   31530       6   31509   31488  -31512   31533       7
   31509   31524   31551   31584       1   31509   31524   31551   31587       1
   31509   31527  -31533   31512       5   31509   31527   31533   31566       5
   31509   31527  -31557   31587       1   31506   31488   31509   31524       6
   31506   31488   31509   31527       7   31506   31488   31512   31530       6
   31506   31488   31512   31533       7   31506   31503   31518   31539       1
   31506   31521  -31545   31539       1   31506   31521   31545   31581       1
   31503   31506   31488   31509       7   31503   31506   31488   31512       7
   31503   31506   31521   31545       1   31503   31518  -31539   31545       1
   31488   31461  -31485   31503       1   31488   31506   31503   31518       1
   31488   31506   31521   31545       1   31488   31509   31524   31551       1
   31488   31509  -31527   31533       1   31488   31509   31527   31557       1
   31488   31512   31530   31563       1   31488   31512  -31533   31527       1
   31488   31512   31533   31566       1   31485   31461  -31488   31506       7
   31485   31461   31488   31509       7   31485   31461   31488   31512       7
   31485   31503  -31506   31488       1   31485   31503   31506   31521       1
   31485   31503   31518   31539       1   31479   31494   31515   31536       3
   31473   31494   31515   31536       3   31467   31485   31461   31488       1
   31467   31485   31503   31506       5   31467   31485   31503   31518       5
   31461   31485  -31503   31506       5   31461   31485   31503   31518       5
   31461   31488  -31506   31503       7   31461   31488   31506   31521       6
   31461   31488   31509   31524       6   31461   31488   31509   31527       7
   31461   31488   31512   31530       6   31461   31488   31512   31533       7
   31458   31446   31455   31473       1   31458   31479  -31494   31473       1
   31458   31479   31494   31515       1   31455   31446   31458   31479       1
   31455   31473  -31494   31479       1   31455   31473   31494   31515       1
   31452   31443   31449   31461       1   31452   31467  -31485   31461       1
   31452   31467   31485   31503       1   31449   31443   31452   31467       1
   31449   31461  -31485   31467       1   31449   31461   31485   31503       1
   31449   31461   31488   31506       6   31449   31461   31488   31509       6
   31449   31461   31488   31512       6   31446   31440   31443   31449       4
   31446   31440   31443   31452       4   31446   31455   31473   31494       1
   31446   31458  -31479   31494       1   31443   31440   31446   31455       4
   31443   31440   31446   31458       4   31443   31449   31461   31485       1
   31443   31449   31461   31488       1   31443   31452  -31467   31485       1
   31440   31443   31449   31461       1   31440   31443   31452   31467       1
   31440   31446   31455   31473       1   31440   31446   31458   31479       1
   31431   31440   31443   31449       4   31431   31440   31443   31452       4
   31431   31440   31446   31455       4   31431   31440   31446   31458       4
   31425   31431   31440   31443       4   31425   31431   31440   31446       4
   31419   31431   31440   31443       4   31419   31431   31440   31446       4
   31407   31398   31404   31419       1   31407   31425  -31431   31419       1
   31407   31425   31431   31440       1   31404   31398   31407   31425       1
   31404   31419  -31431   31425       1   31404   31419   31431   31440       1
   31401   31395   31398   31404       3   31401   31395   31398   31407       3
   31398   31404   31419   31431       1   31398   31407  -31425   31431       1
   31395   31398   31404   31419       1   31395   31398   31407   31425       1
   32211   32262   32286   32304       3   32205   32262   32286   32304       3
   32199   32253   32283   32301       3   32193   32253   32283   32301       3
   32187   32244   32280   32298       3   32181   32244   32280   32298       3
   32175   32238   32277   32295       3   32169   32238   32277   32295       3
   32166   32226   32274   32292       3   32160   32226   32274   32292       3
   32151   32217   32271   32289       3   32145   32217   32271   32289       3
   32142   32103   32139   32205       1   32142   32211  -32262   32205       1
   32142   32211   32262   32286       1   32139   32103   32142   32211       1
   32139   32205  -32262   32211       1   32139   32205   32262   32286       1
   32136   32100   32133   32193       1   32136   32199  -32253   32193       1
   32136   32199   32253   32283       1   32133   32100   32136   32199       1
   32133   32193  -32253   32199       1   32133   32193   32253   32283       1
   32130   32094   32127   32181       1   32130   32187  -32244   32181       1
   32130   32187   32244   32280       1   32127   32094   32130   32187       1
   32127   32181  -32244   32187       1   32127   32181   32244   32280       1
   32124   32091   32121   32169       1   32124   32175  -32238   32169       1
   32124   32175   32238   32277       1   32121   32091   32124   32175       1
   32121   32169  -32238   32175       1   32121   32169   32238   32277       1
   32118   32088   32115   32160       1   32118   32166  -32226   32160       1
   32118   32166   32226   32274       1   32115   32088   32118   32166       1
   32115   32160  -32226   32166       1   32115   32160   32226   32274       1
   32112   32085   32109   32145       1   32112   32151  -32217   32145       1
   32112   32151   32217   32271       1   32109   32085   32112   32151       1
   32109   32145  -32217   32151       1   32109   32145   32217   32271       1
   32103   32076   32100   32133       4   32103   32076   32100   32136       4
   32103   32139   32205   32262       1   32103   32142  -32211   32262       1
   32100   32076   32103   32139       4   32100   32076   32103   32142       4
   32100   32133   32193   32253       1   32100   32136  -32199   32253       1
   32094   32067   32091   32121       4   32094   32067   32091   32124       4
   32094   32127   32181   32244       1   32094   32130  -32187   32244       1
   32091   32067   32094   32127       4   32091   32067   32094   32130       4
   32091   32121   32169   32238       1   32091   32124  -32175   32238       1
   32088   32064   32085   32109       4   32088   32064   32085   32112       4
   32088   32115   32160   32226       1   32088   32118  -32166   32226       1
   32085   32064   32088   32115       4   32085   32064   32088   32118       4
   32085   32109   32145   32217       1   32085   32112  -32151   32217       1
   32079   32046   32076   32100       4   32079   32046   32076   32103       4
   32076   32100   32133   32193       1   32076   32100   32136   32199       1
   32076   32103   32139   32205       1   32076   32103   32142   32211       1
   32070   32034   32067   32091       4   32070   32034   32067   32094       4
   32067   32091   32121   32169       1   32067   32091   32124   32175       1
   32067   32094   32127   32181       1   32067   32094   32130   32187       1
   32064   32085   32109   32145       1   32064   32085   32112   32151       1
   32064   32088   32115   32160       1   32064   32088   32118   32166       1
   32049   32079   32046   32076       1   32046   32076   32100   32133       4
   32046   32076   32100   32136       4   32046   32076   32103   32139       4
   32046   32076   32103   32142       4   32040   32010   32016   32049       5
   32040   32070   32034   32067       1   32034   32067   32091   32121       4
   32034   32067   32091   32124       4   32034   32067   32094   32127       4
   32034   32067   32094   32130       4   32028   32064   32085   32109       4
   32028   32064   32085   32112       4   32028   32064   32088   32115       4
   32028   32064   32088   32118       4   32022   32028   32064   32085       4
   32022   32028   32064   32088       4   32016   31995   32013   32046       1
   32016   32010   32040   32070       1   32016   32049  -32079   32046       1
   32013   31995   32016   32049       1   32013   32046   32076   32100       4
   32013   32046   32076   32103       4   32013   32046  -32079   32049       1
   32010   31992   32007   32034       1   32010   32016   31995   32013       1
   32010   32016   32049   32079       1   32010   32040  -32070   32034       1
   32007   31992   32010   32016       1   32007   31992   32010   32040       1
   32007   32034   32067   32091       4   32007   32034   32067   32094       4
   32007   32034  -32070   32040       1   32004   32028   32064   32085       4
   32004   32028   32064   32088       4   32001   31986   31989   32004       1
   32001   32022  -32028   32004       1   32001   32022   32028   32064       1
   31995   31971   31989   32004       6   31995   31971   31992   32007       6
   31995   31971  -31992   32010       7   31995   32013   32046   32076       1
   31995   32013   32046   32079       1   31995   32016   32010   32040       5
   31995   32016  -32049   32079       1   31992   31971   31989   32004       6
   31992   31971   31995   32013       6   31992   31971  -31995   32016       7
   31992   32007   32034   32067       1   31992   32007   32034   32070       1
   31992   32010  -32016   31995       5   31992   32010   32016   32049       5
   31992   32010  -32040   32070       1   31989   31971   31992   32007       6
   31989   31971   31992   32010       7   31989   31971   31995   32013       6
   31989   31971   31995   32016       7   31989   31986   32001   32022       1
   31989   32004  -32028   32022       1   31989   32004   32028   32064       1
   31986   31989   31971   31992       7   31986   31989   31971   31995       7
   31986   31989   32004   32028       1   31986   32001  -32022   32028       1
   31971   31944  -31968   31986       1   31971   31989   31986   32001       1
   31971   31989   32004   32028       1   31971   31992   32007   32034       1
   31971   31992  -32010   32016       1   31971   31992   32010   32040       1
   31971   31995   32013   32046       1   31971   31995  -32016   32010       1
   31971   31995   32016   32049       1   31968   31944  -31971   31989       7
   31968   31944   31971   31992       7   31968   31944   31971   31995       7
   31968   31986  -31989   31971       1   31968   31986   31989   32004       1
   31968   31986   32001   32022       1   31962   31977   31998   32019       3
   31956   31977   31998   32019       3   31950   31968   31944   31971       1
   31950   31968   31986   31989       5   31950   31968   31986   32001       5
   31944   31968  -31986   31989       5   31944   31968   31986   32001       5
   31944   31971  -31989   31986       7   31944   31971   31989   32004       6
   31944   31971   31992   32007       6   31944   31971   31992   32010       7
   31944   31971   31995   32013       6   31944   31971   31995   32016       7
   31941   31929   31938   31956       1   31941   31962  -31977   31956       1
   31941   31962   31977   31998       1   31938   31929   31941   31962       1
   31938   31956  -31977   31962       1   31938   31956   31977   31998       1
   31935   31926   31932   31944       1   31935   31950  -31968   31944       1
   31935   31950   31968   31986       1   31932   31926   31935   31950       1
   31932   31944  -31968   31950       1   31932   31944   31968   31986       1
   31932   31944   31971   31989       6   31932   31944   31971   31992       6
   31932   31944   31971   31995       6   31929   31923   31926   31932       4
   31929   31923   31926   31935       4   31929   31938   31956   31977       1
   31929   31941  -31962   31977       1   31926   31923   31929   31938       4
   31926   31923   31929   31941       4   31926   31932   31944   31968       1
   31926   31932   31944   31971       1   31926   31935  -31950   31968       1
   31923   31926   31932   31944       1   31923   31926   31935   31950       1
   31923   31929   31938   31956       1   31923   31929   31941   31962       1
   31914   31923   31926   31932       4   31914   31923   31926   31935       4
   31914   31923   31929   31938       4   31914   31923   31929   31941       4
   31908   31914   31923   31926       4   31908   31914   31923   31929       4
   31902   31914   31923   31926       4   31902   31914   31923   31929       4
   31890   31881   31887   31902       1   31890   31908  -31914   31902       1
   31890   31908   31914   31923       1   31887   31881   31890   31908       1
   31887   31902  -31914   31908       1   31887   31902   31914   31923       1
   31884   31878   31881   31887       3   31884   31878   31881   31890       3
   31881   31887   31902   31914       1   31881   31890  -31908   31914       1
   31878   31881   31887   31902       1   31878   31881   31890   31908       1
   32694   32745   32769   32787       3   32688   32745   32769   32787       3
   32682   32736   32766   32784       3   32676   32736   32766   32784       3
   32670   32727   32763   32781       3   32664   32727   32763   32781       3
   32658   32721   32760   32778       3   32652   32721   32760   32778       3
   32649   32709   32757   32775       3   32643   32709   32757   32775       3
   32634   32700   32754   32772       3   32628   32700   32754   32772       3
   32625   32586   32622   32688       1   32625   32694  -32745   32688       1
   32625   32694   32745   32769       1   32622   32586   32625   32694       1
   32622   32688  -32745   32694       1   32622   32688   32745   32769       1
   32619   32583   32616   32676       1   32619   32682  -32736   32676       1
   32619   32682   32736   32766       1   32616   32583   32619   32682       1
   32616   32676  -32736   32682       1   32616   32676   32736   32766       1
   32613   32577   32610   32664       1   32613   32670  -32727   32664       1
   32613   32670   32727   32763       1   32610   32577   32613   32670       1
   32610   32664  -32727   32670       1   32610   32664   32727   32763       1
   32607   32574   32604   32652       1   32607   32658  -32721   32652       1
   32607   32658   32721   32760       1   32604   32574   32607   32658       1
   32604   32652  -32721   32658       1   32604   32652   32721   32760       1
   32601   32571   32598   32643       1   32601   32649  -32709   32643       1
   32601   32649   32709   32757       1   32598   32571   32601   32649       1
   32598   32643  -32709   32649       1   32598   32643   32709   32757       1
   32595   32568   32592   32628       1   32595   32634  -32700   32628       1
   32595   32634   32700   32754       1   32592   32568   32595   32634       1
   32592   32628  -32700   32634       1   32592   32628   32700   32754       1
   32586   32559   32583   32616       4   32586   32559   32583   32619       4
   32586   32622   32688   32745       1   32586   32625  -32694   32745       1
   32583   32559   32586   32622       4   32583   32559   32586   32625       4
   32583   32616   32676   32736       1   32583   32619  -32682   32736       1
   32577   32550   32574   32604       4   32577   32550   32574   32607       4
   32577   32610   32664   32727       1   32577   32613  -32670   32727       1
   32574   32550   32577   32610       4   32574   32550   32577   32613       4
   32574   32604   32652   32721       1   32574   32607  -32658   32721       1
   32571   32547   32568   32592       4   32571   32547   32568   32595       4
   32571   32598   32643   32709       1   32571   32601  -32649   32709       1
   32568   32547   32571   32598       4   32568   32547   32571   32601       4
   32568   32592   32628   32700       1   32568   32595  -32634   32700       1
   32562   32529   32559   32583       4   32562   32529   32559   32586       4
   32559   32583   32616   32676       1   32559   32583   32619   32682       1
   32559   32586   32622   32688       1   32559   32586   32625   32694       1
   32553   32517   32550   32574       4   32553   32517   32550   32577       4
   32550   32574   32604   32652       1   32550   32574   32607   32658       1
   32550   32577   32610   32664       1   32550   32577   32613   32670       1
   32547   32568   32592   32628       1   32547   32568   32595   32634       1
   32547   32571   32598   32643       1   32547   32571   32601   32649       1
   32532   32562   32529   32559       1   32529   32559   32583   32616       4
   32529   32559   32583   32619       4   32529   32559   32586   32622       4
   32529   32559   32586   32625       4   32523   32493   32499   32532       5
   32523   32553   32517   32550       1   32517   32550   32574   32604       4
   32517   32550   32574   32607       4   32517   32550   32577   32610       4
   32517   32550   32577   32613       4   32511   32547   32568   32592       4
   32511   32547   32568   32595       4   32511   32547   32571   32598       4
   32511   32547   32571   32601       4   32505   32511   32547   32568       4
   32505   32511   32547   32571       4   32499   32478   32496   32529       1
   32499   32493   32523   32553       1   32499   32532  -32562   32529       1
   32496   32478   32499   32532       1   32496   32529   32559   32583       4
   32496   32529   32559   32586       4   32496   32529  -32562   32532       1
   32493   32475   32490   32517       1   32493   32499   32478   32496       1
   32493   32499   32532   32562       1   32493   32523  -32553   32517       1
   32490   32475   32493   32499       1   32490   32475   32493   32523       1
   32490   32517   32550   32574       4   32490   32517   32550   32577       4
   32490   32517  -32553   32523       1   32487   32511   32547   32568       4
   32487   32511   32547   32571       4   32484   32469   32472   32487       1
   32484   32505  -32511   32487       1   32484   32505   32511   32547       1
   32478   32454   32472   32487       6   32478   32454   32475   32490       6
   32478   32454  -32475   32493       7   32478   32496   32529   32559       1
   32478   32496   32529   32562       1   32478   32499   32493   32523       5
   32478   32499  -32532   32562       1   32475   32454   32472   32487       6
   32475   32454   32478   32496       6   32475   32454  -32478   32499       7
   32475   32490   32517   32550       1   32475   32490   32517   32553       1
   32475   32493  -32499   32478       5   32475   32493   32499   32532       5
   32475   32493  -32523   32553       1   32472   32454   32475   32490       6
   32472   32454   32475   32493       7   32472   32454   32478   32496       6
   32472   32454   32478   32499       7   32472   32469   32484   32505       1
   32472   32487  -32511   32505       1   32472   32487   32511   32547       1
   32469   32472   32454   32475       7   32469   32472   32454   32478       7
   32469   32472   32487   32511       1   32469   32484  -32505   32511       1
   32454   32427  -32451   32469       1   32454   32472   32469   32484       1
   32454   32472   32487   32511       1   32454   32475   32490   32517       1
   32454   32475  -32493   32499       1   32454   32475   32493   32523       1
   32454   32478   32496   32529       1   32454   32478  -32499   32493       1
   32454   32478   32499   32532       1   32451   32427  -32454   32472       7
   32451   32427   32454   32475       7   32451   32427   32454   32478       7
   32451   32469  -32472   32454       1   32451   32469   32472   32487       1
   32451   32469   32484   32505       1   32445   32460   32481   32502       3
   32439   32460   32481   32502       3   32433   32451   32427   32454       1
   32433   32451   32469   32472       5   32433   32451   32469   32484       5
   32427   32451  -32469   32472       5   32427   32451   32469   32484       5
   32427   32454  -32472   32469       7   32427   32454   32472   32487       6
   32427   32454   32475   32490       6   32427   32454   32475   32493       7
   32427   32454   32478   32496       6   32427   32454   32478   32499       7
   32424   32412   32421   32439       1   32424   32445  -32460   32439       1
   32424   32445   32460   32481       1   32421   32412   32424   32445       1
   32421   32439  -32460   32445       1   32421   32439   32460   32481       1
   32418   32409   32415   32427       1   32418   32433  -32451   32427       1
   32418   32433   32451   32469       1   32415   32409   32418   32433       1
   32415   32427  -32451   32433       1   32415   32427   32451   32469       1
   32415   32427   32454   32472       6   32415   32427   32454   32475       6
   32415   32427   32454   32478       6   32412   32406   32409   32415       4
   32412   32406   32409   32418       4   32412   32421   32439   32460       1
   32412   32424  -32445   32460       1   32409   32406   32412   32421       4
   32409   32406   32412   32424       4   32409   32415   32427   32451       1
   32409   32415   32427   32454       1   32409   32418  -32433   32451       1
   32406   32409   32415   32427       1   32406   32409   32418   32433       1
   32406   32412   32421   32439       1   32406   32412   32424   32445       1
   32397   32406   32409   32415       4   32397   32406   32409   32418       4
   32397   32406   32412   32421       4   32397   32406   32412   32424       4
   32391   32397   32406   32409       4   32391   32397   32406   32412       4
   32385   32397   32406   32409       4   32385   32397   32406   32412       4
   32373   32364   32370   32385       1   32373   32391  -32397   32385       1
   32373   32391   32397   32406       1   32370   32364   32373   32391       1
   32370   32385  -32397   32391       1   32370   32385   32397   32406       1
   32367   32361   32364   32370       3   32367   32361   32364   32373       3
   32364   32370   32385   32397       1   32364   32373  -32391   32397       1
   32361   32364   32370   32385       1   32361   32364   32373   32391       1
   33177   33228   33252   33270       3   33171   33228   33252   33270       3
   33165   33219   33249   33267       3   33159   33219   33249   33267       3
   33153   33210   33246   33264       3   33147   33210   33246   33264       3
   33141   33204   33243   33261       3   33135   33204   33243   33261       3
   33132   33192   33240   33258       3   33126   33192   33240   33258       3
   33117   33183   33237   33255       3   33111   33183   33237   33255       3
   33108   33069   33105   33171       1   33108   33177  -33228   33171       1
   33108   33177   33228   33252       1   33105   33069   33108   33177       1
   33105   33171  -33228   33177       1   33105   33171   33228   33252       1
   33102   33066   33099   33159       1   33102   33165  -33219   33159       1
   33102   33165   33219   33249       1   33099   33066   33102   33165       1
   33099   33159  -33219   33165       1   33099   33159   33219   33249       1
   33096   33060   33093   33147       1   33096   33153  -33210   33147       1
   33096   33153   33210   33246       1   33093   33060   33096   33153       1
   33093   33147  -33210   33153       1   33093   33147   33210   33246       1
   33090   33057   33087   33135       1   33090   33141  -33204   33135       1
   33090   33141   33204   33243       1   33087   33057   33090   33141       1
   33087   33135  -33204   33141       1   33087   33135   33204   33243       1
   33084   33054   33081   33126       1   33084   33132  -33192   33126       1
   33084   33132   33192   33240       1   33081   33054   33084   33132       1
   33081   33126  -33192   33132       1   33081   33126   33192   33240       1
   33078   33051   33075   33111       1   33078   33117  -33183   33111       1
   33078   33117   33183   33237       1   33075   33051   33078   33117       1
   33075   33111  -33183   33117       1   33075   33111   33183   33237       1
   33069   33042   33066   33099       4   33069   33042   33066   33102       4
   33069   33105   33171   33228       1   33069   33108  -33177   33228       1
   33066   33042   33069   33105       4   33066   33042   33069   33108       4
   33066   33099   33159   33219       1   33066   33102  -33165   33219       1
   33060   33033   33057   33087       4   33060   33033   33057   33090       4
   33060   33093   33147   33210       1   33060   33096  -33153   33210       1
   33057   33033   33060   33093       4   33057   33033   33060   33096       4
   33057   33087   33135   33204       1   33057   33090  -33141   33204       1
   33054   33030   33051   33075       4   33054   33030   33051   33078       4
   33054   33081   33126   33192       1   33054   33084  -33132   33192       1
   33051   33030   33054   33081       4   33051   33030   33054   33084       4
   33051   33075   33111   33183       1   33051   33078  -33117   33183       1
   33045   33012   33042   33066       4   33045   33012   33042   33069       4
   33042   33066   33099   33159       1   33042   33066   33102   33165       1
   33042   33069   33105   33171       1   33042   33069   33108   33177       1
   33036   33000   33033   33057       4   33036   33000   33033   33060       4
   33033   33057   33087   33135       1   33033   33057   33090   33141       1
   33033   33060   33093   33147       1   33033   33060   33096   33153       1
   33030   33051   33075   33111       1   33030   33051   33078   33117       1
   33030   33054   33081   33126       1   33030   33054   33084   33132       1
   33015   33045   33012   33042       1   33012   33042   33066   33099       4
   33012   33042   33066   33102       4   33012   33042   33069   33105       4
   33012   33042   33069   33108       4   33006   32976   32982   33015       5
   33006   33036   33000   33033       1   33000   33033   33057   33087       4
   33000   33033   33057   33090       4   33000   33033   33060   33093       4
   33000   33033   33060   33096       4   32994   33030   33051   33075       4
   32994   33030   33051   33078       4   32994   33030   33054   33081       4
   32994   33030   33054   33084       4   32988   32994   33030   33051       4
   32988   32994   33030   33054       4   32982   32961   32979   33012       1
   32982   32976   33006   33036       1   32982   33015  -33045   33012       1
   32979   32961   32982   33015       1   32979   33012   33042   33066       4
   32979   33012   33042   33069       4   32979   33012  -33045   33015       1
   32976   32958   32973   33000       1   32976   32982   32961   32979       1
   32976   32982   33015   33045       1   32976   33006  -33036   33000       1
   32973   32958   32976   32982       1   32973   32958   32976   33006       1
   32973   33000   33033   33057       4   32973   33000   33033   33060       4
   32973   33000  -33036   33006       1   32970   32994   33030   33051       4
   32970   32994   33030   33054       4   32967   32952   32955   32970       1
   32967   32988  -32994   32970       1   32967   32988   32994   33030       1
   32961   32937   32955   32970       6   32961   32937   32958   32973       6
   32961   32937  -32958   32976       7   32961   32979   33012   33042       1
   32961   32979   33012   33045       1   32961   32982   32976   33006       5
   32961   32982  -33015   33045       1   32958   32937   32955   32970       6
   32958   32937   32961   32979       6   32958   32937  -32961   32982       7
   32958   32973   33000   33033       1   32958   32973   33000   33036       1
   32958   32976  -32982   32961       5   32958   32976   32982   33015       5
   32958   32976  -33006   33036       1   32955   32937   32958   32973       6
   32955   32937   32958   32976       7   32955   32937   32961   32979       6
   32955   32937   32961   32982       7   32955   32952   32967   32988       1
   32955   32970  -32994   32988       1   32955   32970   32994   33030       1
   32952   32955   32937   32958       7   32952   32955   32937   32961       7
   32952   32955   32970   32994       1   32952   32967  -32988   32994       1
   32937   32910  -32934   32952       1   32937   32955   32952   32967       1
   32937   32955   32970   32994       1   32937   32958   32973   33000       1
   32937   32958  -32976   32982       1   32937   32958   32976   33006       1
   32937   32961   32979   33012       1   32937   32961  -32982   32976       1
   32937   32961   32982   33015       1   32934   32910  -32937   32955       7
   32934   32910   32937   32958       7   32934   32910   32937   32961       7
   32934   32952  -32955   32937       1   32934   32952   32955   32970       1
   32934   32952   32967   32988       1   32928   32943   32964   32985       3
   32922   32943   32964   32985       3   32916   32934   32910   32937       1
   32916   32934   32952   32955       5   32916   32934   32952   32967       5
   32910   32934  -32952   32955       5   32910   32934   32952   32967       5
   32910   32937  -32955   32952       7   32910   32937   32955   32970       6
   32910   32937   32958   32973       6   32910   32937   32958   32976       7
   32910   32937   32961   32979       6   32910   32937   32961   32982       7
   32907   32895   32904   32922       1   32907   32928  -32943   32922       1
   32907   32928   32943   32964       1   32904   32895   32907   32928       1
   32904   32922  -32943   32928       1   32904   32922   32943   32964       1
   32901   32892   32898   32910       1   32901   32916  -32934   32910       1
   32901   32916   32934   32952       1   32898   32892   32901   32916       1
   32898   32910  -32934   32916       1   32898   32910   32934   32952       1
   32898   32910   32937   32955       6   32898   32910   32937   32958       6
   32898   32910   32937   32961       6   32895   32889   32892   32898       4
   32895   32889   32892   32901       4   32895   32904   32922   32943       1
   32895   32907  -32928   32943       1   32892   32889   32895   32904       4
   32892   32889   32895   32907       4   32892   32898   32910   32934       1
   32892   32898   32910   32937       1   32892   32901  -32916   32934       1
   32889   32892   32898   32910       1   32889   32892   32901   32916       1
   32889   32895   32904   32922       1   32889   32895   32907   32928       1
   32880   32889   32892   32898       4   32880   32889   32892   32901       4
   32880   32889   32895   32904       4   32880   32889   32895   32907       4
   32874   32880   32889   32892       4   32874   32880   32889   32895       4
   32868   32880   32889   32892       4   32868   32880   32889   32895       4
   32856   32847   32853   32868       1   32856   32874  -32880   32868       1
   32856   32874   32880   32889       1   32853   32847   32856   32874       1
   32853   32868  -32880   32874       1   32853   32868   32880   32889       1
   32850   32844   32847   32853       3   32850   32844   32847   32856       3
   32847   32853   32868   32880       1   32847   32856  -32874   32880       1
   32844   32847   32853   32868       1   32844   32847   32856   32874       1
   33660   33711   33735   33753       3   33654   33711   33735   33753       3
   33648   33702   33732   33750       3   33642   33702   33732   33750       3
   33636   33693   33729   33747       3   33630   33693   33729   33747       3
   33624   33687   33726   33744       3   33618   33687   33726   33744       3
   33615   33675   33723   33741       3   33609   33675   33723   33741       3
   33600   33666   33720   33738       3   33594   33666   33720   33738       3
   33591   33552   33588   33654       1   33591   33660  -33711   33654       1
   33591   33660   33711   33735       1   33588   33552   33591   33660       1
   33588   33654  -33711   33660       1   33588   33654   33711   33735       1
   33585   33549   33582   33642       1   33585   33648  -33702   33642       1
   33585   33648   33702   33732       1   33582   33549   33585   33648       1
   33582   33642  -33702   33648       1   33582   33642   33702   33732       1
   33579   33543   33576   33630       1   33579   33636  -33693   33630       1
   33579   33636   33693   33729       1   33576   33543   33579   33636       1
   33576   33630  -33693   33636       1   33576   33630   33693   33729       1
   33573   33540   33570   33618       1   33573   33624  -33687   33618       1
   33573   33624   33687   33726       1   33570   33540   33573   33624       1
   33570   33618  -33687   33624       1   33570   33618   33687   33726       1
   33567   33537   33564   33609       1   33567   33615  -33675   33609       1
   33567   33615   33675   33723       1   33564   33537   33567   33615       1
   33564   33609  -33675   33615       1   33564   33609   33675   33723       1
   33561   33534   33558   33594       1   33561   33600  -33666   33594       1
   33561   33600   33666   33720       1   33558   33534   33561   33600       1
   33558   33594  -33666   33600       1   33558   33594   33666   33720       1
   33552   33525   33549   33582       4   33552   33525   33549   33585       4
   33552   33588   33654   33711       1   33552   33591  -33660   33711       1
   33549   33525   33552   33588       4   33549   33525   33552   33591       4
   33549   33582   33642   33702       1   33549   33585  -33648   33702       1
   33543   33516   33540   33570       4   33543   33516   33540   33573       4
   33543   33576   33630   33693       1   33543   33579  -33636   33693       1
   33540   33516   33543   33576       4   33540   33516   33543   33579       4
   33540   33570   33618   33687       1   33540   33573  -33624   33687       1
   33537   33513   33534   33558       4   33537   33513   33534   33561       4
   33537   33564   33609   33675       1   33537   33567  -33615   33675       1
   33534   33513   33537   33564       4   33534   33513   33537   33567       4
   33534   33558   33594   33666       1   33534   33561  -33600   33666       1
   33528   33495   33525   33549       4   33528   33495   33525   33552       4
   33525   33549   33582   33642       1   33525   33549   33585   33648       1
   33525   33552   33588   33654       1   33525   33552   33591   33660       1
   33519   33483   33516   33540       4   33519   33483   33516   33543       4
   33516   33540   33570   33618       1   33516   33540   33573   33624       1
   33516   33543   33576   33630       1   33516   33543   33579   33636       1
   33513   33534   33558   33594       1   33513   33534   33561   33600       1
   33513   33537   33564   33609       1   33513   33537   33567   33615       1
   33498   33528   33495   33525       1   33495   33525   33549   33582       4
   33495   33525   33549   33585       4   33495   33525   33552   33588       4
   33495   33525   33552   33591       4   33489   33459   33465   33498       5
   33489   33519   33483   33516       1   33483   33516   33540   33570       4
   33483   33516   33540   33573       4   33483   33516   33543   33576       4
   33483   33516   33543   33579       4   33477   33513   33534   33558       4
   33477   33513   33534   33561       4   33477   33513   33537   33564       4
   33477   33513   33537   33567       4   33471   33477   33513   33534       4
   33471   33477   33513   33537       4   33465   33444   33462   33495       1
   33465   33459   33489   33519       1   33465   33498  -33528   33495       1
   33462   33444   33465   33498       1   33462   33495   33525   33549       4
   33462   33495   33525   33552       4   33462   33495  -33528   33498       1
   33459   33441   33456   33483       1   33459   33465   33444   33462       1
   33459   33465   33498   33528       1   33459   33489  -33519   33483       1
   33456   33441   33459   33465       1   33456   33441   33459   33489       1
   33456   33483   33516   33540       4   33456   33483   33516   33543       4
   33456   33483  -33519   33489       1   33453   33477   33513   33534       4
   33453   33477   33513   33537       4   33450   33435   33438   33453       1
   33450   33471  -33477   33453       1   33450   33471   33477   33513       1
   33444   33420   33438   33453       6   33444   33420   33441   33456       6
   33444   33420  -33441   33459       7   33444   33462   33495   33525       1
   33444   33462   33495   33528       1   33444   33465   33459   33489       5
   33444   33465  -33498   33528       1   33441   33420   33438   33453       6
   33441   33420   33444   33462       6   33441   33420  -33444   33465       7
   33441   33456   33483   33516       1   33441   33456   33483   33519       1
   33441   33459  -33465   33444       5   33441   33459   33465   33498       5
   33441   33459  -33489   33519       1   33438   33420   33441   33456       6
   33438   33420   33441   33459       7   33438   33420   33444   33462       6
   33438   33420   33444   33465       7   33438   33435   33450   33471       1
   33438   33453  -33477   33471       1   33438   33453   33477   33513       1
   33435   33438   33420   33441       7   33435   33438   33420   33444       7
   33435   33438   33453   33477       1   33435   33450  -33471   33477       1
   33420   33393  -33417   33435       1   33420   33438   33435   33450       1
   33420   33438   33453   33477       1   33420   33441   33456   33483       1
   33420   33441  -33459   33465       1   33420   33441   33459   33489       1
   33420   33444   33462   33495       1   33420   33444  -33465   33459       1
   33420   33444   33465   33498       1   33417   33393  -33420   33438       7
   33417   33393   33420   33441       7   33417   33393   33420   33444       7
   33417   33435  -33438   33420       1   33417   33435   33438   33453       1
   33417   33435   33450   33471       1   33411   33426   33447   33468       3
   33405   33426   33447   33468       3   33399   33417   33393   33420       1
   33399   33417   33435   33438       5   33399   33417   33435   33450       5
   33393   33417  -33435   33438       5   33393   33417   33435   33450       5
   33393   33420  -33438   33435       7   33393   33420   33438   33453       6
   33393   33420   33441   33456       6   33393   33420   33441   33459       7
   33393   33420   33444   33462       6   33393   33420   33444   33465       7
   33390   33378   33387   33405       1   33390   33411  -33426   33405       1
   33390   33411   33426   33447       1   33387   33378   33390   33411       1
   33387   33405  -33426   33411       1   33387   33405   33426   33447       1
   33384   33375   33381   33393       1   33384   33399  -33417   33393       1
   33384   33399   33417   33435       1   33381   33375   33384   33399       1
   33381   33393  -33417   33399       1   33381   33393   33417   33435       1
   33381   33393   33420   33438       6   33381   33393   33420   33441       6
   33381   33393   33420   33444       6   33378   33372   33375   33381       4
   33378   33372   33375   33384       4   33378   33387   33405   33426       1
   33378   33390  -33411   33426       1   33375   33372   33378   33387       4
   33375   33372   33378   33390       4   33375   33381   33393   33417       1
   33375   33381   33393   33420       1   33375   33384  -33399   33417       1
   33372   33375   33381   33393       1   33372   33375   33384   33399       1
   33372   33378   33387   33405       1   33372   33378   33390   33411       1
   33363   33372   33375   33381       4   33363   33372   33375   33384       4
   33363   33372   33378   33387       4   33363   33372   33378   33390       4
   33357   33363   33372   33375       4   33357   33363   33372   33378       4
   33351   33363   33372   33375       4   33351   33363   33372   33378       4
   33339   33330   33336   33351       1   33339   33357  -33363   33351       1
   33339   33357   33363   33372       1   33336   33330   33339   33357       1
   33336   33351  -33363   33357       1   33336   33351   33363   33372       1
   33333   33327   33330   33336       3   33333   33327   33330   33339       3
   33330   33336   33351   33363       1   33330   33339  -33357   33363       1
   33327   33330   33336   33351       1   33327   33330   33339   33357       1
   34143   34194   34218   34236       3   34137   34194   34218   34236       3
   34131   34185   34215   34233       3   34125   34185   34215   34233       3
   34119   34176   34212   34230       3   34113   34176   34212   34230       3
   34107   34170   34209   34227       3   34101   34170   34209   34227       3
   34098   34158   34206   34224       3   34092   34158   34206   34224       3
   34083   34149   34203   34221       3   34077   34149   34203   34221       3
   34074   34035   34071   34137       1   34074   34143  -34194   34137       1
   34074   34143   34194   34218       1   34071   34035   34074   34143       1
   34071   34137  -34194   34143       1   34071   34137   34194   34218       1
   34068   34032   34065   34125       1   34068   34131  -34185   34125       1
   34068   34131   34185   34215       1   34065   34032   34068   34131       1
   34065   34125  -34185   34131       1   34065   34125   34185   34215       1
   34062   34026   34059   34113       1   34062   34119  -34176   34113       1
   34062   34119   34176   34212       1   34059   34026   34062   34119       1
   34059   34113  -34176   34119       1   34059   34113   34176   34212       1
   34056   34023   34053   34101       1   34056   34107  -34170   34101       1
   34056   34107   34170   34209       1   34053   34023   34056   34107       1
   34053   34101  -34170   34107       1   34053   34101   34170   34209       1
   34050   34020   34047   34092       1   34050   34098  -34158   34092       1
   34050   34098   34158   34206       1   34047   34020   34050   34098       1
   34047   34092  -34158   34098       1   34047   34092   34158   34206       1
   34044   34017   34041   34077       1   34044   34083  -34149   34077       1
   34044   34083   34149   34203       1   34041   34017   34044   34083       1
   34041   34077  -34149   34083       1   34041   34077   34149   34203       1
   34035   34008   34032   34065       4   34035   34008   34032   34068       4
   34035   34071   34137   34194       1   34035   34074  -34143   34194       1
   34032   34008   34035   34071       4   34032   34008   34035   34074       4
   34032   34065   34125   34185       1   34032   34068  -34131   34185       1
   34026   33999   34023   34053       4   34026   33999   34023   34056       4
   34026   34059   34113   34176       1   34026   34062  -34119   34176       1
   34023   33999   34026   34059       4   34023   33999   34026   34062       4
   34023   34053   34101   34170       1   34023   34056  -34107   34170       1
   34020   33996   34017   34041       4   34020   33996   34017   34044       4
   34020   34047   34092   34158       1   34020   34050  -34098   34158       1
   34017   33996   34020   34047       4   34017   33996   34020   34050       4
   34017   34041   34077   34149       1   34017   34044  -34083   34149       1
   34011   33978   34008   34032       4   34011   33978   34008   34035       4
   34008   34032   34065   34125       1   34008   34032   34068   34131       1
   34008   34035   34071   34137       1   34008   34035   34074   34143       1
   34002   33966   33999   34023       4   34002   33966   33999   34026       4
   33999   34023   34053   34101       1   33999   34023   34056   34107       1
   33999   34026   34059   34113       1   33999   34026   34062   34119       1
   33996   34017   34041   34077       1   33996   34017   34044   34083       1
   33996   34020   34047   34092       1   33996   34020   34050   34098       1
   33981   34011   33978   34008       1   33978   34008   34032   34065       4
   33978   34008   34032   34068       4   33978   34008   34035   34071       4
   33978   34008   34035   34074       4   33972   33942   33948   33981       5
   33972   34002   33966   33999       1   33966   33999   34023   34053       4
   33966   33999   34023   34056       4   33966   33999   34026   34059       4
   33966   33999   34026   34062       4   33960   33996   34017   34041       4
   33960   33996   34017   34044       4   33960   33996   34020   34047       4
   33960   33996   34020   34050       4   33954   33960   33996   34017       4
   33954   33960   33996   34020       4   33948   33927   33945   33978       1
   33948   33942   33972   34002       1   33948   33981  -34011   33978       1
   33945   33927   33948   33981       1   33945   33978   34008   34032       4
   33945   33978   34008   34035       4   33945   33978  -34011   33981       1
   33942   33924   33939   33966       1   33942   33948   33927   33945       1
   33942   33948   33981   34011       1   33942   33972  -34002   33966       1
   33939   33924   33942   33948       1   33939   33924   33942   33972       1
   33939   33966   33999   34023       4   33939   33966   33999   34026       4
   33939   33966  -34002   33972       1   33936   33960   33996   34017       4
   33936   33960   33996   34020       4   33933   33918   33921   33936       1
   33933   33954  -33960   33936       1   33933   33954   33960   33996       1
   33927   33903   33921   33936       6   33927   33903   33924   33939       6
   33927   33903  -33924   33942       7   33927   33945   33978   34008       1
   33927   33945   33978   34011       1   33927   33948   33942   33972       5
   33927   33948  -33981   34011       1   33924   33903   33921   33936       6
   33924   33903   33927   33945       6   33924   33903  -33927   33948       7
   33924   33939   33966   33999       1   33924   33939   33966   34002       1
   33924   33942  -33948   33927       5   33924   33942   33948   33981       5
   33924   33942  -33972   34002       1   33921   33903   33924   33939       6
   33921   33903   33924   33942       7   33921   33903   33927   33945       6
   33921   33903   33927   33948       7   33921   33918   33933   33954       1
   33921   33936  -33960   33954       1   33921   33936   33960   33996       1
   33918   33921   33903   33924       7   33918   33921   33903   33927       7
   33918   33921   33936   33960       1   33918   33933  -33954   33960       1
   33903   33876  -33900   33918       1   33903   33921   33918   33933       1
   33903   33921   33936   33960       1   33903   33924   33939   33966       1
   33903   33924  -33942   33948       1   33903   33924   33942   33972       1
   33903   33927   33945   33978       1   33903   33927  -33948   33942       1
   33903   33927   33948   33981       1   33900   33876  -33903   33921       7
   33900   33876   33903   33924       7   33900   33876   33903   33927       7
   33900   33918  -33921   33903       1   33900   33918   33921   33936       1
   33900   33918   33933   33954       1   33894   33909   33930   33951       3
   33888   33909   33930   33951       3   33882   33900   33876   33903       1
   33882   33900   33918   33921       5   33882   33900   33918   33933       5
   33876   33900  -33918   33921       5   33876   33900   33918   33933       5
   33876   33903  -33921   33918       7   33876   33903   33921   33936       6
   33876   33903   33924   33939       6   33876   33903   33924   33942       7
   33876   33903   33927   33945       6   33876   33903   33927   33948       7
   33873   33861   33870   33888       1   33873   33894  -33909   33888       1
   33873   33894   33909   33930       1   33870   33861   33873   33894       1
   33870   33888  -33909   33894       1   33870   33888   33909   33930       1
   33867   33858   33864   33876       1   33867   33882  -33900   33876       1
   33867   33882   33900   33918       1   33864   33858   33867   33882       1
   33864   33876  -33900   33882       1   33864   33876   33900   33918       1
   33864   33876   33903   33921       6   33864   33876   33903   33924       6
   33864   33876   33903   33927       6   33861   33855   33858   33864       4
   33861   33855   33858   33867       4   33861   33870   33888   33909       1
   33861   33873  -33894   33909       1   33858   33855   33861   33870       4
   33858   33855   33861   33873       4   33858   33864   33876   33900       1
   33858   33864   33876   33903       1   33858   33867  -33882   33900       1
   33855   33858   33864   33876       1   33855   33858   33867   33882       1
   33855   33861   33870   33888       1   33855   33861   33873   33894       1
   33846   33855   33858   33864       4   33846   33855   33858   33867       4
   33846   33855   33861   33870       4   33846   33855   33861   33873       4
   33840   33846   33855   33858       4   33840   33846   33855   33861       4
   33834   33846   33855   33858       4   33834   33846   33855   33861       4
   33822   33813   33819   33834       1   33822   33840  -33846   33834       1
   33822   33840   33846   33855       1   33819   33813   33822   33840       1
   33819   33834  -33846   33840       1   33819   33834   33846   33855       1
   33816   33810   33813   33819       3   33816   33810   33813   33822       3
   33813   33819   33834   33846       1   33813   33822  -33840   33846       1
   33810   33813   33819   33834       1   33810   33813   33822   33840       1
   34626   34677   34701   34719       3   34620   34677   34701   34719       3
   34614   34668   34698   34716       3   34608   34668   34698   34716       3
   34602   34659   34695   34713       3   34596   34659   34695   34713       3
   34590   34653   34692   34710       3   34584   34653   34692   34710       3
   34581   34641   34689   34707       3   34575   34641   34689   34707       3
   34566   34632   34686   34704       3   34560   34632   34686   34704       3
   34557   34518   34554   34620       1   34557   34626  -34677   34620       1
   34557   34626   34677   34701       1   34554   34518   34557   34626       1
   34554   34620  -34677   34626       1   34554   34620   34677   34701       1
   34551   34515   34548   34608       1   34551   34614  -34668   34608       1
   34551   34614   34668   34698       1   34548   34515   34551   34614       1
   34548   34608  -34668   34614       1   34548   34608   34668   34698       1
   34545   34509   34542   34596       1   34545   34602  -34659   34596       1
   34545   34602   34659   34695       1   34542   34509   34545   34602       1
   34542   34596  -34659   34602       1   34542   34596   34659   34695       1
   34539   34506   34536   34584       1   34539   34590  -34653   34584       1
   34539   34590   34653   34692       1   34536   34506   34539   34590       1
   34536   34584  -34653   34590       1   34536   34584   34653   34692       1
   34533   34503   34530   34575       1   34533   34581  -34641   34575       1
   34533   34581   34641   34689       1   34530   34503   34533   34581       1
   34530   34575  -34641   34581       1   34530   34575   34641   34689       1
   34527   34500   34524   34560       1   34527   34566  -34632   34560       1
   34527   34566   34632   34686       1   34524   34500   34527   34566       1
   34524   34560  -34632   34566       1   34524   34560   34632   34686       1
   34518   34491   34515   34548       4   34518   34491   34515   34551       4
   34518   34554   34620   34677       1   34518   34557  -34626   34677       1
   34515   34491   34518   34554       4   34515   34491   34518   34557       4
   34515   34548   34608   34668       1   34515   34551  -34614   34668       1
   34509   34482   34506   34536       4   34509   34482   34506   34539       4
   34509   34542   34596   34659       1   34509   34545  -34602   34659       1
   34506   34482   34509   34542       4   34506   34482   34509   34545       4
   34506   34536   34584   34653       1   34506   34539  -34590   34653       1
   34503   34479   34500   34524       4   34503   34479   34500   34527       4
   34503   34530   34575   34641       1   34503   34533  -34581   34641       1
   34500   34479   34503   34530       4   34500   34479   34503   34533       4
   34500   34524   34560   34632       1   34500   34527  -34566   34632       1
   34494   34461   34491   34515       4   34494   34461   34491   34518       4
   34491   34515   34548   34608       1   34491   34515   34551   34614       1
   34491   34518   34554   34620       1   34491   34518   34557   34626       1
   34485   34449   34482   34506       4   34485   34449   34482   34509       4
   34482   34506   34536   34584       1   34482   34506   34539   34590       1
   34482   34509   34542   34596       1   34482   34509   34545   34602       1
   34479   34500   34524   34560       1   34479   34500   34527   34566       1
   34479   34503   34530   34575       1   34479   34503   34533   34581       1
   34464   34494   34461   34491       1   34461   34491   34515   34548       4
   34461   34491   34515   34551       4   34461   34491   34518   34554       4
   34461   34491   34518   34557       4   34455   34425   34431   34464       5
   34455   34485   34449   34482       1   34449   34482   34506   34536       4
   34449   34482   34506   34539       4   34449   34482   34509   34542       4
   34449   34482   34509   34545       4   34443   34479   34500   34524       4
   34443   34479   34500   34527       4   34443   34479   34503   34530       4
   34443   34479   34503   34533       4   34437   34443   34479   34500       4
   34437   34443   34479   34503       4   34431   34410   34428   34461       1
   34431   34425   34455   34485       1   34431   34464  -34494   34461       1
   34428   34410   34431   34464       1   34428   34461   34491   34515       4
   34428   34461   34491   34518       4   34428   34461  -34494   34464       1
   34425   34407   34422   34449       1   34425   34431   34410   34428       1
   34425   34431   34464   34494       1   34425   34455  -34485   34449       1
   34422   34407   34425   34431       1   34422   34407   34425   34455       1
   34422   34449   34482   34506       4   34422   34449   34482   34509       4
   34422   34449  -34485   34455       1   34419   34443   34479   34500       4
   34419   34443   34479   34503       4   34416   34401   34404   34419       1
   34416   34437  -34443   34419       1   34416   34437   34443   34479       1
   34410   34386   34404   34419       6   34410   34386   34407   34422       6
   34410   34386  -34407   34425       7   34410   34428   34461   34491       1
   34410   34428   34461   34494       1   34410   34431   34425   34455       5
   34410   34431  -34464   34494       1   34407   34386   34404   34419       6
   34407   34386   34410   34428       6   34407   34386  -34410   34431       7
   34407   34422   34449   34482       1   34407   34422   34449   34485       1
   34407   34425  -34431   34410       5   34407   34425   34431   34464       5
   34407   34425  -34455   34485       1   34404   34386   34407   34422       6
   34404   34386   34407   34425       7   34404   34386   34410   34428       6
   34404   34386   34410   34431       7   34404   34401   34416   34437       1
   34404   34419  -34443   34437       1   34404   34419   34443   34479       1
   34401   34404   34386   34407       7   34401   34404   34386   34410       7
   34401   34404   34419   34443       1   34401   34416  -34437   34443       1
   34386   34359  -34383   34401       1   34386   34404   34401   34416       1
   34386   34404   34419   34443       1   34386   34407   34422   34449       1
   34386   34407  -34425   34431       1   34386   34407   34425   34455       1
   34386   34410   34428   34461       1   34386   34410  -34431   34425       1
   34386   34410   34431   34464       1   34383   34359  -34386   34404       7
   34383   34359   34386   34407       7   34383   34359   34386   34410       7
   34383   34401  -34404   34386       1   34383   34401   34404   34419       1
   34383   34401   34416   34437       1   34377   34392   34413   34434       3
   34371   34392   34413   34434       3   34365   34383   34359   34386       1
   34365   34383   34401   34404       5   34365   34383   34401   34416       5
   34359   34383  -34401   34404       5   34359   34383   34401   34416       5
   34359   34386  -34404   34401       7   34359   34386   34404   34419       6
   34359   34386   34407   34422       6   34359   34386   34407   34425       7
   34359   34386   34410   34428       6   34359   34386   34410   34431       7
   34356   34344   34353   34371       1   34356   34377  -34392   34371       1
   34356   34377   34392   34413       1   34353   34344   34356   34377       1
   34353   34371  -34392   34377       1   34353   34371   34392   34413       1
   34350   34341   34347   34359       1   34350   34365  -34383   34359       1
   34350   34365   34383   34401       1   34347   34341   34350   34365       1
   34347   34359  -34383   34365       1   34347   34359   34383   34401       1
   34347   34359   34386   34404       6   34347   34359   34386   34407       6
   34347   34359   34386   34410       6   34344   34338   34341   34347       4
   34344   34338   34341   34350       4   34344   34353   34371   34392       1
   34344   34356  -34377   34392       1   34341   34338   34344   34353       4
   34341   34338   34344   34356       4   34341   34347   34359   34383       1
   34341   34347   34359   34386       1   34341   34350  -34365   34383       1
   34338   34341   34347   34359       1   34338   34341   34350   34365       1
   34338   34344   34353   34371       1   34338   34344   34356   34377       1
   34329   34338   34341   34347       4   34329   34338   34341   34350       4
   34329   34338   34344   34353       4   34329   34338   34344   34356       4
   34323   34329   34338   34341       4   34323   34329   34338   34344       4
   34317   34329   34338   34341       4   34317   34329   34338   34344       4
   34305   34296   34302   34317       1   34305   34323  -34329   34317       1
   34305   34323   34329   34338       1   34302   34296   34305   34323       1
   34302   34317  -34329   34323       1   34302   34317   34329   34338       1
   34299   34293   34296   34302       3   34299   34293   34296   34305       3
   34296   34302   34317   34329       1   34296   34305  -34323   34329       1
   34293   34296   34302   34317       1   34293   34296   34305   34323       1
   35109   35160   35184   35202       3   35103   35160   35184   35202       3
   35097   35151   35181   35199       3   35091   35151   35181   35199       3
   35085   35142   35178   35196       3   35079   35142   35178   35196       3
   35073   35136   35175   35193       3   35067   35136   35175   35193       3
   35064   35124   35172   35190       3   35058   35124   35172   35190       3
   35049   35115   35169   35187       3   35043   35115   35169   35187       3
   35040   35001   35037   35103       1   35040   35109  -35160   35103       1
   35040   35109   35160   35184       1   35037   35001   35040   35109       1
   35037   35103  -35160   35109       1   35037   35103   35160   35184       1
   35034   34998   35031   35091       1   35034   35097  -35151   35091       1
   35034   35097   35151   35181       1   35031   34998   35034   35097       1
   35031   35091  -35151   35097       1   35031   35091   35151   35181       1
   35028   34992   35025   35079       1   35028   35085  -35142   35079       1
   35028   35085   35142   35178       1   35025   34992   35028   35085       1
   35025   35079  -35142   35085       1   35025   35079   35142   35178       1
   35022   34989   35019   35067       1   35022   35073  -35136   35067       1
   35022   35073   35136   35175       1   35019   34989   35022   35073       1
   35019   35067  -35136   35073       1   35019   35067   35136   35175       1
   35016   34986   35013   35058       1   35016   35064  -35124   35058       1
   35016   35064   35124   35172       1   35013   34986   35016   35064       1
   35013   35058  -35124   35064       1   35013   35058   35124   35172       1
   35010   34983   35007   35043       1   35010   35049  -35115   35043       1
   35010   35049   35115   35169       1   35007   34983   35010   35049       1
   35007   35043  -35115   35049       1   35007   35043   35115   35169       1
   35001   34974   34998   35031       4   35001   34974   34998   35034       4
   35001   35037   35103   35160       1   35001   35040  -35109   35160       1
   34998   34974   35001   35037       4   34998   34974   35001   35040       4
   34998   35031   35091   35151       1   34998   35034  -35097   35151       1
   34992   34965   34989   35019       4   34992   34965   34989   35022       4
   34992   35025   35079   35142       1   34992   35028  -35085   35142       1
   34989   34965   34992   35025       4   34989   34965   34992   35028       4
   34989   35019   35067   35136       1   34989   35022  -35073   35136       1
   34986   34962   34983   35007       4   34986   34962   34983   35010       4
   34986   35013   35058   35124       1   34986   35016  -35064   35124       1
   34983   34962   34986   35013       4   34983   34962   34986   35016       4
   34983   35007   35043   35115       1   34983   35010  -35049   35115       1
   34977   34944   34974   34998       4   34977   34944   34974   35001       4
   34974   34998   35031   35091       1   34974   34998   35034   35097       1
   34974   35001   35037   35103       1   34974   35001   35040   35109       1
   34968   34932   34965   34989       4   34968   34932   34965   34992       4
   34965   34989   35019   35067       1   34965   34989   35022   35073       1
   34965   34992   35025   35079       1   34965   34992   35028   35085       1
   34962   34983   35007   35043       1   34962   34983   35010   35049       1
   34962   34986   35013   35058       1   34962   34986   35016   35064       1
   34947   34977   34944   34974       1   34944   34974   34998   35031       4
   34944   34974   34998   35034       4   34944   34974   35001   35037       4
   34944   34974   35001   35040       4   34938   34908   34914   34947       5
   34938   34968   34932   34965       1   34932   34965   34989   35019       4
   34932   34965   34989   35022       4   34932   34965   34992   35025       4
   34932   34965   34992   35028       4   34926   34962   34983   35007       4
   34926   34962   34983   35010       4   34926   34962   34986   35013       4
   34926   34962   34986   35016       4   34920   34926   34962   34983       4
   34920   34926   34962   34986       4   34914   34893   34911   34944       1
   34914   34908   34938   34968       1   34914   34947  -34977   34944       1
   34911   34893   34914   34947       1   34911   34944   34974   34998       4
   34911   34944   34974   35001       4   34911   34944  -34977   34947       1
   34908   34890   34905   34932       1   34908   34914   34893   34911       1
   34908   34914   34947   34977       1   34908   34938  -34968   34932       1
   34905   34890   34908   34914       1   34905   34890   34908   34938       1
   34905   34932   34965   34989       4   34905   34932   34965   34992       4
   34905   34932  -34968   34938       1   34902   34926   34962   34983       4
   34902   34926   34962   34986       4   34899   34884   34887   34902       1
   34899   34920  -34926   34902       1   34899   34920   34926   34962       1
   34893   34869   34887   34902       6   34893   34869   34890   34905       6
   34893   34869  -34890   34908       7   34893   34911   34944   34974       1
   34893   34911   34944   34977       1   34893   34914   34908   34938       5
   34893   34914  -34947   34977       1   34890   34869   34887   34902       6
   34890   34869   34893   34911       6   34890   34869  -34893   34914       7
   34890   34905   34932   34965       1   34890   34905   34932   34968       1
   34890   34908  -34914   34893       5   34890   34908   34914   34947       5
   34890   34908  -34938   34968       1   34887   34869   34890   34905       6
   34887   34869   34890   34908       7   34887   34869   34893   34911       6
   34887   34869   34893   34914       7   34887   34884   34899   34920       1
   34887   34902  -34926   34920       1   34887   34902   34926   34962       1
   34884   34887   34869   34890       7   34884   34887   34869   34893       7
   34884   34887   34902   34926       1   34884   34899  -34920   34926       1
   34869   34842  -34866   34884       1   34869   34887   34884   34899       1
   34869   34887   34902   34926       1   34869   34890   34905   34932       1
   34869   34890  -34908   34914       1   34869   34890   34908   34938       1
   34869   34893   34911   34944       1   34869   34893  -34914   34908       1
   34869   34893   34914   34947       1   34866   34842  -34869   34887       7
   34866   34842   34869   34890       7   34866   34842   34869   34893       7
   34866   34884  -34887   34869       1   34866   34884   34887   34902       1
   34866   34884   34899   34920       1   34860   34875   34896   34917       3
   34854   34875   34896   34917       3   34848   34866   34842   34869       1
   34848   34866   34884   34887       5   34848   34866   34884   34899       5
   34842   34866  -34884   34887       5   34842   34866   34884   34899       5
   34842   34869  -34887   34884       7   34842   34869   34887   34902       6
   34842   34869   34890   34905       6   34842   34869   34890   34908       7
   34842   34869   34893   34911       6   34842   34869   34893   34914       7
   34839   34827   34836   34854       1   34839   34860  -34875   34854       1
   34839   34860   34875   34896       1   34836   34827   34839   34860       1
   34836   34854  -34875   34860       1   34836   34854   34875   34896       1
   34833   34824   34830   34842       1   34833   34848  -34866   34842       1
   34833   34848   34866   34884       1   34830   34824   34833   34848       1
   34830   34842  -34866   34848       1   34830   34842   34866   34884       1
   34830   34842   34869   34887       6   34830   34842   34869   34890       6
   34830   34842   34869   34893       6   34827   34821   34824   34830       4
   34827   34821   34824   34833       4   34827   34836   34854   34875       1
   34827   34839  -34860   34875       1   34824   34821   34827   34836       4
   34824   34821   34827   34839       4   34824   34830   34842   34866       1
   34824   34830   34842   34869       1   34824   34833  -34848   34866       1
   34821   34824   34830   34842       1   34821   34824   34833   34848       1
   34821   34827   34836   34854       1   34821   34827   34839   34860       1
   34812   34821   34824   34830       4   34812   34821   34824   34833       4
   34812   34821   34827   34836       4   34812   34821   34827   34839       4
   34806   34812   34821   34824       4   34806   34812   34821   34827       4
   34800   34812   34821   34824       4   34800   34812   34821   34827       4
   34788   34779   34785   34800       1   34788   34806  -34812   34800       1
   34788   34806   34812   34821       1   34785   34779   34788   34806       1
   34785   34800  -34812   34806       1   34785   34800   34812   34821       1
   34782   34776   34779   34785       3   34782   34776   34779   34788       3
   34779   34785   34800   34812       1   34779   34788  -34806   34812       1
   34776   34779   34785   34800       1   34776   34779   34788   34806       1
   35592   35643   35667   35685       3   35586   35643   35667   35685       3
   35580   35634   35664   35682       3   35574   35634   35664   35682       3
   35568   35625   35661   35679       3   35562   35625   35661   35679       3
   35556   35619   35658   35676       3   35550   35619   35658   35676       3
   35547   35607   35655   35673       3   35541   35607   35655   35673       3
   35532   35598   35652   35670       3   35526   35598   35652   35670       3
   35523   35484   35520   35586       1   35523   35592  -35643   35586       1
   35523   35592   35643   35667       1   35520   35484   35523   35592       1
   35520   35586  -35643   35592       1   35520   35586   35643   35667       1
   35517   35481   35514   35574       1   35517   35580  -35634   35574       1
   35517   35580   35634   35664       1   35514   35481   35517   35580       1
   35514   35574  -35634   35580       1   35514   35574   35634   35664       1
   35511   35475   35508   35562       1   35511   35568  -35625   35562       1
   35511   35568   35625   35661       1   35508   35475   35511   35568       1
   35508   35562  -35625   35568       1   35508   35562   35625   35661       1
   35505   35472   35502   35550       1   35505   35556  -35619   35550       1
   35505   35556   35619   35658       1   35502   35472   35505   35556       1
   35502   35550  -35619   35556       1   35502   35550   35619   35658       1
   35499   35469   35496   35541       1   35499   35547  -35607   35541       1
   35499   35547   35607   35655       1   35496   35469   35499   35547       1
   35496   35541  -35607   35547       1   35496   35541   35607   35655       1
   35493   35466   35490   35526       1   35493   35532  -35598   35526       1
   35493   35532   35598   35652       1   35490   35466   35493   35532       1
   35490   35526  -35598   35532       1   35490   35526   35598   35652       1
   35484   35457   35481   35514       4   35484   35457   35481   35517       4
   35484   35520   35586   35643       1   35484   35523  -35592   35643       1
   35481   35457   35484   35520       4   35481   35457   35484   35523       4
   35481   35514   35574   35634       1   35481   35517  -35580   35634       1
   35475   35448   35472   35502       4   35475   35448   35472   35505       4
   35475   35508   35562   35625       1   35475   35511  -35568   35625       1
   35472   35448   35475   35508       4   35472   35448   35475   35511       4
   35472   35502   35550   35619       1   35472   35505  -35556   35619       1
   35469   35445   35466   35490       4   35469   35445   35466   35493       4
   35469   35496   35541   35607       1   35469   35499  -35547   35607       1
   35466   35445   35469   35496       4   35466   35445   35469   35499       4
   35466   35490   35526   35598       1   35466   35493  -35532   35598       1
   35460   35427   35457   35481       4   35460   35427   35457   35484       4
   35457   35481   35514   35574       1   35457   35481   35517   35580       1
   35457   35484   35520   35586       1   35457   35484   35523   35592       1
   35451   35415   35448   35472       4   35451   35415   35448   35475       4
   35448   35472   35502   35550       1   35448   35472   35505   35556       1
   35448   35475   35508   35562       1   35448   35475   35511   35568       1
   35445   35466   35490   35526       1   35445   35466   35493   35532       1
   35445   35469   35496   35541       1   35445   35469   35499   35547       1
   35430   35460   35427   35457       1   35427   35457   35481   35514       4
   35427   35457   35481   35517       4   35427   35457   35484   35520       4
   35427   35457   35484   35523       4   35421   35391   35397   35430       5
   35421   35451   35415   35448       1   35415   35448   35472   35502       4
   35415   35448   35472   35505       4   35415   35448   35475   35508       4
   35415   35448   35475   35511       4   35409   35445   35466   35490       4
   35409   35445   35466   35493       4   35409   35445   35469   35496       4
   35409   35445   35469   35499       4   35403   35409   35445   35466       4
   35403   35409   35445   35469       4   35397   35376   35394   35427       1
   35397   35391   35421   35451       1   35397   35430  -35460   35427       1
   35394   35376   35397   35430       1   35394   35427   35457   35481       4
   35394   35427   35457   35484       4   35394   35427  -35460   35430       1
   35391   35373   35388   35415       1   35391   35397   35376   35394       1
   35391   35397   35430   35460       1   35391   35421  -35451   35415       1
   35388   35373   35391   35397       1   35388   35373   35391   35421       1
   35388   35415   35448   35472       4   35388   35415   35448   35475       4
   35388   35415  -35451   35421       1   35385   35409   35445   35466       4
   35385   35409   35445   35469       4   35382   35367   35370   35385       1
   35382   35403  -35409   35385       1   35382   35403   35409   35445       1
   35376   35352   35370   35385       6   35376   35352   35373   35388       6
   35376   35352  -35373   35391       7   35376   35394   35427   35457       1
   35376   35394   35427   35460       1   35376   35397   35391   35421       5
   35376   35397  -35430   35460       1   35373   35352   35370   35385       6
   35373   35352   35376   35394       6   35373   35352  -35376   35397       7
   35373   35388   35415   35448       1   35373   35388   35415   35451       1
   35373   35391  -35397   35376       5   35373   35391   35397   35430       5
   35373   35391  -35421   35451       1   35370   35352   35373   35388       6
   35370   35352   35373   35391       7   35370   35352   35376   35394       6
   35370   35352   35376   35397       7   35370   35367   35382   35403       1
   35370   35385  -35409   35403       1   35370   35385   35409   35445       1
   35367   35370   35352   35373       7   35367   35370   35352   35376       7
   35367   35370   35385   35409       1   35367   35382  -35403   35409       1
   35352   35325  -35349   35367       1   35352   35370   35367   35382       1
   35352   35370   35385   35409       1   35352   35373   35388   35415       1
   35352   35373  -35391   35397       1   35352   35373   35391   35421       1
   35352   35376   35394   35427       1   35352   35376  -35397   35391       1
   35352   35376   35397   35430       1   35349   35325  -35352   35370       7
   35349   35325   35352   35373       7   35349   35325   35352   35376       7
   35349   35367  -35370   35352       1   35349   35367   35370   35385       1
   35349   35367   35382   35403       1   35343   35358   35379   35400       3
   35337   35358   35379   35400       3   35331   35349   35325   35352       1
   35331   35349   35367   35370       5   35331   35349   35367   35382       5
   35325   35349  -35367   35370       5   35325   35349   35367   35382       5
   35325   35352  -35370   35367       7   35325   35352   35370   35385       6
   35325   35352   35373   35388       6   35325   35352   35373   35391       7
   35325   35352   35376   35394       6   35325   35352   35376   35397       7
   35322   35310   35319   35337       1   35322   35343  -35358   35337       1
   35322   35343   35358   35379       1   35319   35310   35322   35343       1
   35319   35337  -35358   35343       1   35319   35337   35358   35379       1
   35316   35307   35313   35325       1   35316   35331  -35349   35325       1
   35316   35331   35349   35367       1   35313   35307   35316   35331       1
   35313   35325  -35349   35331       1   35313   35325   35349   35367       1
   35313   35325   35352   35370       6   35313   35325   35352   35373       6
   35313   35325   35352   35376       6   35310   35304   35307   35313       4
   35310   35304   35307   35316       4   35310   35319   35337   35358       1
   35310   35322  -35343   35358       1   35307   35304   35310   35319       4
   35307   35304   35310   35322       4   35307   35313   35325   35349       1
   35307   35313   35325   35352       1   35307   35316  -35331   35349       1
   35304   35307   35313   35325       1   35304   35307   35316   35331       1
   35304   35310   35319   35337       1   35304   35310   35322   35343       1
   35295   35304   35307   35313       4   35295   35304   35307   35316       4
   35295   35304   35310   35319       4   35295   35304   35310   35322       4
   35289   35295   35304   35307       4   35289   35295   35304   35310       4
   35283   35295   35304   35307       4   35283   35295   35304   35310       4
   35271   35262   35268   35283       1   35271   35289  -35295   35283       1
   35271   35289   35295   35304       1   35268   35262   35271   35289       1
   35268   35283  -35295   35289       1   35268   35283   35295   35304       1
   35265   35259   35262   35268       3   35265   35259   35262   35271       3
   35262   35268   35283   35295       1   35262   35271  -35289   35295       1
   35259   35262   35268   35283       1   35259   35262   35271   35289       1
   36075   36126   36150   36168       3   36069   36126   36150   36168       3
   36063   36117   36147   36165       3   36057   36117   36147   36165       3
   36051   36108   36144   36162       3   36045   36108   36144   36162       3
   36039   36102   36141   36159       3   36033   36102   36141   36159       3
   36030   36090   36138   36156       3   36024   36090   36138   36156       3
   36015   36081   36135   36153       3   36009   36081   36135   36153       3
   36006   35967   36003   36069       1   36006   36075  -36126   36069       1
   36006   36075   36126   36150       1   36003   35967   36006   36075       1
   36003   36069  -36126   36075       1   36003   36069   36126   36150       1
   36000   35964   35997   36057       1   36000   36063  -36117   36057       1
   36000   36063   36117   36147       1   35997   35964   36000   36063       1
   35997   36057  -36117   36063       1   35997   36057   36117   36147       1
   35994   35958   35991   36045       1   35994   36051  -36108   36045       1
   35994   36051   36108   36144       1   35991   35958   35994   36051       1
   35991   36045  -36108   36051       1   35991   36045   36108   36144       1
   35988   35955   35985   36033       1   35988   36039  -36102   36033       1
   35988   36039   36102   36141       1   35985   35955   35988   36039       1
   35985   36033  -36102   36039       1   35985   36033   36102   36141       1
   35982   35952   35979   36024       1   35982   36030  -36090   36024       1
   35982   36030   36090   36138       1   35979   35952   35982   36030       1
   35979   36024  -36090   36030       1   35979   36024   36090   36138       1
   35976   35949   35973   36009       1   35976   36015  -36081   36009       1
   35976   36015   36081   36135       1   35973   35949   35976   36015       1
   35973   36009  -36081   36015       1   35973   36009   36081   36135       1
   35967   35940   35964   35997       4   35967   35940   35964   36000       4
   35967   36003   36069   36126       1   35967   36006  -36075   36126       1
   35964   35940   35967   36003       4   35964   35940   35967   36006       4
   35964   35997   36057   36117       1   35964   36000  -36063   36117       1
   35958   35931   35955   35985       4   35958   35931   35955   35988       4
   35958   35991   36045   36108       1   35958   35994  -36051   36108       1
   35955   35931   35958   35991       4   35955   35931   35958   35994       4
   35955   35985   36033   36102       1   35955   35988  -36039   36102       1
   35952   35928   35949   35973       4   35952   35928   35949   35976       4
   35952   35979   36024   36090       1   35952   35982  -36030   36090       1
   35949   35928   35952   35979       4   35949   35928   35952   35982       4
   35949   35973   36009   36081       1   35949   35976  -36015   36081       1
   35943   35910   35940   35964       4   35943   35910   35940   35967       4
   35940   35964   35997   36057       1   35940   35964   36000   36063       1
   35940   35967   36003   36069       1   35940   35967   36006   36075       1
   35934   35898   35931   35955       4   35934   35898   35931   35958       4
   35931   35955   35985   36033       1   35931   35955   35988   36039       1
   35931   35958   35991   36045       1   35931   35958   35994   36051       1
   35928   35949   35973   36009       1   35928   35949   35976   36015       1
   35928   35952   35979   36024       1   35928   35952   35982   36030       1
   35913   35943   35910   35940       1   35910   35940   35964   35997       4
   35910   35940   35964   36000       4   35910   35940   35967   36003       4
   35910   35940   35967   36006       4   35904   35874   35880   35913       5
   35904   35934   35898   35931       1   35898   35931   35955   35985       4
   35898   35931   35955   35988       4   35898   35931   35958   35991       4
   35898   35931   35958   35994       4   35892   35928   35949   35973       4
   35892   35928   35949   35976       4   35892   35928   35952   35979       4
   35892   35928   35952   35982       4   35886   35892   35928   35949       4
   35886   35892   35928   35952       4   35880   35859   35877   35910       1
   35880   35874   35904   35934       1   35880   35913  -35943   35910       1
   35877   35859   35880   35913       1   35877   35910   35940   35964       4
   35877   35910   35940   35967       4   35877   35910  -35943   35913       1
   35874   35856   35871   35898       1   35874   35880   35859   35877       1
   35874   35880   35913   35943       1   35874   35904  -35934   35898       1
   35871   35856   35874   35880       1   35871   35856   35874   35904       1
   35871   35898   35931   35955       4   35871   35898   35931   35958       4
   35871   35898  -35934   35904       1   35868   35892   35928   35949       4
   35868   35892   35928   35952       4   35865   35850   35853   35868       1
   35865   35886  -35892   35868       1   35865   35886   35892   35928       1
   35859   35835   35853   35868       6   35859   35835   35856   35871       6
   35859   35835  -35856   35874       7   35859   35877   35910   35940       1
   35859   35877   35910   35943       1   35859   35880   35874   35904       5
   35859   35880  -35913   35943       1   35856   35835   35853   35868       6
   35856   35835   35859   35877       6   35856   35835  -35859   35880       7
   35856   35871   35898   35931       1   35856   35871   35898   35934       1
   35856   35874  -35880   35859       5   35856   35874   35880   35913       5
   35856   35874  -35904   35934       1   35853   35835   35856   35871       6
   35853   35835   35856   35874       7   35853   35835   35859   35877       6
   35853   35835   35859   35880       7   35853   35850   35865   35886       1
   35853   35868  -35892   35886       1   35853   35868   35892   35928       1
   35850   35853   35835   35856       7   35850   35853   35835   35859       7
   35850   35853   35868   35892       1   35850   35865  -35886   35892       1
   35835   35808  -35832   35850       1   35835   35853   35850   35865       1
   35835   35853   35868   35892       1   35835   35856   35871   35898       1
   35835   35856  -35874   35880       1   35835   35856   35874   35904       1
   35835   35859   35877   35910       1   35835   35859  -35880   35874       1
   35835   35859   35880   35913       1   35832   35808  -35835   35853       7
   35832   35808   35835   35856       7   35832   35808   35835   35859       7
   35832   35850  -35853   35835       1   35832   35850   35853   35868       1
   35832   35850   35865   35886       1   35826   35841   35862   35883       3
   35820   35841   35862   35883       3   35814   35832   35808   35835       1
   35814   35832   35850   35853       5   35814   35832   35850   35865       5
   35808   35832  -35850   35853       5   35808   35832   35850   35865       5
   35808   35835  -35853   35850       7   35808   35835   35853   35868       6
   35808   35835   35856   35871       6   35808   35835   35856   35874       7
   35808   35835   35859   35877       6   35808   35835   35859   35880       7
   35805   35793   35802   35820       1   35805   35826  -35841   35820       1
   35805   35826   35841   35862       1   35802   35793   35805   35826       1
   35802   35820  -35841   35826       1   35802   35820   35841   35862       1
   35799   35790   35796   35808       1   35799   35814  -35832   35808       1
   35799   35814   35832   35850       1   35796   35790   35799   35814       1
   35796   35808  -35832   35814       1   35796   35808   35832   35850       1
   35796   35808   35835   35853       6   35796   35808   35835   35856       6
   35796   35808   35835   35859       6   35793   35787   35790   35796       4
   35793   35787   35790   35799       4   35793   35802   35820   35841       1
   35793   35805  -35826   35841       1   35790   35787   35793   35802       4
   35790   35787   35793   35805       4   35790   35796   35808   35832       1
   35790   35796   35808   35835       1   35790   35799  -35814   35832       1
   35787   35790   35796   35808       1   35787   35790   35799   35814       1
   35787   35793   35802   35820       1   35787   35793   35805   35826       1
   35778   35787   35790   35796       4   35778   35787   35790   35799       4
   35778   35787   35793   35802       4   35778   35787   35793   35805       4
   35772   35778   35787   35790       4   35772   35778   35787   35793       4
   35766   35778   35787   35790       4   35766   35778   35787   35793       4
   35754   35745   35751   35766       1   35754   35772  -35778   35766       1
   35754   35772   35778   35787       1   35751   35745   35754   35772       1
   35751   35766  -35778   35772       1   35751   35766   35778   35787       1
   35748   35742   35745   35751       3   35748   35742   35745   35754       3
   35745   35751   35766   35778       1   35745   35754  -35772   35778       1
   35742   35745   35751   35766       1   35742   35745   35754   35772       1
   36558   36609   36633   36651       3   36552   36609   36633   36651       3
   36546   36600   36630   36648       3   36540   36600   36630   36648       3
   36534   36591   36627   36645       3   36528   36591   36627   36645       3
   36522   36585   36624   36642       3   36516   36585   36624   36642       3
   36513   36573   36621   36639       3   36507   36573   36621   36639       3
   36498   36564   36618   36636       3   36492   36564   36618   36636       3
   36489   36450   36486   36552       1   36489   36558  -36609   36552       1
   36489   36558   36609   36633       1   36486   36450   36489   36558       1
   36486   36552  -36609   36558       1   36486   36552   36609   36633       1
   36483   36447   36480   36540       1   36483   36546  -36600   36540       1
   36483   36546   36600   36630       1   36480   36447   36483   36546       1
   36480   36540  -36600   36546       1   36480   36540   36600   36630       1
   36477   36441   36474   36528       1   36477   36534  -36591   36528       1
   36477   36534   36591   36627       1   36474   36441   36477   36534       1
   36474   36528  -36591   36534       1   36474   36528   36591   36627       1
   36471   36438   36468   36516       1   36471   36522  -36585   36516       1
   36471   36522   36585   36624       1   36468   36438   36471   36522       1
   36468   36516  -36585   36522       1   36468   36516   36585   36624       1
   36465   36435   36462   36507       1   36465   36513  -36573   36507       1
   36465   36513   36573   36621       1   36462   36435   36465   36513       1
   36462   36507  -36573   36513       1   36462   36507   36573   36621       1
   36459   36432   36456   36492       1   36459   36498  -36564   36492       1
   36459   36498   36564   36618       1   36456   36432   36459   36498       1
   36456   36492  -36564   36498       1   36456   36492   36564   36618       1
   36450   36423   36447   36480       4   36450   36423   36447   36483       4
   36450   36486   36552   36609       1   36450   36489  -36558   36609       1
   36447   36423   36450   36486       4   36447   36423   36450   36489       4
   36447   36480   36540   36600       1   36447   36483  -36546   36600       1
   36441   36414   36438   36468       4   36441   36414   36438   36471       4
   36441   36474   36528   36591       1   36441   36477  -36534   36591       1
   36438   36414   36441   36474       4   36438   36414   36441   36477       4
   36438   36468   36516   36585       1   36438   36471  -36522   36585       1
   36435   36411   36432   36456       4   36435   36411   36432   36459       4
   36435   36462   36507   36573       1   36435   36465  -36513   36573       1
   36432   36411   36435   36462       4   36432   36411   36435   36465       4
   36432   36456   36492   36564       1   36432   36459  -36498   36564       1
   36426   36393   36423   36447       4   36426   36393   36423   36450       4
   36423   36447   36480   36540       1   36423   36447   36483   36546       1
   36423   36450   36486   36552       1   36423   36450   36489   36558       1
   36417   36381   36414   36438       4   36417   36381   36414   36441       4
   36414   36438   36468   36516       1   36414   36438   36471   36522       1
   36414   36441   36474   36528       1   36414   36441   36477   36534       1
   36411   36432   36456   36492       1   36411   36432   36459   36498       1
   36411   36435   36462   36507       1   36411   36435   36465   36513       1
   36396   36426   36393   36423       1   36393   36423   36447   36480       4
   36393   36423   36447   36483       4   36393   36423   36450   36486       4
   36393   36423   36450   36489       4   36387   36357   36363   36396       5
   36387   36417   36381   36414       1   36381   36414   36438   36468       4
   36381   36414   36438   36471       4   36381   36414   36441   36474       4
   36381   36414   36441   36477       4   36375   36411   36432   36456       4
   36375   36411   36432   36459       4   36375   36411   36435   36462       4
   36375   36411   36435   36465       4   36369   36375   36411   36432       4
   36369   36375   36411   36435       4   36363   36342   36360   36393       1
   36363   36357   36387   36417       1   36363   36396  -36426   36393       1
   36360   36342   36363   36396       1   36360   36393   36423   36447       4
   36360   36393   36423   36450       4   36360   36393  -36426   36396       1
   36357   36339   36354   36381       1   36357   36363   36342   36360       1
   36357   36363   36396   36426       1   36357   36387  -36417   36381       1
   36354   36339   36357   36363       1   36354   36339   36357   36387       1
   36354   36381   36414   36438       4   36354   36381   36414   36441       4
   36354   36381  -36417   36387       1   36351   36375   36411   36432       4
   36351   36375   36411   36435       4   36348   36333   36336   36351       1
   36348   36369  -36375   36351       1   36348   36369   36375   36411       1
   36342   36318   36336   36351       6   36342   36318   36339   36354       6
   36342   36318  -36339   36357       7   36342   36360   36393   36423       1
   36342   36360   36393   36426       1   36342   36363   36357   36387       5
   36342   36363  -36396   36426       1   36339   36318   36336   36351       6
   36339   36318   36342   36360       6   36339   36318  -36342   36363       7
   36339   36354   36381   36414       1   36339   36354   36381   36417       1
   36339   36357  -36363   36342       5   36339   36357   36363   36396       5
   36339   36357  -36387   36417       1   36336   36318   36339   36354       6
   36336   36318   36339   36357       7   36336   36318   36342   36360       6
   36336   36318   36342   36363       7   36336   36333   36348   36369       1
   36336   36351  -36375   36369       1   36336   36351   36375   36411       1
   36333   36336   36318   36339       7   36333   36336   36318   36342       7
   36333   36336   36351   36375       1   36333   36348  -36369   36375       1
   36318   36291  -36315   36333       1   36318   36336   36333   36348       1
   36318   36336   36351   36375       1   36318   36339   36354   36381       1
   36318   36339  -36357   36363       1   36318   36339   36357   36387       1
   36318   36342   36360   36393       1   36318   36342  -36363   36357       1
   36318   36342   36363   36396       1   36315   36291  -36318   36336       7
   36315   36291   36318   36339       7   36315   36291   36318   36342       7
   36315   36333  -36336   36318       1   36315   36333   36336   36351       1
   36315   36333   36348   36369       1   36309   36324   36345   36366       3
   36303   36324   36345   36366       3   36297   36315   36291   36318       1
   36297   36315   36333   36336       5   36297   36315   36333   36348       5
   36291   36315  -36333   36336       5   36291   36315   36333   36348       5
   36291   36318  -36336   36333       7   36291   36318   36336   36351       6
   36291   36318   36339   36354       6   36291   36318   36339   36357       7
   36291   36318   36342   36360       6   36291   36318   36342   36363       7
   36288   36276   36285   36303       1   36288   36309  -36324   36303       1
   36288   36309   36324   36345       1   36285   36276   36288   36309       1
   36285   36303  -36324   36309       1   36285   36303   36324   36345       1
   36282   36273   36279   36291       1   36282   36297  -36315   36291       1
   36282   36297   36315   36333       1   36279   36273   36282   36297       1
   36279   36291  -36315   36297       1   36279   36291   36315   36333       1
   36279   36291   36318   36336       6   36279   36291   36318   36339       6
   36279   36291   36318   36342       6   36276   36270   36273   36279       4
   36276   36270   36273   36282       4   36276   36285   36303   36324       1
   36276   36288  -36309   36324       1   36273   36270   36276   36285       4
   36273   36270   36276   36288       4   36273   36279   36291   36315       1
   36273   36279   36291   36318       1   36273   36282  -36297   36315       1
   36270   36273   36279   36291       1   36270   36273   36282   36297       1
   36270   36276   36285   36303       1   36270   36276   36288   36309       1
   36261   36270   36273   36279       4   36261   36270   36273   36282       4
   36261   36270   36276   36285       4   36261   36270   36276   36288       4
   36255   36261   36270   36273       4   36255   36261   36270   36276       4
   36249   36261   36270   36273       4   36249   36261   36270   36276       4
   36237   36228   36234   36249       1   36237   36255  -36261   36249       1
   36237   36255   36261   36270       1   36234   36228   36237   36255       1
   36234   36249  -36261   36255       1   36234   36249   36261   36270       1
   36231   36225   36228   36234       3   36231   36225   36228   36237       3
   36228   36234   36249   36261       1   36228   36237  -36255   36261       1
   36225   36228   36234   36249       1   36225   36228   36237   36255       1
   37041   37092   37116   37134       3   37035   37092   37116   37134       3
   37029   37083   37113   37131       3   37023   37083   37113   37131       3
   37017   37074   37110   37128       3   37011   37074   37110   37128       3
   37005   37068   37107   37125       3   36999   37068   37107   37125       3
   36996   37056   37104   37122       3   36990   37056   37104   37122       3
   36981   37047   37101   37119       3   36975   37047   37101   37119       3
   36972   36933   36969   37035       1   36972   37041  -37092   37035       1
   36972   37041   37092   37116       1   36969   36933   36972   37041       1
   36969   37035  -37092   37041       1   36969   37035   37092   37116       1
   36966   36930   36963   37023       1   36966   37029  -37083   37023       1
   36966   37029   37083   37113       1   36963   36930   36966   37029       1
   36963   37023  -37083   37029       1   36963   37023   37083   37113       1
   36960   36924   36957   37011       1   36960   37017  -37074   37011       1
   36960   37017   37074   37110       1   36957   36924   36960   37017       1
   36957   37011  -37074   37017       1   36957   37011   37074   37110       1
   36954   36921   36951   36999       1   36954   37005  -37068   36999       1
   36954   37005   37068   37107       1   36951   36921   36954   37005       1
   36951   36999  -37068   37005       1   36951   36999   37068   37107       1
   36948   36918   36945   36990       1   36948   36996  -37056   36990       1
   36948   36996   37056   37104       1   36945   36918   36948   36996       1
   36945   36990  -37056   36996       1   36945   36990   37056   37104       1
   36942   36915   36939   36975       1   36942   36981  -37047   36975       1
   36942   36981   37047   37101       1   36939   36915   36942   36981       1
   36939   36975  -37047   36981       1   36939   36975   37047   37101       1
   36933   36906   36930   36963       4   36933   36906   36930   36966       4
   36933   36969   37035   37092       1   36933   36972  -37041   37092       1
   36930   36906   36933   36969       4   36930   36906   36933   36972       4
   36930   36963   37023   37083       1   36930   36966  -37029   37083       1
   36924   36897   36921   36951       4   36924   36897   36921   36954       4
   36924   36957   37011   37074       1   36924   36960  -37017   37074       1
   36921   36897   36924   36957       4   36921   36897   36924   36960       4
   36921   36951   36999   37068       1   36921   36954  -37005   37068       1
   36918   36894   36915   36939       4   36918   36894   36915   36942       4
   36918   36945   36990   37056       1   36918   36948  -36996   37056       1
   36915   36894   36918   36945       4   36915   36894   36918   36948       4
   36915   36939   36975   37047       1   36915   36942  -36981   37047       1
   36909   36876   36906   36930       4   36909   36876   36906   36933       4
   36906   36930   36963   37023       1   36906   36930   36966   37029       1
   36906   36933   36969   37035       1   36906   36933   36972   37041       1
   36900   36864   36897   36921       4   36900   36864   36897   36924       4
   36897   36921   36951   36999       1   36897   36921   36954   37005       1
   36897   36924   36957   37011       1   36897   36924   36960   37017       1
   36894   36915   36939   36975       1   36894   36915   36942   36981       1
   36894   36918   36945   36990       1   36894   36918   36948   36996       1
   36879   36909   36876   36906       1   36876   36906   36930   36963       4
   36876   36906   36930   36966       4   36876   36906   36933   36969       4
   36876   36906   36933   36972       4   36870   36840   36846   36879       5
   36870   36900   36864   36897       1   36864   36897   36921   36951       4
   36864   36897   36921   36954       4   36864   36897   36924   36957       4
   36864   36897   36924   36960       4   36858   36894   36915   36939       4
   36858   36894   36915   36942       4   36858   36894   36918   36945       4
   36858   36894   36918   36948       4   36852   36858   36894   36915       4
   36852   36858   36894   36918       4   36846   36825   36843   36876       1
   36846   36840   36870   36900       1   36846   36879  -36909   36876       1
   36843   36825   36846   36879       1   36843   36876   36906   36930       4
   36843   36876   36906   36933       4   36843   36876  -36909   36879       1
   36840   36822   36837   36864       1   36840   36846   36825   36843       1
   36840   36846   36879   36909       1   36840   36870  -36900   36864       1
   36837   36822   36840   36846       1   36837   36822   36840   36870       1
   36837   36864   36897   36921       4   36837   36864   36897   36924       4
   36837   36864  -36900   36870       1   36834   36858   36894   36915       4
   36834   36858   36894   36918       4   36831   36816   36819   36834       1
   36831   36852  -36858   36834       1   36831   36852   36858   36894       1
   36825   36801   36819   36834       6   36825   36801   36822   36837       6
   36825   36801  -36822   36840       7   36825   36843   36876   36906       1
   36825   36843   36876   36909       1   36825   36846   36840   36870       5
   36825   36846  -36879   36909       1   36822   36801   36819   36834       6
   36822   36801   36825   36843       6   36822   36801  -36825   36846       7
   36822   36837   36864   36897       1   36822   36837   36864   36900       1
   36822   36840  -36846   36825       5   36822   36840   36846   36879       5
   36822   36840  -36870   36900       1   36819   36801   36822   36837       6
   36819   36801   36822   36840       7   36819   36801   36825   36843       6
   36819   36801   36825   36846       7   36819   36816   36831   36852       1
   36819   36834  -36858   36852       1   36819   36834   36858   36894       1
   36816   36819   36801   36822       7   36816   36819   36801   36825       7
   36816   36819   36834   36858       1   36816   36831  -36852   36858       1
   36801   36774  -36798   36816       1   36801   36819   36816   36831       1
   36801   36819   36834   36858       1   36801   36822   36837   36864       1
   36801   36822  -36840   36846       1   36801   36822   36840   36870       1
   36801   36825   36843   36876       1   36801   36825  -36846   36840       1
   36801   36825   36846   36879       1   36798   36774  -36801   36819       7
   36798   36774   36801   36822       7   36798   36774   36801   36825       7
   36798   36816  -36819   36801       1   36798   36816   36819   36834       1
   36798   36816   36831   36852       1   36792   36807   36828   36849       3
   36786   36807   36828   36849       3   36780   36798   36774   36801       1
   36780   36798   36816   36819       5   36780   36798   36816   36831       5
   36774   36798  -36816   36819       5   36774   36798   36816   36831       5
   36774   36801  -36819   36816       7   36774   36801   36819   36834       6
   36774   36801   36822   36837       6   36774   36801   36822   36840       7
   36774   36801   36825   36843       6   36774   36801   36825   36846       7
   36771   36759   36768   36786       1   36771   36792  -36807   36786       1
   36771   36792   36807   36828       1   36768   36759   36771   36792       1
   36768   36786  -36807   36792       1   36768   36786   36807   36828       1
   36765   36756   36762   36774       1   36765   36780  -36798   36774       1
   36765   36780   36798   36816       1   36762   36756   36765   36780       1
   36762   36774  -36798   36780       1   36762   36774   36798   36816       1
   36762   36774   36801   36819       6   36762   36774   36801   36822       6
   36762   36774   36801   36825       6   36759   36753   36756   36762       4
   36759   36753   36756   36765       4   36759   36768   36786   36807       1
   36759   36771  -36792   36807       1   36756   36753   36759   36768       4
   36756   36753   36759   36771       4   36756   36762   36774   36798       1
   36756   36762   36774   36801       1   36756   36765  -36780   36798       1
   36753   36756   36762   36774       1   36753   36756   36765   36780       1
   36753   36759   36768   36786       1   36753   36759   36771   36792       1
   36744   36753   36756   36762       4   36744   36753   36756   36765       4
   36744   36753   36759   36768       4   36744   36753   36759   36771       4
   36738   36744   36753   36756       4   36738   36744   36753   36759       4
   36732   36744   36753   36756       4   36732   36744   36753   36759       4
   36720   36711   36717   36732       1   36720   36738  -36744   36732       1
   36720   36738   36744   36753       1   36717   36711   36720   36738       1
   36717   36732  -36744   36738       1   36717   36732   36744   36753       1
   36714   36708   36711   36717       3   36714   36708   36711   36720       3
   36711   36717   36732   36744       1   36711   36720  -36738   36744       1
   36708   36711   36717   36732       1   36708   36711   36720   36738       1
   37524   37575   37599   37617       3   37518   37575   37599   37617       3
   37512   37566   37596   37614       3   37506   37566   37596   37614       3
   37500   37557   37593   37611       3   37494   37557   37593   37611       3
   37488   37551   37590   37608       3   37482   37551   37590   37608       3
   37479   37539   37587   37605       3   37473   37539   37587   37605       3
   37464   37530   37584   37602       3   37458   37530   37584   37602       3
   37455   37416   37452   37518       1   37455   37524  -37575   37518       1
   37455   37524   37575   37599       1   37452   37416   37455   37524       1
   37452   37518  -37575   37524       1   37452   37518   37575   37599       1
   37449   37413   37446   37506       1   37449   37512  -37566   37506       1
   37449   37512   37566   37596       1   37446   37413   37449   37512       1
   37446   37506  -37566   37512       1   37446   37506   37566   37596       1
   37443   37407   37440   37494       1   37443   37500  -37557   37494       1
   37443   37500   37557   37593       1   37440   37407   37443   37500       1
   37440   37494  -37557   37500       1   37440   37494   37557   37593       1
   37437   37404   37434   37482       1   37437   37488  -37551   37482       1
   37437   37488   37551   37590       1   37434   37404   37437   37488       1
   37434   37482  -37551   37488       1   37434   37482   37551   37590       1
   37431   37401   37428   37473       1   37431   37479  -37539   37473       1
   37431   37479   37539   37587       1   37428   37401   37431   37479       1
   37428   37473  -37539   37479       1   37428   37473   37539   37587       1
   37425   37398   37422   37458       1   37425   37464  -37530   37458       1
   37425   37464   37530   37584       1   37422   37398   37425   37464       1
   37422   37458  -37530   37464       1   37422   37458   37530   37584       1
   37416   37389   37413   37446       4   37416   37389   37413   37449       4
   37416   37452   37518   37575       1   37416   37455  -37524   37575       1
   37413   37389   37416   37452       4   37413   37389   37416   37455       4
   37413   37446   37506   37566       1   37413   37449  -37512   37566       1
   37407   37380   37404   37434       4   37407   37380   37404   37437       4
   37407   37440   37494   37557       1   37407   37443  -37500   37557       1
   37404   37380   37407   37440       4   37404   37380   37407   37443       4
   37404   37434   37482   37551       1   37404   37437  -37488   37551       1
   37401   37377   37398   37422       4   37401   37377   37398   37425       4
   37401   37428   37473   37539       1   37401   37431  -37479   37539       1
   37398   37377   37401   37428       4   37398   37377   37401   37431       4
   37398   37422   37458   37530       1   37398   37425  -37464   37530       1
   37392   37359   37389   37413       4   37392   37359   37389   37416       4
   37389   37413   37446   37506       1   37389   37413   37449   37512       1
   37389   37416   37452   37518       1   37389   37416   37455   37524       1
   37383   37347   37380   37404       4   37383   37347   37380   37407       4
   37380   37404   37434   37482       1   37380   37404   37437   37488       1
   37380   37407   37440   37494       1   37380   37407   37443   37500       1
   37377   37398   37422   37458       1   37377   37398   37425   37464       1
   37377   37401   37428   37473       1   37377   37401   37431   37479       1
   37362   37392   37359   37389       1   37359   37389   37413   37446       4
   37359   37389   37413   37449       4   37359   37389   37416   37452       4
   37359   37389   37416   37455       4   37353   37323   37329   37362       5
   37353   37383   37347   37380       1   37347   37380   37404   37434       4
   37347   37380   37404   37437       4   37347   37380   37407   37440       4
   37347   37380   37407   37443       4   37341   37377   37398   37422       4
   37341   37377   37398   37425       4   37341   37377   37401   37428       4
   37341   37377   37401   37431       4   37335   37341   37377   37398       4
   37335   37341   37377   37401       4   37329   37308   37326   37359       1
   37329   37323   37353   37383       1   37329   37362  -37392   37359       1
   37326   37308   37329   37362       1   37326   37359   37389   37413       4
   37326   37359   37389   37416       4   37326   37359  -37392   37362       1
   37323   37305   37320   37347       1   37323   37329   37308   37326       1
   37323   37329   37362   37392       1   37323   37353  -37383   37347       1
   37320   37305   37323   37329       1   37320   37305   37323   37353       1
   37320   37347   37380   37404       4   37320   37347   37380   37407       4
   37320   37347  -37383   37353       1   37317   37341   37377   37398       4
   37317   37341   37377   37401       4   37314   37299   37302   37317       1
   37314   37335  -37341   37317       1   37314   37335   37341   37377       1
   37308   37284   37302   37317       6   37308   37284   37305   37320       6
   37308   37284  -37305   37323       7   37308   37326   37359   37389       1
   37308   37326   37359   37392       1   37308   37329   37323   37353       5
   37308   37329  -37362   37392       1   37305   37284   37302   37317       6
   37305   37284   37308   37326       6   37305   37284  -37308   37329       7
   37305   37320   37347   37380       1   37305   37320   37347   37383       1
   37305   37323  -37329   37308       5   37305   37323   37329   37362       5
   37305   37323  -37353   37383       1   37302   37284   37305   37320       6
   37302   37284   37305   37323       7   37302   37284   37308   37326       6
   37302   37284   37308   37329       7   37302   37299   37314   37335       1
   37302   37317  -37341   37335       1   37302   37317   37341   37377       1
   37299   37302   37284   37305       7   37299   37302   37284   37308       7
   37299   37302   37317   37341       1   37299   37314  -37335   37341       1
   37284   37257  -37281   37299       1   37284   37302   37299   37314       1
   37284   37302   37317   37341       1   37284   37305   37320   37347       1
   37284   37305  -37323   37329       1   37284   37305   37323   37353       1
   37284   37308   37326   37359       1   37284   37308  -37329   37323       1
   37284   37308   37329   37362       1   37281   37257  -37284   37302       7
   37281   37257   37284   37305       7   37281   37257   37284   37308       7
   37281   37299  -37302   37284       1   37281   37299   37302   37317       1
   37281   37299   37314   37335       1   37275   37290   37311   37332       3
   37269   37290   37311   37332       3   37263   37281   37257   37284       1
   37263   37281   37299   37302       5   37263   37281   37299   37314       5
   37257   37281  -37299   37302       5   37257   37281   37299   37314       5
   37257   37284  -37302   37299       7   37257   37284   37302   37317       6
   37257   37284   37305   37320       6   37257   37284   37305   37323       7
   37257   37284   37308   37326       6   37257   37284   37308   37329       7
   37254   37242   37251   37269       1   37254   37275  -37290   37269       1
   37254   37275   37290   37311       1   37251   37242   37254   37275       1
   37251   37269  -37290   37275       1   37251   37269   37290   37311       1
   37248   37239   37245   37257       1   37248   37263  -37281   37257       1
   37248   37263   37281   37299       1   37245   37239   37248   37263       1
   37245   37257  -37281   37263       1   37245   37257   37281   37299       1
   37245   37257   37284   37302       6   37245   37257   37284   37305       6
   37245   37257   37284   37308       6   37242   37236   37239   37245       4
   37242   37236   37239   37248       4   37242   37251   37269   37290       1
   37242   37254  -37275   37290       1   37239   37236   37242   37251       4
   37239   37236   37242   37254       4   37239   37245   37257   37281       1
   37239   37245   37257   37284       1   37239   37248  -37263   37281       1
   37236   37239   37245   37257       1   37236   37239   37248   37263       1
   37236   37242   37251   37269       1   37236   37242   37254   37275       1
   37227   37236   37239   37245       4   37227   37236   37239   37248       4
   37227   37236   37242   37251       4   37227   37236   37242   37254       4
   37221   37227   37236   37239       4   37221   37227   37236   37242       4
   37215   37227   37236   37239       4   37215   37227   37236   37242       4
   37203   37194   37200   37215       1   37203   37221  -37227   37215       1
   37203   37221   37227   37236       1   37200   37194   37203   37221       1
   37200   37215  -37227   37221       1   37200   37215   37227   37236       1
   37197   37191   37194   37200       3   37197   37191   37194   37203       3
   37194   37200   37215   37227       1   37194   37203  -37221   37227       1
   37191   37194   37200   37215       1   37191   37194   37203   37221       1
   38007   38058   38082   38100       3   38001   38058   38082   38100       3
   37995   38049   38079   38097       3   37989   38049   38079   38097       3
   37983   38040   38076   38094       3   37977   38040   38076   38094       3
   37971   38034   38073   38091       3   37965   38034   38073   38091       3
   37962   38022   38070   38088       3   37956   38022   38070   38088       3
   37947   38013   38067   38085       3   37941   38013   38067   38085       3
   37938   37899   37935   38001       1   37938   38007  -38058   38001       1
   37938   38007   38058   38082       1   37935   37899   37938   38007       1
   37935   38001  -38058   38007       1   37935   38001   38058   38082       1
   37932   37896   37929   37989       1   37932   37995  -38049   37989       1
   37932   37995   38049   38079       1   37929   37896   37932   37995       1
   37929   37989  -38049   37995       1   37929   37989   38049   38079       1
   37926   37890   37923   37977       1   37926   37983  -38040   37977       1
   37926   37983   38040   38076       1   37923   37890   37926   37983       1
   37923   37977  -38040   37983       1   37923   37977   38040   38076       1
   37920   37887   37917   37965       1   37920   37971  -38034   37965       1
   37920   37971   38034   38073       1   37917   37887   37920   37971       1
   37917   37965  -38034   37971       1   37917   37965   38034   38073       1
   37914   37884   37911   37956       1   37914   37962  -38022   37956       1
   37914   37962   38022   38070       1   37911   37884   37914   37962       1
   37911   37956  -38022   37962       1   37911   37956   38022   38070       1
   37908   37881   37905   37941       1   37908   37947  -38013   37941       1
   37908   37947   38013   38067       1   37905   37881   37908   37947       1
   37905   37941  -38013   37947       1   37905   37941   38013   38067       1
   37899   37872   37896   37929       4   37899   37872   37896   37932       4
   37899   37935   38001   38058       1   37899   37938  -38007   38058       1
   37896   37872   37899   37935       4   37896   37872   37899   37938       4
   37896   37929   37989   38049       1   37896   37932  -37995   38049       1
   37890   37863   37887   37917       4   37890   37863   37887   37920       4
   37890   37923   37977   38040       1   37890   37926  -37983   38040       1
   37887   37863   37890   37923       4   37887   37863   37890   37926       4
   37887   37917   37965   38034       1   37887   37920  -37971   38034       1
   37884   37860   37881   37905       4   37884   37860   37881   37908       4
   37884   37911   37956   38022       1   37884   37914  -37962   38022       1
   37881   37860   37884   37911       4   37881   37860   37884   37914       4
   37881   37905   37941   38013       1   37881   37908  -37947   38013       1
   37875   37842   37872   37896       4   37875   37842   37872   37899       4
   37872   37896   37929   37989       1   37872   37896   37932   37995       1
   37872   37899   37935   38001       1   37872   37899   37938   38007       1
   37866   37830   37863   37887       4   37866   37830   37863   37890       4
   37863   37887   37917   37965       1   37863   37887   37920   37971       1
   37863   37890   37923   37977       1   37863   37890   37926   37983       1
   37860   37881   37905   37941       1   37860   37881   37908   37947       1
   37860   37884   37911   37956       1   37860   37884   37914   37962       1
   37845   37875   37842   37872       1   37842   37872   37896   37929       4
   37842   37872   37896   37932       4   37842   37872   37899   37935       4
   37842   37872   37899   37938       4   37836   37806   37812   37845       5
   37836   37866   37830   37863       1   37830   37863   37887   37917       4
   37830   37863   37887   37920       4   37830   37863   37890   37923       4
   37830   37863   37890   37926       4   37824   37860   37881   37905       4
   37824   37860   37881   37908       4   37824   37860   37884   37911       4
   37824   37860   37884   37914       4   37818   37824   37860   37881       4
   37818   37824   37860   37884       4   37812   37791   37809   37842       1
   37812   37806   37836   37866       1   37812   37845  -37875   37842       1
   37809   37791   37812   37845       1   37809   37842   37872   37896       4
   37809   37842   37872   37899       4   37809   37842  -37875   37845       1
   37806   37788   37803   37830       1   37806   37812   37791   37809       1
   37806   37812   37845   37875       1   37806   37836  -37866   37830       1
   37803   37788   37806   37812       1   37803   37788   37806   37836       1
   37803   37830   37863   37887       4   37803   37830   37863   37890       4
   37803   37830  -37866   37836       1   37800   37824   37860   37881       4
   37800   37824   37860   37884       4   37797   37782   37785   37800       1
   37797   37818  -37824   37800       1   37797   37818   37824   37860       1
   37791   37767   37785   37800       6   37791   37767   37788   37803       6
   37791   37767  -37788   37806       7   37791   37809   37842   37872       1
   37791   37809   37842   37875       1   37791   37812   37806   37836       5
   37791   37812  -37845   37875       1   37788   37767   37785   37800       6
   37788   37767   37791   37809       6   37788   37767  -37791   37812       7
   37788   37803   37830   37863       1   37788   37803   37830   37866       1
   37788   37806  -37812   37791       5   37788   37806   37812   37845       5
   37788   37806  -37836   37866       1   37785   37767   37788   37803       6
   37785   37767   37788   37806       7   37785   37767   37791   37809       6
   37785   37767   37791   37812       7   37785   37782   37797   37818       1
   37785   37800  -37824   37818       1   37785   37800   37824   37860       1
   37782   37785   37767   37788       7   37782   37785   37767   37791       7
   37782   37785   37800   37824       1   37782   37797  -37818   37824       1
   37767   37740  -37764   37782       1   37767   37785   37782   37797       1
   37767   37785   37800   37824       1   37767   37788   37803   37830       1
   37767   37788  -37806   37812       1   37767   37788   37806   37836       1
   37767   37791   37809   37842       1   37767   37791  -37812   37806       1
   37767   37791   37812   37845       1   37764   37740  -37767   37785       7
   37764   37740   37767   37788       7   37764   37740   37767   37791       7
   37764   37782  -37785   37767       1   37764   37782   37785   37800       1
   37764   37782   37797   37818       1   37758   37773   37794   37815       3
   37752   37773   37794   37815       3   37746   37764   37740   37767       1
   37746   37764   37782   37785       5   37746   37764   37782   37797       5
   37740   37764  -37782   37785       5   37740   37764   37782   37797       5
   37740   37767  -37785   37782       7   37740   37767   37785   37800       6
   37740   37767   37788   37803       6   37740   37767   37788   37806       7
   37740   37767   37791   37809       6   37740   37767   37791   37812       7
   37737   37725   37734   37752       1   37737   37758  -37773   37752       1
   37737   37758   37773   37794       1   37734   37725   37737   37758       1
   37734   37752  -37773   37758       1   37734   37752   37773   37794       1
   37731   37722   37728   37740       1   37731   37746  -37764   37740       1
   37731   37746   37764   37782       1   37728   37722   37731   37746       1
   37728   37740  -37764   37746       1   37728   37740   37764   37782       1
   37728   37740   37767   37785       6   37728   37740   37767   37788       6
   37728   37740   37767   37791       6   37725   37719   37722   37728       4
   37725   37719   37722   37731       4   37725   37734   37752   37773       1
   37725   37737  -37758   37773       1   37722   37719   37725   37734       4
   37722   37719   37725   37737       4   37722   37728   37740   37764       1
   37722   37728   37740   37767       1   37722   37731  -37746   37764       1
   37719   37722   37728   37740       1   37719   37722   37731   37746       1
   37719   37725   37734   37752       1   37719   37725   37737   37758       1
   37710   37719   37722   37728       4   37710   37719   37722   37731       4
   37710   37719   37725   37734       4   37710   37719   37725   37737       4
   37704   37710   37719   37722       4   37704   37710   37719   37725       4
   37698   37710   37719   37722       4   37698   37710   37719   37725       4
   37686   37677   37683   37698       1   37686   37704  -37710   37698       1
   37686   37704   37710   37719       1   37683   37677   37686   37704       1
   37683   37698  -37710   37704       1   37683   37698   37710   37719       1
   37680   37674   37677   37683       3   37680   37674   37677   37686       3
   37677   37683   37698   37710       1   37677   37686  -37704   37710       1
   37674   37677   37683   37698       1   37674   37677   37686   37704       1
   38490   38541   38565   38583       3   38484   38541   38565   38583       3
   38478   38532   38562   38580       3   38472   38532   38562   38580       3
   38466   38523   38559   38577       3   38460   38523   38559   38577       3
   38454   38517   38556   38574       3   38448   38517   38556   38574       3
   38445   38505   38553   38571       3   38439   38505   38553   38571       3
   38430   38496   38550   38568       3   38424   38496   38550   38568       3
   38421   38382   38418   38484       1   38421   38490  -38541   38484       1
   38421   38490   38541   38565       1   38418   38382   38421   38490       1
   38418   38484  -38541   38490       1   38418   38484   38541   38565       1
   38415   38379   38412   38472       1   38415   38478  -38532   38472       1
   38415   38478   38532   38562       1   38412   38379   38415   38478       1
   38412   38472  -38532   38478       1   38412   38472   38532   38562       1
   38409   38373   38406   38460       1   38409   38466  -38523   38460       1
   38409   38466   38523   38559       1   38406   38373   38409   38466       1
   38406   38460  -38523   38466       1   38406   38460   38523   38559       1
   38403   38370   38400   38448       1   38403   38454  -38517   38448       1
   38403   38454   38517   38556       1   38400   38370   38403   38454       1
   38400   38448  -38517   38454       1   38400   38448   38517   38556       1
   38397   38367   38394   38439       1   38397   38445  -38505   38439       1
   38397   38445   38505   38553       1   38394   38367   38397   38445       1
   38394   38439  -38505   38445       1   38394   38439   38505   38553       1
   38391   38364   38388   38424       1   38391   38430  -38496   38424       1
   38391   38430   38496   38550       1   38388   38364   38391   38430       1
   38388   38424  -38496   38430       1   38388   38424   38496   38550       1
   38382   38355   38379   38412       4   38382   38355   38379   38415       4
   38382   38418   38484   38541       1   38382   38421  -38490   38541       1
   38379   38355   38382   38418       4   38379   38355   38382   38421       4
   38379   38412   38472   38532       1   38379   38415  -38478   38532       1
   38373   38346   38370   38400       4   38373   38346   38370   38403       4
   38373   38406   38460   38523       1   38373   38409  -38466   38523       1
   38370   38346   38373   38406       4   38370   38346   38373   38409       4
   38370   38400   38448   38517       1   38370   38403  -38454   38517       1
   38367   38343   38364   38388       4   38367   38343   38364   38391       4
   38367   38394   38439   38505       1   38367   38397  -38445   38505       1
   38364   38343   38367   38394       4   38364   38343   38367   38397       4
   38364   38388   38424   38496       1   38364   38391  -38430   38496       1
   38358   38325   38355   38379       4   38358   38325   38355   38382       4
   38355   38379   38412   38472       1   38355   38379   38415   38478       1
   38355   38382   38418   38484       1   38355   38382   38421   38490       1
   38349   38313   38346   38370       4   38349   38313   38346   38373       4
   38346   38370   38400   38448       1   38346   38370   38403   38454       1
   38346   38373   38406   38460       1   38346   38373   38409   38466       1
   38343   38364   38388   38424       1   38343   38364   38391   38430       1
   38343   38367   38394   38439       1   38343   38367   38397   38445       1
   38328   38358   38325   38355       1   38325   38355   38379   38412       4
   38325   38355   38379   38415       4   38325   38355   38382   38418       4
   38325   38355   38382   38421       4   38319   38289   38295   38328       5
   38319   38349   38313   38346       1   38313   38346   38370   38400       4
   38313   38346   38370   38403       4   38313   38346   38373   38406       4
   38313   38346   38373   38409       4   38307   38343   38364   38388       4
   38307   38343   38364   38391       4   38307   38343   38367   38394       4
   38307   38343   38367   38397       4   38301   38307   38343   38364       4
   38301   38307   38343   38367       4   38295   38274   38292   38325       1
   38295   38289   38319   38349       1   38295   38328  -38358   38325       1
   38292   38274   38295   38328       1   38292   38325   38355   38379       4
   38292   38325   38355   38382       4   38292   38325  -38358   38328       1
   38289   38271   38286   38313       1   38289   38295   38274   38292       1
   38289   38295   38328   38358       1   38289   38319  -38349   38313       1
   38286   38271   38289   38295       1   38286   38271   38289   38319       1
   38286   38313   38346   38370       4   38286   38313   38346   38373       4
   38286   38313  -38349   38319       1   38283   38307   38343   38364       4
   38283   38307   38343   38367       4   38280   38265   38268   38283       1
   38280   38301  -38307   38283       1   38280   38301   38307   38343       1
   38274   38250   38268   38283       6   38274   38250   38271   38286       6
   38274   38250  -38271   38289       7   38274   38292   38325   38355       1
   38274   38292   38325   38358       1   38274   38295   38289   38319       5
   38274   38295  -38328   38358       1   38271   38250   38268   38283       6
   38271   38250   38274   38292       6   38271   38250  -38274   38295       7
   38271   38286   38313   38346       1   38271   38286   38313   38349       1
   38271   38289  -38295   38274       5   38271   38289   38295   38328       5
   38271   38289  -38319   38349       1   38268   38250   38271   38286       6
   38268   38250   38271   38289       7   38268   38250   38274   38292       6
   38268   38250   38274   38295       7   38268   38265   38280   38301       1
   38268   38283  -38307   38301       1   38268   38283   38307   38343       1
   38265   38268   38250   38271       7   38265   38268   38250   38274       7
   38265   38268   38283   38307       1   38265   38280  -38301   38307       1
   38250   38223  -38247   38265       1   38250   38268   38265   38280       1
   38250   38268   38283   38307       1   38250   38271   38286   38313       1
   38250   38271  -38289   38295       1   38250   38271   38289   38319       1
   38250   38274   38292   38325       1   38250   38274  -38295   38289       1
   38250   38274   38295   38328       1   38247   38223  -38250   38268       7
   38247   38223   38250   38271       7   38247   38223   38250   38274       7
   38247   38265  -38268   38250       1   38247   38265   38268   38283       1
   38247   38265   38280   38301       1   38241   38256   38277   38298       3
   38235   38256   38277   38298       3   38229   38247   38223   38250       1
   38229   38247   38265   38268       5   38229   38247   38265   38280       5
   38223   38247  -38265   38268       5   38223   38247   38265   38280       5
   38223   38250  -38268   38265       7   38223   38250   38268   38283       6
   38223   38250   38271   38286       6   38223   38250   38271   38289       7
   38223   38250   38274   38292       6   38223   38250   38274   38295       7
   38220   38208   38217   38235       1   38220   38241  -38256   38235       1
   38220   38241   38256   38277       1   38217   38208   38220   38241       1
   38217   38235  -38256   38241       1   38217   38235   38256   38277       1
   38214   38205   38211   38223       1   38214   38229  -38247   38223       1
   38214   38229   38247   38265       1   38211   38205   38214   38229       1
   38211   38223  -38247   38229       1   38211   38223   38247   38265       1
   38211   38223   38250   38268       6   38211   38223   38250   38271       6
   38211   38223   38250   38274       6   38208   38202   38205   38211       4
   38208   38202   38205   38214       4   38208   38217   38235   38256       1
   38208   38220  -38241   38256       1   38205   38202   38208   38217       4
   38205   38202   38208   38220       4   38205   38211   38223   38247       1
   38205   38211   38223   38250       1   38205   38214  -38229   38247       1
   38202   38205   38211   38223       1   38202   38205   38214   38229       1
   38202   38208   38217   38235       1   38202   38208   38220   38241       1
   38193   38202   38205   38211       4   38193   38202   38205   38214       4
   38193   38202   38208   38217       4   38193   38202   38208   38220       4
   38187   38193   38202   38205       4   38187   38193   38202   38208       4
   38181   38193   38202   38205       4   38181   38193   38202   38208       4
   38169   38160   38166   38181       1   38169   38187  -38193   38181       1
   38169   38187   38193   38202       1   38166   38160   38169   38187       1
   38166   38181  -38193   38187       1   38166   38181   38193   38202       1
   38163   38157   38160   38166       3   38163   38157   38160   38169       3
   38160   38166   38181   38193       1   38160   38169  -38187   38193       1
   38157   38160   38166   38181       1   38157   38160   38169   38187       1
   38973   39024   39048   39066       3   38967   39024   39048   39066       3
   38961   39015   39045   39063       3   38955   39015   39045   39063       3
   38949   39006   39042   39060       3   38943   39006   39042   39060       3
   38937   39000   39039   39057       3   38931   39000   39039   39057       3
   38928   38988   39036   39054       3   38922   38988   39036   39054       3
   38913   38979   39033   39051       3   38907   38979   39033   39051       3
   38904   38865   38901   38967       1   38904   38973  -39024   38967       1
   38904   38973   39024   39048       1   38901   38865   38904   38973       1
   38901   38967  -39024   38973       1   38901   38967   39024   39048       1
   38898   38862   38895   38955       1   38898   38961  -39015   38955       1
   38898   38961   39015   39045       1   38895   38862   38898   38961       1
   38895   38955  -39015   38961       1   38895   38955   39015   39045       1
   38892   38856   38889   38943       1   38892   38949  -39006   38943       1
   38892   38949   39006   39042       1   38889   38856   38892   38949       1
   38889   38943  -39006   38949       1   38889   38943   39006   39042       1
   38886   38853   38883   38931       1   38886   38937  -39000   38931       1
   38886   38937   39000   39039       1   38883   38853   38886   38937       1
   38883   38931  -39000   38937       1   38883   38931   39000   39039       1
   38880   38850   38877   38922       1   38880   38928  -38988   38922       1
   38880   38928   38988   39036       1   38877   38850   38880   38928       1
   38877   38922  -38988   38928       1   38877   38922   38988   39036       1
   38874   38847   38871   38907       1   38874   38913  -38979   38907       1
   38874   38913   38979   39033       1   38871   38847   38874   38913       1
   38871   38907  -38979   38913       1   38871   38907   38979   39033       1
   38865   38838   38862   38895       4   38865   38838   38862   38898       4
   38865   38901   38967   39024       1   38865   38904  -38973   39024       1
   38862   38838   38865   38901       4   38862   38838   38865   38904       4
   38862   38895   38955   39015       1   38862   38898  -38961   39015       1
   38856   38829   38853   38883       4   38856   38829   38853   38886       4
   38856   38889   38943   39006       1   38856   38892  -38949   39006       1
   38853   38829   38856   38889       4   38853   38829   38856   38892       4
   38853   38883   38931   39000       1   38853   38886  -38937   39000       1
   38850   38826   38847   38871       4   38850   38826   38847   38874       4
   38850   38877   38922   38988       1   38850   38880  -38928   38988       1
   38847   38826   38850   38877       4   38847   38826   38850   38880       4
   38847   38871   38907   38979       1   38847   38874  -38913   38979       1
   38841   38808   38838   38862       4   38841   38808   38838   38865       4
   38838   38862   38895   38955       1   38838   38862   38898   38961       1
   38838   38865   38901   38967       1   38838   38865   38904   38973       1
   38832   38796   38829   38853       4   38832   38796   38829   38856       4
   38829   38853   38883   38931       1   38829   38853   38886   38937       1
   38829   38856   38889   38943       1   38829   38856   38892   38949       1
   38826   38847   38871   38907       1   38826   38847   38874   38913       1
   38826   38850   38877   38922       1   38826   38850   38880   38928       1
   38811   38841   38808   38838       1   38808   38838   38862   38895       4
   38808   38838   38862   38898       4   38808   38838   38865   38901       4
   38808   38838   38865   38904       4   38802   38772   38778   38811       5
   38802   38832   38796   38829       1   38796   38829   38853   38883       4
   38796   38829   38853   38886       4   38796   38829   38856   38889       4
   38796   38829   38856   38892       4   38790   38826   38847   38871       4
   38790   38826   38847   38874       4   38790   38826   38850   38877       4
   38790   38826   38850   38880       4   38784   38790   38826   38847       4
   38784   38790   38826   38850       4   38778   38757   38775   38808       1
   38778   38772   38802   38832       1   38778   38811  -38841   38808       1
   38775   38757   38778   38811       1   38775   38808   38838   38862       4
   38775   38808   38838   38865       4   38775   38808  -38841   38811       1
   38772   38754   38769   38796       1   38772   38778   38757   38775       1
   38772   38778   38811   38841       1   38772   38802  -38832   38796       1
   38769   38754   38772   38778       1   38769   38754   38772   38802       1
   38769   38796   38829   38853       4   38769   38796   38829   38856       4
   38769   38796  -38832   38802       1   38766   38790   38826   38847       4
   38766   38790   38826   38850       4   38763   38748   38751   38766       1
   38763   38784  -38790   38766       1   38763   38784   38790   38826       1
   38757   38733   38751   38766       6   38757   38733   38754   38769       6
   38757   38733  -38754   38772       7   38757   38775   38808   38838       1
   38757   38775   38808   38841       1   38757   38778   38772   38802       5
   38757   38778  -38811   38841       1   38754   38733   38751   38766       6
   38754   38733   38757   38775       6   38754   38733  -38757   38778       7
   38754   38769   38796   38829       1   38754   38769   38796   38832       1
   38754   38772  -38778   38757       5   38754   38772   38778   38811       5
   38754   38772  -38802   38832       1   38751   38733   38754   38769       6
   38751   38733   38754   38772       7   38751   38733   38757   38775       6
   38751   38733   38757   38778       7   38751   38748   38763   38784       1
   38751   38766  -38790   38784       1   38751   38766   38790   38826       1
   38748   38751   38733   38754       7   38748   38751   38733   38757       7
   38748   38751   38766   38790       1   38748   38763  -38784   38790       1
   38733   38706  -38730   38748       1   38733   38751   38748   38763       1
   38733   38751   38766   38790       1   38733   38754   38769   38796       1
   38733   38754  -38772   38778       1   38733   38754   38772   38802       1
   38733   38757   38775   38808       1   38733   38757  -38778   38772       1
   38733   38757   38778   38811       1   38730   38706  -38733   38751       7
   38730   38706   38733   38754       7   38730   38706   38733   38757       7
   38730   38748  -38751   38733       1   38730   38748   38751   38766       1
   38730   38748   38763   38784       1   38724   38739   38760   38781       3
   38718   38739   38760   38781       3   38712   38730   38706   38733       1
   38712   38730   38748   38751       5   38712   38730   38748   38763       5
   38706   38730  -38748   38751       5   38706   38730   38748   38763       5
   38706   38733  -38751   38748       7   38706   38733   38751   38766       6
   38706   38733   38754   38769       6   38706   38733   38754   38772       7
   38706   38733   38757   38775       6   38706   38733   38757   38778       7
   38703   38691   38700   38718       1   38703   38724  -38739   38718       1
   38703   38724   38739   38760       1   38700   38691   38703   38724       1
   38700   38718  -38739   38724       1   38700   38718   38739   38760       1
   38697   38688   38694   38706       1   38697   38712  -38730   38706       1
   38697   38712   38730   38748       1   38694   38688   38697   38712       1
   38694   38706  -38730   38712       1   38694   38706   38730   38748       1
   38694   38706   38733   38751       6   38694   38706   38733   38754       6
   38694   38706   38733   38757       6   38691   38685   38688   38694       4
   38691   38685   38688   38697       4   38691   38700   38718   38739       1
   38691   38703  -38724   38739       1   38688   38685   38691   38700       4
   38688   38685   38691   38703       4   38688   38694   38706   38730       1
   38688   38694   38706   38733       1   38688   38697  -38712   38730       1
   38685   38688   38694   38706       1   38685   38688   38697   38712       1
   38685   38691   38700   38718       1   38685   38691   38703   38724       1
   38676   38685   38688   38694       4   38676   38685   38688   38697       4
   38676   38685   38691   38700       4   38676   38685   38691   38703       4
   38670   38676   38685   38688       4   38670   38676   38685   38691       4
   38664   38676   38685   38688       4   38664   38676   38685   38691       4
   38652   38643   38649   38664       1   38652   38670  -38676   38664       1
   38652   38670   38676   38685       1   38649   38643   38652   38670       1
   38649   38664  -38676   38670       1   38649   38664   38676   38685       1
   38646   38640   38643   38649       3   38646   38640   38643   38652       3
   38643   38649   38664   38676       1   38643   38652  -38670   38676       1
   38640   38643   38649   38664       1   38640   38643   38652   38670       1
   39456   39507   39531   39549       3   39450   39507   39531   39549       3
   39444   39498   39528   39546       3   39438   39498   39528   39546       3
   39432   39489   39525   39543       3   39426   39489   39525   39543       3
   39420   39483   39522   39540       3   39414   39483   39522   39540       3
   39411   39471   39519   39537       3   39405   39471   39519   39537       3
   39396   39462   39516   39534       3   39390   39462   39516   39534       3
   39387   39348   39384   39450       1   39387   39456  -39507   39450       1
   39387   39456   39507   39531       1   39384   39348   39387   39456       1
   39384   39450  -39507   39456       1   39384   39450   39507   39531       1
   39381   39345   39378   39438       1   39381   39444  -39498   39438       1
   39381   39444   39498   39528       1   39378   39345   39381   39444       1
   39378   39438  -39498   39444       1   39378   39438   39498   39528       1
   39375   39339   39372   39426       1   39375   39432  -39489   39426       1
   39375   39432   39489   39525       1   39372   39339   39375   39432       1
   39372   39426  -39489   39432       1   39372   39426   39489   39525       1
   39369   39336   39366   39414       1   39369   39420  -39483   39414       1
   39369   39420   39483   39522       1   39366   39336   39369   39420       1
   39366   39414  -39483   39420       1   39366   39414   39483   39522       1
   39363   39333   39360   39405       1   39363   39411  -39471   39405       1
   39363   39411   39471   39519       1   39360   39333   39363   39411       1
   39360   39405  -39471   39411       1   39360   39405   39471   39519       1
   39357   39330   39354   39390       1   39357   39396  -39462   39390       1
   39357   39396   39462   39516       1   39354   39330   39357   39396       1
   39354   39390  -39462   39396       1   39354   39390   39462   39516       1
   39348   39321   39345   39378       4   39348   39321   39345   39381       4
   39348   39384   39450   39507       1   39348   39387  -39456   39507       1
   39345   39321   39348   39384       4   39345   39321   39348   39387       4
   39345   39378   39438   39498       1   39345   39381  -39444   39498       1
   39339   39312   39336   39366       4   39339   39312   39336   39369       4
   39339   39372   39426   39489       1   39339   39375  -39432   39489       1
   39336   39312   39339   39372       4   39336   39312   39339   39375       4
   39336   39366   39414   39483       1   39336   39369  -39420   39483       1
   39333   39309   39330   39354       4   39333   39309   39330   39357       4
   39333   39360   39405   39471       1   39333   39363  -39411   39471       1
   39330   39309   39333   39360       4   39330   39309   39333   39363       4
   39330   39354   39390   39462       1   39330   39357  -39396   39462       1
   39324   39291   39321   39345       4   39324   39291   39321   39348       4
   39321   39345   39378   39438       1   39321   39345   39381   39444       1
   39321   39348   39384   39450       1   39321   39348   39387   39456       1
   39315   39279   39312   39336       4   39315   39279   39312   39339       4
   39312   39336   39366   39414       1   39312   39336   39369   39420       1
   39312   39339   39372   39426       1   39312   39339   39375   39432       1
   39309   39330   39354   39390       1   39309   39330   39357   39396       1
   39309   39333   39360   39405       1   39309   39333   39363   39411       1
   39294   39324   39291   39321       1   39291   39321   39345   39378       4
   39291   39321   39345   39381       4   39291   39321   39348   39384       4
   39291   39321   39348   39387       4   39285   39255   39261   39294       5
   39285   39315   39279   39312       1   39279   39312   39336   39366       4
   39279   39312   39336   39369       4   39279   39312   39339   39372       4
   39279   39312   39339   39375       4   39273   39309   39330   39354       4
   39273   39309   39330   39357       4   39273   39309   39333   39360       4
   39273   39309   39333   39363       4   39267   39273   39309   39330       4
   39267   39273   39309   39333       4   39261   39240   39258   39291       1
   39261   39255   39285   39315       1   39261   39294  -39324   39291       1
   39258   39240   39261   39294       1   39258   39291   39321   39345       4
   39258   39291   39321   39348       4   39258   39291  -39324   39294       1
   39255   39237   39252   39279       1   39255   39261   39240   39258       1
   39255   39261   39294   39324       1   39255   39285  -39315   39279       1
   39252   39237   39255   39261       1   39252   39237   39255   39285       1
   39252   39279   39312   39336       4   39252   39279   39312   39339       4
   39252   39279  -39315   39285       1   39249   39273   39309   39330       4
   39249   39273   39309   39333       4   39246   39231   39234   39249       1
   39246   39267  -39273   39249       1   39246   39267   39273   39309       1
   39240   39216   39234   39249       6   39240   39216   39237   39252       6
   39240   39216  -39237   39255       7   39240   39258   39291   39321       1
   39240   39258   39291   39324       1   39240   39261   39255   39285       5
   39240   39261  -39294   39324       1   39237   39216   39234   39249       6
   39237   39216   39240   39258       6   39237   39216  -39240   39261       7
   39237   39252   39279   39312       1   39237   39252   39279   39315       1
   39237   39255  -39261   39240       5   39237   39255   39261   39294       5
   39237   39255  -39285   39315       1   39234   39216   39237   39252       6
   39234   39216   39237   39255       7   39234   39216   39240   39258       6
   39234   39216   39240   39261       7   39234   39231   39246   39267       1
   39234   39249  -39273   39267       1   39234   39249   39273   39309       1
   39231   39234   39216   39237       7   39231   39234   39216   39240       7
   39231   39234   39249   39273       1   39231   39246  -39267   39273       1
   39216   39189  -39213   39231       1   39216   39234   39231   39246       1
   39216   39234   39249   39273       1   39216   39237   39252   39279       1
   39216   39237  -39255   39261       1   39216   39237   39255   39285       1
   39216   39240   39258   39291       1   39216   39240  -39261   39255       1
   39216   39240   39261   39294       1   39213   39189  -39216   39234       7
   39213   39189   39216   39237       7   39213   39189   39216   39240       7
   39213   39231  -39234   39216       1   39213   39231   39234   39249       1
   39213   39231   39246   39267       1   39207   39222   39243   39264       3
   39201   39222   39243   39264       3   39195   39213   39189   39216       1
   39195   39213   39231   39234       5   39195   39213   39231   39246       5
   39189   39213  -39231   39234       5   39189   39213   39231   39246       5
   39189   39216  -39234   39231       7   39189   39216   39234   39249       6
   39189   39216   39237   39252       6   39189   39216   39237   39255       7
   39189   39216   39240   39258       6   39189   39216   39240   39261       7
   39186   39174   39183   39201       1   39186   39207  -39222   39201       1
   39186   39207   39222   39243       1   39183   39174   39186   39207       1
   39183   39201  -39222   39207       1   39183   39201   39222   39243       1
   39180   39171   39177   39189       1   39180   39195  -39213   39189       1
   39180   39195   39213   39231       1   39177   39171   39180   39195       1
   39177   39189  -39213   39195       1   39177   39189   39213   39231       1
   39177   39189   39216   39234       6   39177   39189   39216   39237       6
   39177   39189   39216   39240       6   39174   39168   39171   39177       4
   39174   39168   39171   39180       4   39174   39183   39201   39222       1
   39174   39186  -39207   39222       1   39171   39168   39174   39183       4
   39171   39168   39174   39186       4   39171   39177   39189   39213       1
   39171   39177   39189   39216       1   39171   39180  -39195   39213       1
   39168   39171   39177   39189       1   39168   39171   39180   39195       1
   39168   39174   39183   39201       1   39168   39174   39186   39207       1
   39159   39168   39171   39177       4   39159   39168   39171   39180       4
   39159   39168   39174   39183       4   39159   39168   39174   39186       4
   39153   39159   39168   39171       4   39153   39159   39168   39174       4
   39147   39159   39168   39171       4   39147   39159   39168   39174       4
   39135   39126   39132   39147       1   39135   39153  -39159   39147       1
   39135   39153   39159   39168       1   39132   39126   39135   39153       1
   39132   39147  -39159   39153       1   39132   39147   39159   39168       1
   39129   39123   39126   39132       3   39129   39123   39126   39135       3
   39126   39132   39147   39159       1   39126   39135  -39153   39159       1
   39123   39126   39132   39147       1   39123   39126   39135   39153       1
   39939   39990   40014   40032       3   39933   39990   40014   40032       3
   39927   39981   40011   40029       3   39921   39981   40011   40029       3
   39915   39972   40008   40026       3   39909   39972   40008   40026       3
   39903   39966   40005   40023       3   39897   39966   40005   40023       3
   39894   39954   40002   40020       3   39888   39954   40002   40020       3
   39879   39945   39999   40017       3   39873   39945   39999   40017       3
   39870   39831   39867   39933       1   39870   39939  -39990   39933       1
   39870   39939   39990   40014       1   39867   39831   39870   39939       1
   39867   39933  -39990   39939       1   39867   39933   39990   40014       1
   39864   39828   39861   39921       1   39864   39927  -39981   39921       1
   39864   39927   39981   40011       1   39861   39828   39864   39927       1
   39861   39921  -39981   39927       1   39861   39921   39981   40011       1
   39858   39822   39855   39909       1   39858   39915  -39972   39909       1
   39858   39915   39972   40008       1   39855   39822   39858   39915       1
   39855   39909  -39972   39915       1   39855   39909   39972   40008       1
   39852   39819   39849   39897       1   39852   39903  -39966   39897       1
   39852   39903   39966   40005       1   39849   39819   39852   39903       1
   39849   39897  -39966   39903       1   39849   39897   39966   40005       1
   39846   39816   39843   39888       1   39846   39894  -39954   39888       1
   39846   39894   39954   40002       1   39843   39816   39846   39894       1
   39843   39888  -39954   39894       1   39843   39888   39954   40002       1
   39840   39813   39837   39873       1   39840   39879  -39945   39873       1
   39840   39879   39945   39999       1   39837   39813   39840   39879       1
   39837   39873  -39945   39879       1   39837   39873   39945   39999       1
   39831   39804   39828   39861       4   39831   39804   39828   39864       4
   39831   39867   39933   39990       1   39831   39870  -39939   39990       1
   39828   39804   39831   39867       4   39828   39804   39831   39870       4
   39828   39861   39921   39981       1   39828   39864  -39927   39981       1
   39822   39795   39819   39849       4   39822   39795   39819   39852       4
   39822   39855   39909   39972       1   39822   39858  -39915   39972       1
   39819   39795   39822   39855       4   39819   39795   39822   39858       4
   39819   39849   39897   39966       1   39819   39852  -39903   39966       1
   39816   39792   39813   39837       4   39816   39792   39813   39840       4
   39816   39843   39888   39954       1   39816   39846  -39894   39954       1
   39813   39792   39816   39843       4   39813   39792   39816   39846       4
   39813   39837   39873   39945       1   39813   39840  -39879   39945       1
   39807   39774   39804   39828       4   39807   39774   39804   39831       4
   39804   39828   39861   39921       1   39804   39828   39864   39927       1
   39804   39831   39867   39933       1   39804   39831   39870   39939       1
   39798   39762   39795   39819       4   39798   39762   39795   39822       4
   39795   39819   39849   39897       1   39795   39819   39852   39903       1
   39795   39822   39855   39909       1   39795   39822   39858   39915       1
   39792   39813   39837   39873       1   39792   39813   39840   39879       1
   39792   39816   39843   39888       1   39792   39816   39846   39894       1
   39777   39807   39774   39804       1   39774   39804   39828   39861       4
   39774   39804   39828   39864       4   39774   39804   39831   39867       4
   39774   39804   39831   39870       4   39768   39738   39744   39777       5
   39768   39798   39762   39795       1   39762   39795   39819   39849       4
   39762   39795   39819   39852       4   39762   39795   39822   39855       4
   39762   39795   39822   39858       4   39756   39792   39813   39837       4
   39756   39792   39813   39840       4   39756   39792   39816   39843       4
   39756   39792   39816   39846       4   39750   39756   39792   39813       4
   39750   39756   39792   39816       4   39744   39723   39741   39774       1
   39744   39738   39768   39798       1   39744   39777  -39807   39774       1
   39741   39723   39744   39777       1   39741   39774   39804   39828       4
   39741   39774   39804   39831       4   39741   39774  -39807   39777       1
   39738   39720   39735   39762       1   39738   39744   39723   39741       1
   39738   39744   39777   39807       1   39738   39768  -39798   39762       1
   39735   39720   39738   39744       1   39735   39720   39738   39768       1
   39735   39762   39795   39819       4   39735   39762   39795   39822       4
   39735   39762  -39798   39768       1   39732   39756   39792   39813       4
   39732   39756   39792   39816       4   39729   39714   39717   39732       1
   39729   39750  -39756   39732       1   39729   39750   39756   39792       1
   39723   39699   39717   39732       6   39723   39699   39720   39735       6
   39723   39699  -39720   39738       7   39723   39741   39774   39804       1
   39723   39741   39774   39807       1   39723   39744   39738   39768       5
   39723   39744  -39777   39807       1   39720   39699   39717   39732       6
   39720   39699   39723   39741       6   39720   39699  -39723   39744       7
   39720   39735   39762   39795       1   39720   39735   39762   39798       1
   39720   39738  -39744   39723       5   39720   39738   39744   39777       5
   39720   39738  -39768   39798       1   39717   39699   39720   39735       6
   39717   39699   39720   39738       7   39717   39699   39723   39741       6
   39717   39699   39723   39744       7   39717   39714   39729   39750       1
   39717   39732  -39756   39750       1   39717   39732   39756   39792       1
   39714   39717   39699   39720       7   39714   39717   39699   39723       7
   39714   39717   39732   39756       1   39714   39729  -39750   39756       1
   39699   39672  -39696   39714       1   39699   39717   39714   39729       1
   39699   39717   39732   39756       1   39699   39720   39735   39762       1
   39699   39720  -39738   39744       1   39699   39720   39738   39768       1
   39699   39723   39741   39774       1   39699   39723  -39744   39738       1
   39699   39723   39744   39777       1   39696   39672  -39699   39717       7
   39696   39672   39699   39720       7   39696   39672   39699   39723       7
   39696   39714  -39717   39699       1   39696   39714   39717   39732       1
   39696   39714   39729   39750       1   39690   39705   39726   39747       3
   39684   39705   39726   39747       3   39678   39696   39672   39699       1
   39678   39696   39714   39717       5   39678   39696   39714   39729       5
   39672   39696  -39714   39717       5   39672   39696   39714   39729       5
   39672   39699  -39717   39714       7   39672   39699   39717   39732       6
   39672   39699   39720   39735       6   39672   39699   39720   39738       7
   39672   39699   39723   39741       6   39672   39699   39723   39744       7
   39669   39657   39666   39684       1   39669   39690  -39705   39684       1
   39669   39690   39705   39726       1   39666   39657   39669   39690       1
   39666   39684  -39705   39690       1   39666   39684   39705   39726       1
   39663   39654   39660   39672       1   39663   39678  -39696   39672       1
   39663   39678   39696   39714       1   39660   39654   39663   39678       1
   39660   39672  -39696   39678       1   39660   39672   39696   39714       1
   39660   39672   39699   39717       6   39660   39672   39699   39720       6
   39660   39672   39699   39723       6   39657   39651   39654   39660       4
   39657   39651   39654   39663       4   39657   39666   39684   39705       1
   39657   39669  -39690   39705       1   39654   39651   39657   39666       4
   39654   39651   39657   39669       4   39654   39660   39672   39696       1
   39654   39660   39672   39699       1   39654   39663  -39678   39696       1
   39651   39654   39660   39672       1   39651   39654   39663   39678       1
   39651   39657   39666   39684       1   39651   39657   39669   39690       1
   39642   39651   39654   39660       4   39642   39651   39654   39663       4
   39642   39651   39657   39666       4   39642   39651   39657   39669       4
   39636   39642   39651   39654       4   39636   39642   39651   39657       4
   39630   39642   39651   39654       4   39630   39642   39651   39657       4
   39618   39609   39615   39630       1   39618   39636  -39642   39630       1
   39618   39636   39642   39651       1   39615   39609   39618   39636       1
   39615   39630  -39642   39636       1   39615   39630   39642   39651       1
   39612   39606   39609   39615       3   39612   39606   39609   39618       3
   39609   39615   39630   39642       1   39609   39618  -39636   39642       1
   39606   39609   39615   39630       1   39606   39609   39618   39636       1
   40422   40473   40497   40515       3   40416   40473   40497   40515       3
   40410   40464   40494   40512       3   40404   40464   40494   40512       3
   40398   40455   40491   40509       3   40392   40455   40491   40509       3
   40386   40449   40488   40506       3   40380   40449   40488   40506       3
   40377   40437   40485   40503       3   40371   40437   40485   40503       3
   40362   40428   40482   40500       3   40356   40428   40482   40500       3
   40353   40314   40350   40416       1   40353   40422  -40473   40416       1
   40353   40422   40473   40497       1   40350   40314   40353   40422       1
   40350   40416  -40473   40422       1   40350   40416   40473   40497       1
   40347   40311   40344   40404       1   40347   40410  -40464   40404       1
   40347   40410   40464   40494       1   40344   40311   40347   40410       1
   40344   40404  -40464   40410       1   40344   40404   40464   40494       1
   40341   40305   40338   40392       1   40341   40398  -40455   40392       1
   40341   40398   40455   40491       1   40338   40305   40341   40398       1
   40338   40392  -40455   40398       1   40338   40392   40455   40491       1
   40335   40302   40332   40380       1   40335   40386  -40449   40380       1
   40335   40386   40449   40488       1   40332   40302   40335   40386       1
   40332   40380  -40449   40386       1   40332   40380   40449   40488       1
   40329   40299   40326   40371       1   40329   40377  -40437   40371       1
   40329   40377   40437   40485       1   40326   40299   40329   40377       1
   40326   40371  -40437   40377       1   40326   40371   40437   40485       1
   40323   40296   40320   40356       1   40323   40362  -40428   40356       1
   40323   40362   40428   40482       1   40320   40296   40323   40362       1
   40320   40356  -40428   40362       1   40320   40356   40428   40482       1
   40314   40287   40311   40344       4   40314   40287   40311   40347       4
   40314   40350   40416   40473       1   40314   40353  -40422   40473       1
   40311   40287   40314   40350       4   40311   40287   40314   40353       4
   40311   40344   40404   40464       1   40311   40347  -40410   40464       1
   40305   40278   40302   40332       4   40305   40278   40302   40335       4
   40305   40338   40392   40455       1   40305   40341  -40398   40455       1
   40302   40278   40305   40338       4   40302   40278   40305   40341       4
   40302   40332   40380   40449       1   40302   40335  -40386   40449       1
   40299   40275   40296   40320       4   40299   40275   40296   40323       4
   40299   40326   40371   40437       1   40299   40329  -40377   40437       1
   40296   40275   40299   40326       4   40296   40275   40299   40329       4
   40296   40320   40356   40428       1   40296   40323  -40362   40428       1
   40290   40257   40287   40311       4   40290   40257   40287   40314       4
   40287   40311   40344   40404       1   40287   40311   40347   40410       1
   40287   40314   40350   40416       1   40287   40314   40353   40422       1
   40281   40245   40278   40302       4   40281   40245   40278   40305       4
   40278   40302   40332   40380       1   40278   40302   40335   40386       1
   40278   40305   40338   40392       1   40278   40305   40341   40398       1
   40275   40296   40320   40356       1   40275   40296   40323   40362       1
   40275   40299   40326   40371       1   40275   40299   40329   40377       1
   40260   40290   40257   40287       1   40257   40287   40311   40344       4
   40257   40287   40311   40347       4   40257   40287   40314   40350       4
   40257   40287   40314   40353       4   40251   40221   40227   40260       5
   40251   40281   40245   40278       1   40245   40278   40302   40332       4
   40245   40278   40302   40335       4   40245   40278   40305   40338       4
   40245   40278   40305   40341       4   40239   40275   40296   40320       4
   40239   40275   40296   40323       4   40239   40275   40299   40326       4
   40239   40275   40299   40329       4   40233   40239   40275   40296       4
   40233   40239   40275   40299       4   40227   40206   40224   40257       1
   40227   40221   40251   40281       1   40227   40260  -40290   40257       1
   40224   40206   40227   40260       1   40224   40257   40287   40311       4
   40224   40257   40287   40314       4   40224   40257  -40290   40260       1
   40221   40203   40218   40245       1   40221   40227   40206   40224       1
   40221   40227   40260   40290       1   40221   40251  -40281   40245       1
   40218   40203   40221   40227       1   40218   40203   40221   40251       1
   40218   40245   40278   40302       4   40218   40245   40278   40305       4
   40218   40245  -40281   40251       1   40215   40239   40275   40296       4
   40215   40239   40275   40299       4   40212   40197   40200   40215       1
   40212   40233  -40239   40215       1   40212   40233   40239   40275       1
   40206   40182   40200   40215       6   40206   40182   40203   40218       6
   40206   40182  -40203   40221       7   40206   40224   40257   40287       1
   40206   40224   40257   40290       1   40206   40227   40221   40251       5
   40206   40227  -40260   40290       1   40203   40182   40200   40215       6
   40203   40182   40206   40224       6   40203   40182  -40206   40227       7
   40203   40218   40245   40278       1   40203   40218   40245   40281       1
   40203   40221  -40227   40206       5   40203   40221   40227   40260       5
   40203   40221  -40251   40281       1   40200   40182   40203   40218       6
   40200   40182   40203   40221       7   40200   40182   40206   40224       6
   40200   40182   40206   40227       7   40200   40197   40212   40233       1
   40200   40215  -40239   40233       1   40200   40215   40239   40275       1
   40197   40200   40182   40203       7   40197   40200   40182   40206       7
   40197   40200   40215   40239       1   40197   40212  -40233   40239       1
   40182   40155  -40179   40197       1   40182   40200   40197   40212       1
   40182   40200   40215   40239       1   40182   40203   40218   40245       1
   40182   40203  -40221   40227       1   40182   40203   40221   40251       1
   40182   40206   40224   40257       1   40182   40206  -40227   40221       1
   40182   40206   40227   40260       1   40179   40155  -40182   40200       7
   40179   40155   40182   40203       7   40179   40155   40182   40206       7
   40179   40197  -40200   40182       1   40179   40197   40200   40215       1
   40179   40197   40212   40233       1   40173   40188   40209   40230       3
   40167   40188   40209   40230       3   40161   40179   40155   40182       1
   40161   40179   40197   40200       5   40161   40179   40197   40212       5
   40155   40179  -40197   40200       5   40155   40179   40197   40212       5
   40155   40182  -40200   40197       7   40155   40182   40200   40215       6
   40155   40182   40203   40218       6   40155   40182   40203   40221       7
   40155   40182   40206   40224       6   40155   40182   40206   40227       7
   40152   40140   40149   40167       1   40152   40173  -40188   40167       1
   40152   40173   40188   40209       1   40149   40140   40152   40173       1
   40149   40167  -40188   40173       1   40149   40167   40188   40209       1
   40146   40137   40143   40155       1   40146   40161  -40179   40155       1
   40146   40161   40179   40197       1   40143   40137   40146   40161       1
   40143   40155  -40179   40161       1   40143   40155   40179   40197       1
   40143   40155   40182   40200       6   40143   40155   40182   40203       6
   40143   40155   40182   40206       6   40140   40134   40137   40143       4
   40140   40134   40137   40146       4   40140   40149   40167   40188       1
   40140   40152  -40173   40188       1   40137   40134   40140   40149       4
   40137   40134   40140   40152       4   40137   40143   40155   40179       1
   40137   40143   40155   40182       1   40137   40146  -40161   40179       1
   40134   40137   40143   40155       1   40134   40137   40146   40161       1
   40134   40140   40149   40167       1   40134   40140   40152   40173       1
   40125   40134   40137   40143       4   40125   40134   40137   40146       4
   40125   40134   40140   40149       4   40125   40134   40140   40152       4
   40119   40125   40134   40137       4   40119   40125   40134   40140       4
   40113   40125   40134   40137       4   40113   40125   40134   40140       4
   40101   40092   40098   40113       1   40101   40119  -40125   40113       1
   40101   40119   40125   40134       1   40098   40092   40101   40119       1
   40098   40113  -40125   40119       1   40098   40113   40125   40134       1
   40095   40089   40092   40098       3   40095   40089   40092   40101       3
   40092   40098   40113   40125       1   40092   40101  -40119   40125       1
   40089   40092   40098   40113       1   40089   40092   40101   40119       1
   40905   40956   40980   40998       3   40899   40956   40980   40998       3
   40893   40947   40977   40995       3   40887   40947   40977   40995       3
   40881   40938   40974   40992       3   40875   40938   40974   40992       3
   40869   40932   40971   40989       3   40863   40932   40971   40989       3
   40860   40920   40968   40986       3   40854   40920   40968   40986       3
   40845   40911   40965   40983       3   40839   40911   40965   40983       3
   40836   40797   40833   40899       1   40836   40905  -40956   40899       1
   40836   40905   40956   40980       1   40833   40797   40836   40905       1
   40833   40899  -40956   40905       1   40833   40899   40956   40980       1
   40830   40794   40827   40887       1   40830   40893  -40947   40887       1
   40830   40893   40947   40977       1   40827   40794   40830   40893       1
   40827   40887  -40947   40893       1   40827   40887   40947   40977       1
   40824   40788   40821   40875       1   40824   40881  -40938   40875       1
   40824   40881   40938   40974       1   40821   40788   40824   40881       1
   40821   40875  -40938   40881       1   40821   40875   40938   40974       1
   40818   40785   40815   40863       1   40818   40869  -40932   40863       1
   40818   40869   40932   40971       1   40815   40785   40818   40869       1
   40815   40863  -40932   40869       1   40815   40863   40932   40971       1
   40812   40782   40809   40854       1   40812   40860  -40920   40854       1
   40812   40860   40920   40968       1   40809   40782   40812   40860       1
   40809   40854  -40920   40860       1   40809   40854   40920   40968       1
   40806   40779   40803   40839       1   40806   40845  -40911   40839       1
   40806   40845   40911   40965       1   40803   40779   40806   40845       1
   40803   40839  -40911   40845       1   40803   40839   40911   40965       1
   40797   40770   40794   40827       4   40797   40770   40794   40830       4
   40797   40833   40899   40956       1   40797   40836  -40905   40956       1
   40794   40770   40797   40833       4   40794   40770   40797   40836       4
   40794   40827   40887   40947       1   40794   40830  -40893   40947       1
   40788   40761   40785   40815       4   40788   40761   40785   40818       4
   40788   40821   40875   40938       1   40788   40824  -40881   40938       1
   40785   40761   40788   40821       4   40785   40761   40788   40824       4
   40785   40815   40863   40932       1   40785   40818  -40869   40932       1
   40782   40758   40779   40803       4   40782   40758   40779   40806       4
   40782   40809   40854   40920       1   40782   40812  -40860   40920       1
   40779   40758   40782   40809       4   40779   40758   40782   40812       4
   40779   40803   40839   40911       1   40779   40806  -40845   40911       1
   40773   40740   40770   40794       4   40773   40740   40770   40797       4
   40770   40794   40827   40887       1   40770   40794   40830   40893       1
   40770   40797   40833   40899       1   40770   40797   40836   40905       1
   40764   40728   40761   40785       4   40764   40728   40761   40788       4
   40761   40785   40815   40863       1   40761   40785   40818   40869       1
   40761   40788   40821   40875       1   40761   40788   40824   40881       1
   40758   40779   40803   40839       1   40758   40779   40806   40845       1
   40758   40782   40809   40854       1   40758   40782   40812   40860       1
   40743   40773   40740   40770       1   40740   40770   40794   40827       4
   40740   40770   40794   40830       4   40740   40770   40797   40833       4
   40740   40770   40797   40836       4   40734   40704   40710   40743       5
   40734   40764   40728   40761       1   40728   40761   40785   40815       4
   40728   40761   40785   40818       4   40728   40761   40788   40821       4
   40728   40761   40788   40824       4   40722   40758   40779   40803       4
   40722   40758   40779   40806       4   40722   40758   40782   40809       4
   40722   40758   40782   40812       4   40716   40722   40758   40779       4
   40716   40722   40758   40782       4   40710   40689   40707   40740       1
   40710   40704   40734   40764       1   40710   40743  -40773   40740       1
   40707   40689   40710   40743       1   40707   40740   40770   40794       4
   40707   40740   40770   40797       4   40707   40740  -40773   40743       1
   40704   40686   40701   40728       1   40704   40710   40689   40707       1
   40704   40710   40743   40773       1   40704   40734  -40764   40728       1
   40701   40686   40704   40710       1   40701   40686   40704   40734       1
   40701   40728   40761   40785       4   40701   40728   40761   40788       4
   40701   40728  -40764   40734       1   40698   40722   40758   40779       4
   40698   40722   40758   40782       4   40695   40680   40683   40698       1
   40695   40716  -40722   40698       1   40695   40716   40722   40758       1
   40689   40665   40683   40698       6   40689   40665   40686   40701       6
   40689   40665  -40686   40704       7   40689   40707   40740   40770       1
   40689   40707   40740   40773       1   40689   40710   40704   40734       5
   40689   40710  -40743   40773       1   40686   40665   40683   40698       6
   40686   40665   40689   40707       6   40686   40665  -40689   40710       7
   40686   40701   40728   40761       1   40686   40701   40728   40764       1
   40686   40704  -40710   40689       5   40686   40704   40710   40743       5
   40686   40704  -40734   40764       1   40683   40665   40686   40701       6
   40683   40665   40686   40704       7   40683   40665   40689   40707       6
   40683   40665   40689   40710       7   40683   40680   40695   40716       1
   40683   40698  -40722   40716       1   40683   40698   40722   40758       1
   40680   40683   40665   40686       7   40680   40683   40665   40689       7
   40680   40683   40698   40722       1   40680   40695  -40716   40722       1
   40665   40638  -40662   40680       1   40665   40683   40680   40695       1
   40665   40683   40698   40722       1   40665   40686   40701   40728       1
   40665   40686  -40704   40710       1   40665   40686   40704   40734       1
   40665   40689   40707   40740       1   40665   40689  -40710   40704       1
   40665   40689   40710   40743       1   40662   40638  -40665   40683       7
   40662   40638   40665   40686       7   40662   40638   40665   40689       7
   40662   40680  -40683   40665       1   40662   40680   40683   40698       1
   40662   40680   40695   40716       1   40656   40671   40692   40713       3
   40650   40671   40692   40713       3   40644   40662   40638   40665       1
   40644   40662   40680   40683       5   40644   40662   40680   40695       5
   40638   40662  -40680   40683       5   40638   40662   40680   40695       5
   40638   40665  -40683   40680       7   40638   40665   40683   40698       6
   40638   40665   40686   40701       6   40638   40665   40686   40704       7
   40638   40665   40689   40707       6   40638   40665   40689   40710       7
   40635   40623   40632   40650       1   40635   40656  -40671   40650       1
   40635   40656   40671   40692       1   40632   40623   40635   40656       1
   40632   40650  -40671   40656       1   40632   40650   40671   40692       1
   40629   40620   40626   40638       1   40629   40644  -40662   40638       1
   40629   40644   40662   40680       1   40626   40620   40629   40644       1
   40626   40638  -40662   40644       1   40626   40638   40662   40680       1
   40626   40638   40665   40683       6   40626   40638   40665   40686       6
   40626   40638   40665   40689       6   40623   40617   40620   40626       4
   40623   40617   40620   40629       4   40623   40632   40650   40671       1
   40623   40635  -40656   40671       1   40620   40617   40623   40632       4
   40620   40617   40623   40635       4   40620   40626   40638   40662       1
   40620   40626   40638   40665       1   40620   40629  -40644   40662       1
   40617   40620   40626   40638       1   40617   40620   40629   40644       1
   40617   40623   40632   40650       1   40617   40623   40635   40656       1
   40608   40617   40620   40626       4   40608   40617   40620   40629       4
   40608   40617   40623   40632       4   40608   40617   40623   40635       4
   40602   40608   40617   40620       4   40602   40608   40617   40623       4
   40596   40608   40617   40620       4   40596   40608   40617   40623       4
   40584   40575   40581   40596       1   40584   40602  -40608   40596       1
   40584   40602   40608   40617       1   40581   40575   40584   40602       1
   40581   40596  -40608   40602       1   40581   40596   40608   40617       1
   40578   40572   40575   40581       3   40578   40572   40575   40584       3
   40575   40581   40596   40608       1   40575   40584  -40602   40608       1
   40572   40575   40581   40596       1   40572   40575   40584   40602       1
   41388   41439   41463   41481       3   41382   41439   41463   41481       3
   41376   41430   41460   41478       3   41370   41430   41460   41478       3
   41364   41421   41457   41475       3   41358   41421   41457   41475       3
   41352   41415   41454   41472       3   41346   41415   41454   41472       3
   41343   41403   41451   41469       3   41337   41403   41451   41469       3
   41328   41394   41448   41466       3   41322   41394   41448   41466       3
   41319   41280   41316   41382       1   41319   41388  -41439   41382       1
   41319   41388   41439   41463       1   41316   41280   41319   41388       1
   41316   41382  -41439   41388       1   41316   41382   41439   41463       1
   41313   41277   41310   41370       1   41313   41376  -41430   41370       1
   41313   41376   41430   41460       1   41310   41277   41313   41376       1
   41310   41370  -41430   41376       1   41310   41370   41430   41460       1
   41307   41271   41304   41358       1   41307   41364  -41421   41358       1
   41307   41364   41421   41457       1   41304   41271   41307   41364       1
   41304   41358  -41421   41364       1   41304   41358   41421   41457       1
   41301   41268   41298   41346       1   41301   41352  -41415   41346       1
   41301   41352   41415   41454       1   41298   41268   41301   41352       1
   41298   41346  -41415   41352       1   41298   41346   41415   41454       1
   41295   41265   41292   41337       1   41295   41343  -41403   41337       1
   41295   41343   41403   41451       1   41292   41265   41295   41343       1
   41292   41337  -41403   41343       1   41292   41337   41403   41451       1
   41289   41262   41286   41322       1   41289   41328  -41394   41322       1
   41289   41328   41394   41448       1   41286   41262   41289   41328       1
   41286   41322  -41394   41328       1   41286   41322   41394   41448       1
   41280   41253   41277   41310       4   41280   41253   41277   41313       4
   41280   41316   41382   41439       1   41280   41319  -41388   41439       1
   41277   41253   41280   41316       4   41277   41253   41280   41319       4
   41277   41310   41370   41430       1   41277   41313  -41376   41430       1
   41271   41244   41268   41298       4   41271   41244   41268   41301       4
   41271   41304   41358   41421       1   41271   41307  -41364   41421       1
   41268   41244   41271   41304       4   41268   41244   41271   41307       4
   41268   41298   41346   41415       1   41268   41301  -41352   41415       1
   41265   41241   41262   41286       4   41265   41241   41262   41289       4
   41265   41292   41337   41403       1   41265   41295  -41343   41403       1
   41262   41241   41265   41292       4   41262   41241   41265   41295       4
   41262   41286   41322   41394       1   41262   41289  -41328   41394       1
   41256   41223   41253   41277       4   41256   41223   41253   41280       4
   41253   41277   41310   41370       1   41253   41277   41313   41376       1
   41253   41280   41316   41382       1   41253   41280   41319   41388       1
   41247   41211   41244   41268       4   41247   41211   41244   41271       4
   41244   41268   41298   41346       1   41244   41268   41301   41352       1
   41244   41271   41304   41358       1   41244   41271   41307   41364       1
   41241   41262   41286   41322       1   41241   41262   41289   41328       1
   41241   41265   41292   41337       1   41241   41265   41295   41343       1
   41226   41256   41223   41253       1   41223   41253   41277   41310       4
   41223   41253   41277   41313       4   41223   41253   41280   41316       4
   41223   41253   41280   41319       4   41217   41187   41193   41226       5
   41217   41247   41211   41244       1   41211   41244   41268   41298       4
   41211   41244   41268   41301       4   41211   41244   41271   41304       4
   41211   41244   41271   41307       4   41205   41241   41262   41286       4
   41205   41241   41262   41289       4   41205   41241   41265   41292       4
   41205   41241   41265   41295       4   41199   41205   41241   41262       4
   41199   41205   41241   41265       4   41193   41172   41190   41223       1
   41193   41187   41217   41247       1   41193   41226  -41256   41223       1
   41190   41172   41193   41226       1   41190   41223   41253   41277       4
   41190   41223   41253   41280       4   41190   41223  -41256   41226       1
   41187   41169   41184   41211       1   41187   41193   41172   41190       1
   41187   41193   41226   41256       1   41187   41217  -41247   41211       1
   41184   41169   41187   41193       1   41184   41169   41187   41217       1
   41184   41211   41244   41268       4   41184   41211   41244   41271       4
   41184   41211  -41247   41217       1   41181   41205   41241   41262       4
   41181   41205   41241   41265       4   41178   41163   41166   41181       1
   41178   41199  -41205   41181       1   41178   41199   41205   41241       1
   41172   41148   41166   41181       6   41172   41148   41169   41184       6
   41172   41148  -41169   41187       7   41172   41190   41223   41253       1
   41172   41190   41223   41256       1   41172   41193   41187   41217       5
   41172   41193  -41226   41256       1   41169   41148   41166   41181       6
   41169   41148   41172   41190       6   41169   41148  -41172   41193       7
   41169   41184   41211   41244       1   41169   41184   41211   41247       1
   41169   41187  -41193   41172       5   41169   41187   41193   41226       5
   41169   41187  -41217   41247       1   41166   41148   41169   41184       6
   41166   41148   41169   41187       7   41166   41148   41172   41190       6
   41166   41148   41172   41193       7   41166   41163   41178   41199       1
   41166   41181  -41205   41199       1   41166   41181   41205   41241       1
   41163   41166   41148   41169       7   41163   41166   41148   41172       7
   41163   41166   41181   41205       1   41163   41178  -41199   41205       1
   41148   41121  -41145   41163       1   41148   41166   41163   41178       1
   41148   41166   41181   41205       1   41148   41169   41184   41211       1
   41148   41169  -41187   41193       1   41148   41169   41187   41217       1
   41148   41172   41190   41223       1   41148   41172  -41193   41187       1
   41148   41172   41193   41226       1   41145   41121  -41148   41166       7
   41145   41121   41148   41169       7   41145   41121   41148   41172       7
   41145   41163  -41166   41148       1   41145   41163   41166   41181       1
   41145   41163   41178   41199       1   41139   41154   41175   41196       3
   41133   41154   41175   41196       3   41127   41145   41121   41148       1
   41127   41145   41163   41166       5   41127   41145   41163   41178       5
   41121   41145  -41163   41166       5   41121   41145   41163   41178       5
   41121   41148  -41166   41163       7   41121   41148   41166   41181       6
   41121   41148   41169   41184       6   41121   41148   41169   41187       7
   41121   41148   41172   41190       6   41121   41148   41172   41193       7
   41118   41106   41115   41133       1   41118   41139  -41154   41133       1
   41118   41139   41154   41175       1   41115   41106   41118   41139       1
   41115   41133  -41154   41139       1   41115   41133   41154   41175       1
   41112   41103   41109   41121       1   41112   41127  -41145   41121       1
   41112   41127   41145   41163       1   41109   41103   41112   41127       1
   41109   41121  -41145   41127       1   41109   41121   41145   41163       1
   41109   41121   41148   41166       6   41109   41121   41148   41169       6
   41109   41121   41148   41172       6   41106   41100   41103   41109       4
   41106   41100   41103   41112       4   41106   41115   41133   41154       1
   41106   41118  -41139   41154       1   41103   41100   41106   41115       4
   41103   41100   41106   41118       4   41103   41109   41121   41145       1
   41103   41109   41121   41148       1   41103   41112  -41127   41145       1
   41100   41103   41109   41121       1   41100   41103   41112   41127       1
   41100   41106   41115   41133       1   41100   41106   41118   41139       1
   41091   41100   41103   41109       4   41091   41100   41103   41112       4
   41091   41100   41106   41115       4   41091   41100   41106   41118       4
   41085   41091   41100   41103       4   41085   41091   41100   41106       4
   41079   41091   41100   41103       4   41079   41091   41100   41106       4
   41067   41058   41064   41079       1   41067   41085  -41091   41079       1
   41067   41085   41091   41100       1   41064   41058   41067   41085       1
   41064   41079  -41091   41085       1   41064   41079   41091   41100       1
   41061   41055   41058   41064       3   41061   41055   41058   41067       3
   41058   41064   41079   41091       1   41058   41067  -41085   41091       1
   41055   41058   41064   41079       1   41055   41058   41067   41085       1
   41871   41922   41946   41964       3   41865   41922   41946   41964       3
   41859   41913   41943   41961       3   41853   41913   41943   41961       3
   41847   41904   41940   41958       3   41841   41904   41940   41958       3
   41835   41898   41937   41955       3   41829   41898   41937   41955       3
   41826   41886   41934   41952       3   41820   41886   41934   41952       3
   41811   41877   41931   41949       3   41805   41877   41931   41949       3
   41802   41763   41799   41865       1   41802   41871  -41922   41865       1
   41802   41871   41922   41946       1   41799   41763   41802   41871       1
   41799   41865  -41922   41871       1   41799   41865   41922   41946       1
   41796   41760   41793   41853       1   41796   41859  -41913   41853       1
   41796   41859   41913   41943       1   41793   41760   41796   41859       1
   41793   41853  -41913   41859       1   41793   41853   41913   41943       1
   41790   41754   41787   41841       1   41790   41847  -41904   41841       1
   41790   41847   41904   41940       1   41787   41754   41790   41847       1
   41787   41841  -41904   41847       1   41787   41841   41904   41940       1
   41784   41751   41781   41829       1   41784   41835  -41898   41829       1
   41784   41835   41898   41937       1   41781   41751   41784   41835       1
   41781   41829  -41898   41835       1   41781   41829   41898   41937       1
   41778   41748   41775   41820       1   41778   41826  -41886   41820       1
   41778   41826   41886   41934       1   41775   41748   41778   41826       1
   41775   41820  -41886   41826       1   41775   41820   41886   41934       1
   41772   41745   41769   41805       1   41772   41811  -41877   41805       1
   41772   41811   41877   41931       1   41769   41745   41772   41811       1
   41769   41805  -41877   41811       1   41769   41805   41877   41931       1
   41763   41736   41760   41793       4   41763   41736   41760   41796       4
   41763   41799   41865   41922       1   41763   41802  -41871   41922       1
   41760   41736   41763   41799       4   41760   41736   41763   41802       4
   41760   41793   41853   41913       1   41760   41796  -41859   41913       1
   41754   41727   41751   41781       4   41754   41727   41751   41784       4
   41754   41787   41841   41904       1   41754   41790  -41847   41904       1
   41751   41727   41754   41787       4   41751   41727   41754   41790       4
   41751   41781   41829   41898       1   41751   41784  -41835   41898       1
   41748   41724   41745   41769       4   41748   41724   41745   41772       4
   41748   41775   41820   41886       1   41748   41778  -41826   41886       1
   41745   41724   41748   41775       4   41745   41724   41748   41778       4
   41745   41769   41805   41877       1   41745   41772  -41811   41877       1
   41739   41706   41736   41760       4   41739   41706   41736   41763       4
   41736   41760   41793   41853       1   41736   41760   41796   41859       1
   41736   41763   41799   41865       1   41736   41763   41802   41871       1
   41730   41694   41727   41751       4   41730   41694   41727   41754       4
   41727   41751   41781   41829       1   41727   41751   41784   41835       1
   41727   41754   41787   41841       1   41727   41754   41790   41847       1
   41724   41745   41769   41805       1   41724   41745   41772   41811       1
   41724   41748   41775   41820       1   41724   41748   41778   41826       1
   41709   41739   41706   41736       1   41706   41736   41760   41793       4
   41706   41736   41760   41796       4   41706   41736   41763   41799       4
   41706   41736   41763   41802       4   41700   41670   41676   41709       5
   41700   41730   41694   41727       1   41694   41727   41751   41781       4
   41694   41727   41751   41784       4   41694   41727   41754   41787       4
   41694   41727   41754   41790       4   41688   41724   41745   41769       4
   41688   41724   41745   41772       4   41688   41724   41748   41775       4
   41688   41724   41748   41778       4   41682   41688   41724   41745       4
   41682   41688   41724   41748       4   41676   41655   41673   41706       1
   41676   41670   41700   41730       1   41676   41709  -41739   41706       1
   41673   41655   41676   41709       1   41673   41706   41736   41760       4
   41673   41706   41736   41763       4   41673   41706  -41739   41709       1
   41670   41652   41667   41694       1   41670   41676   41655   41673       1
   41670   41676   41709   41739       1   41670   41700  -41730   41694       1
   41667   41652   41670   41676       1   41667   41652   41670   41700       1
   41667   41694   41727   41751       4   41667   41694   41727   41754       4
   41667   41694  -41730   41700       1   41664   41688   41724   41745       4
   41664   41688   41724   41748       4   41661   41646   41649   41664       1
   41661   41682  -41688   41664       1   41661   41682   41688   41724       1
   41655   41631   41649   41664       6   41655   41631   41652   41667       6
   41655   41631  -41652   41670       7   41655   41673   41706   41736       1
   41655   41673   41706   41739       1   41655   41676   41670   41700       5
   41655   41676  -41709   41739       1   41652   41631   41649   41664       6
   41652   41631   41655   41673       6   41652   41631  -41655   41676       7
   41652   41667   41694   41727       1   41652   41667   41694   41730       1
   41652   41670  -41676   41655       5   41652   41670   41676   41709       5
   41652   41670  -41700   41730       1   41649   41631   41652   41667       6
   41649   41631   41652   41670       7   41649   41631   41655   41673       6
   41649   41631   41655   41676       7   41649   41646   41661   41682       1
   41649   41664  -41688   41682       1   41649   41664   41688   41724       1
   41646   41649   41631   41652       7   41646   41649   41631   41655       7
   41646   41649   41664   41688       1   41646   41661  -41682   41688       1
   41631   41604  -41628   41646       1   41631   41649   41646   41661       1
   41631   41649   41664   41688       1   41631   41652   41667   41694       1
   41631   41652  -41670   41676       1   41631   41652   41670   41700       1
   41631   41655   41673   41706       1   41631   41655  -41676   41670       1
   41631   41655   41676   41709       1   41628   41604  -41631   41649       7
   41628   41604   41631   41652       7   41628   41604   41631   41655       7
   41628   41646  -41649   41631       1   41628   41646   41649   41664       1
   41628   41646   41661   41682       1   41622   41637   41658   41679       3
   41616   41637   41658   41679       3   41610   41628   41604   41631       1
   41610   41628   41646   41649       5   41610   41628   41646   41661       5
   41604   41628  -41646   41649       5   41604   41628   41646   41661       5
   41604   41631  -41649   41646       7   41604   41631   41649   41664       6
   41604   41631   41652   41667       6   41604   41631   41652   41670       7
   41604   41631   41655   41673       6   41604   41631   41655   41676       7
   41601   41589   41598   41616       1   41601   41622  -41637   41616       1
   41601   41622   41637   41658       1   41598   41589   41601   41622       1
   41598   41616  -41637   41622       1   41598   41616   41637   41658       1
   41595   41586   41592   41604       1   41595   41610  -41628   41604       1
   41595   41610   41628   41646       1   41592   41586   41595   41610       1
   41592   41604  -41628   41610       1   41592   41604   41628   41646       1
   41592   41604   41631   41649       6   41592   41604   41631   41652       6
   41592   41604   41631   41655       6   41589   41583   41586   41592       4
   41589   41583   41586   41595       4   41589   41598   41616   41637       1
   41589   41601  -41622   41637       1   41586   41583   41589   41598       4
   41586   41583   41589   41601       4   41586   41592   41604   41628       1
   41586   41592   41604   41631       1   41586   41595  -41610   41628       1
   41583   41586   41592   41604       1   41583   41586   41595   41610       1
   41583   41589   41598   41616       1   41583   41589   41601   41622       1
   41574   41583   41586   41592       4   41574   41583   41586   41595       4
   41574   41583   41589   41598       4   41574   41583   41589   41601       4
   41568   41574   41583   41586       4   41568   41574   41583   41589       4
   41562   41574   41583   41586       4   41562   41574   41583   41589       4
   41550   41541   41547   41562       1   41550   41568  -41574   41562       1
   41550   41568   41574   41583       1   41547   41541   41550   41568       1
   41547   41562  -41574   41568       1   41547   41562   41574   41583       1
   41544   41538   41541   41547       3   41544   41538   41541   41550       3
   41541   41547   41562   41574       1   41541   41550  -41568   41574       1
   41538   41541   41547   41562       1   41538   41541   41550   41568       1
   42354   42405   42429   42447       3   42348   42405   42429   42447       3
   42342   42396   42426   42444       3   42336   42396   42426   42444       3
   42330   42387   42423   42441       3   42324   42387   42423   42441       3
   42318   42381   42420   42438       3   42312   42381   42420   42438       3
   42309   42369   42417   42435       3   42303   42369   42417   42435       3
   42294   42360   42414   42432       3   42288   42360   42414   42432       3
   42285   42246   42282   42348       1   42285   42354  -42405   42348       1
   42285   42354   42405   42429       1   42282   42246   42285   42354       1
   42282   42348  -42405   42354       1   42282   42348   42405   42429       1
   42279   42243   42276   42336       1   42279   42342  -42396   42336       1
   42279   42342   42396   42426       1   42276   42243   42279   42342       1
   42276   42336  -42396   42342       1   42276   42336   42396   42426       1
   42273   42237   42270   42324       1   42273   42330  -42387   42324       1
   42273   42330   42387   42423       1   42270   42237   42273   42330       1
   42270   42324  -42387   42330       1   42270   42324   42387   42423       1
   42267   42234   42264   42312       1   42267   42318  -42381   42312       1
   42267   42318   42381   42420       1   42264   42234   42267   42318       1
   42264   42312  -42381   42318       1   42264   42312   42381   42420       1
   42261   42231   42258   42303       1   42261   42309  -42369   42303       1
   42261   42309   42369   42417       1   42258   42231   42261   42309       1
   42258   42303  -42369   42309       1   42258   42303   42369   42417       1
   42255   42228   42252   42288       1   42255   42294  -42360   42288       1
   42255   42294   42360   42414       1   42252   42228   42255   42294       1
   42252   42288  -42360   42294       1   42252   42288   42360   42414       1
   42246   42219   42243   42276       4   42246   42219   42243   42279       4
   42246   42282   42348   42405       1   42246   42285  -42354   42405       1
   42243   42219   42246   42282       4   42243   42219   42246   42285       4
   42243   42276   42336   42396       1   42243   42279  -42342   42396       1
   42237   42210   42234   42264       4   42237   42210   42234   42267       4
   42237   42270   42324   42387       1   42237   42273  -42330   42387       1
   42234   42210   42237   42270       4   42234   42210   42237   42273       4
   42234   42264   42312   42381       1   42234   42267  -42318   42381       1
   42231   42207   42228   42252       4   42231   42207   42228   42255       4
   42231   42258   42303   42369       1   42231   42261  -42309   42369       1
   42228   42207   42231   42258       4   42228   42207   42231   42261       4
   42228   42252   42288   42360       1   42228   42255  -42294   42360       1
   42222   42189   42219   42243       4   42222   42189   42219   42246       4
   42219   42243   42276   42336       1   42219   42243   42279   42342       1
   42219   42246   42282   42348       1   42219   42246   42285   42354       1
   42213   42177   42210   42234       4   42213   42177   42210   42237       4
   42210   42234   42264   42312       1   42210   42234   42267   42318       1
   42210   42237   42270   42324       1   42210   42237   42273   42330       1
   42207   42228   42252   42288       1   42207   42228   42255   42294       1
   42207   42231   42258   42303       1   42207   42231   42261   42309       1
   42192   42222   42189   42219       1   42189   42219   42243   42276       4
   42189   42219   42243   42279       4   42189   42219   42246   42282       4
   42189   42219   42246   42285       4   42183   42153   42159   42192       5
   42183   42213   42177   42210       1   42177   42210   42234   42264       4
   42177   42210   42234   42267       4   42177   42210   42237   42270       4
   42177   42210   42237   42273       4   42171   42207   42228   42252       4
   42171   42207   42228   42255       4   42171   42207   42231   42258       4
   42171   42207   42231   42261       4   42165   42171   42207   42228       4
   42165   42171   42207   42231       4   42159   42138   42156   42189       1
   42159   42153   42183   42213       1   42159   42192  -42222   42189       1
   42156   42138   42159   42192       1   42156   42189   42219   42243       4
   42156   42189   42219   42246       4   42156   42189  -42222   42192       1
   42153   42135   42150   42177       1   42153   42159   42138   42156       1
   42153   42159   42192   42222       1   42153   42183  -42213   42177       1
   42150   42135   42153   42159       1   42150   42135   42153   42183       1
   42150   42177   42210   42234       4   42150   42177   42210   42237       4
   42150   42177  -42213   42183       1   42147   42171   42207   42228       4
   42147   42171   42207   42231       4   42144   42129   42132   42147       1
   42144   42165  -42171   42147       1   42144   42165   42171   42207       1
   42138   42114   42132   42147       6   42138   42114   42135   42150       6
   42138   42114  -42135   42153       7   42138   42156   42189   42219       1
   42138   42156   42189   42222       1   42138   42159   42153   42183       5
   42138   42159  -42192   42222       1   42135   42114   42132   42147       6
   42135   42114   42138   42156       6   42135   42114  -42138   42159       7
   42135   42150   42177   42210       1   42135   42150   42177   42213       1
   42135   42153  -42159   42138       5   42135   42153   42159   42192       5
   42135   42153  -42183   42213       1   42132   42114   42135   42150       6
   42132   42114   42135   42153       7   42132   42114   42138   42156       6
   42132   42114   42138   42159       7   42132   42129   42144   42165       1
   42132   42147  -42171   42165       1   42132   42147   42171   42207       1
   42129   42132   42114   42135       7   42129   42132   42114   42138       7
   42129   42132   42147   42171       1   42129   42144  -42165   42171       1
   42114   42087  -42111   42129       1   42114   42132   42129   42144       1
   42114   42132   42147   42171       1   42114   42135   42150   42177       1
   42114   42135  -42153   42159       1   42114   42135   42153   42183       1
   42114   42138   42156   42189       1   42114   42138  -42159   42153       1
   42114   42138   42159   42192       1   42111   42087  -42114   42132       7
   42111   42087   42114   42135       7   42111   42087   42114   42138       7
   42111   42129  -42132   42114       1   42111   42129   42132   42147       1
   42111   42129   42144   42165       1   42105   42120   42141   42162       3
   42099   42120   42141   42162       3   42093   42111   42087   42114       1
   42093   42111   42129   42132       5   42093   42111   42129   42144       5
   42087   42111  -42129   42132       5   42087   42111   42129   42144       5
   42087   42114  -42132   42129       7   42087   42114   42132   42147       6
   42087   42114   42135   42150       6   42087   42114   42135   42153       7
   42087   42114   42138   42156       6   42087   42114   42138   42159       7
   42084   42072   42081   42099       1   42084   42105  -42120   42099       1
   42084   42105   42120   42141       1   42081   42072   42084   42105       1
   42081   42099  -42120   42105       1   42081   42099   42120   42141       1
   42078   42069   42075   42087       1   42078   42093  -42111   42087       1
   42078   42093   42111   42129       1   42075   42069   42078   42093       1
   42075   42087  -42111   42093       1   42075   42087   42111   42129       1
   42075   42087   42114   42132       6   42075   42087   42114   42135       6
   42075   42087   42114   42138       6   42072   42066   42069   42075       4
   42072   42066   42069   42078       4   42072   42081   42099   42120       1
   42072   42084  -42105   42120       1   42069   42066   42072   42081       4
   42069   42066   42072   42084       4   42069   42075   42087   42111       1
   42069   42075   42087   42114       1   42069   42078  -42093   42111       1
   42066   42069   42075   42087       1   42066   42069   42078   42093       1
   42066   42072   42081   42099       1   42066   42072   42084   42105       1
   42057   42066   42069   42075       4   42057   42066   42069   42078       4
   42057   42066   42072   42081       4   42057   42066   42072   42084       4
   42051   42057   42066   42069       4   42051   42057   42066   42072       4
   42045   42057   42066   42069       4   42045   42057   42066   42072       4
   42033   42024   42030   42045       1   42033   42051  -42057   42045       1
   42033   42051   42057   42066       1   42030   42024   42033   42051       1
   42030   42045  -42057   42051       1   42030   42045   42057   42066       1
   42027   42021   42024   42030       3   42027   42021   42024   42033       3
   42024   42030   42045   42057       1   42024   42033  -42051   42057       1
   42021   42024   42030   42045       1   42021   42024   42033   42051       1
   42837   42888   42912   42930       3   42831   42888   42912   42930       3
   42825   42879   42909   42927       3   42819   42879   42909   42927       3
   42813   42870   42906   42924       3   42807   42870   42906   42924       3
   42801   42864   42903   42921       3   42795   42864   42903   42921       3
   42792   42852   42900   42918       3   42786   42852   42900   42918       3
   42777   42843   42897   42915       3   42771   42843   42897   42915       3
   42768   42729   42765   42831       1   42768   42837  -42888   42831       1
   42768   42837   42888   42912       1   42765   42729   42768   42837       1
   42765   42831  -42888   42837       1   42765   42831   42888   42912       1
   42762   42726   42759   42819       1   42762   42825  -42879   42819       1
   42762   42825   42879   42909       1   42759   42726   42762   42825       1
   42759   42819  -42879   42825       1   42759   42819   42879   42909       1
   42756   42720   42753   42807       1   42756   42813  -42870   42807       1
   42756   42813   42870   42906       1   42753   42720   42756   42813       1
   42753   42807  -42870   42813       1   42753   42807   42870   42906       1
   42750   42717   42747   42795       1   42750   42801  -42864   42795       1
   42750   42801   42864   42903       1   42747   42717   42750   42801       1
   42747   42795  -42864   42801       1   42747   42795   42864   42903       1
   42744   42714   42741   42786       1   42744   42792  -42852   42786       1
   42744   42792   42852   42900       1   42741   42714   42744   42792       1
   42741   42786  -42852   42792       1   42741   42786   42852   42900       1
   42738   42711   42735   42771       1   42738   42777  -42843   42771       1
   42738   42777   42843   42897       1   42735   42711   42738   42777       1
   42735   42771  -42843   42777       1   42735   42771   42843   42897       1
   42729   42702   42726   42759       4   42729   42702   42726   42762       4
   42729   42765   42831   42888       1   42729   42768  -42837   42888       1
   42726   42702   42729   42765       4   42726   42702   42729   42768       4
   42726   42759   42819   42879       1   42726   42762  -42825   42879       1
   42720   42693   42717   42747       4   42720   42693   42717   42750       4
   42720   42753   42807   42870       1   42720   42756  -42813   42870       1
   42717   42693   42720   42753       4   42717   42693   42720   42756       4
   42717   42747   42795   42864       1   42717   42750  -42801   42864       1
   42714   42690   42711   42735       4   42714   42690   42711   42738       4
   42714   42741   42786   42852       1   42714   42744  -42792   42852       1
   42711   42690   42714   42741       4   42711   42690   42714   42744       4
   42711   42735   42771   42843       1   42711   42738  -42777   42843       1
   42705   42672   42702   42726       4   42705   42672   42702   42729       4
   42702   42726   42759   42819       1   42702   42726   42762   42825       1
   42702   42729   42765   42831       1   42702   42729   42768   42837       1
   42696   42660   42693   42717       4   42696   42660   42693   42720       4
   42693   42717   42747   42795       1   42693   42717   42750   42801       1
   42693   42720   42753   42807       1   42693   42720   42756   42813       1
   42690   42711   42735   42771       1   42690   42711   42738   42777       1
   42690   42714   42741   42786       1   42690   42714   42744   42792       1
   42675   42705   42672   42702       1   42672   42702   42726   42759       4
   42672   42702   42726   42762       4   42672   42702   42729   42765       4
   42672   42702   42729   42768       4   42666   42636   42642   42675       5
   42666   42696   42660   42693       1   42660   42693   42717   42747       4
   42660   42693   42717   42750       4   42660   42693   42720   42753       4
   42660   42693   42720   42756       4   42654   42690   42711   42735       4
   42654   42690   42711   42738       4   42654   42690   42714   42741       4
   42654   42690   42714   42744       4   42648   42654   42690   42711       4
   42648   42654   42690   42714       4   42642   42621   42639   42672       1
   42642   42636   42666   42696       1   42642   42675  -42705   42672       1
   42639   42621   42642   42675       1   42639   42672   42702   42726       4
   42639   42672   42702   42729       4   42639   42672  -42705   42675       1
   42636   42618   42633   42660       1   42636   42642   42621   42639       1
   42636   42642   42675   42705       1   42636   42666  -42696   42660       1
   42633   42618   42636   42642       1   42633   42618   42636   42666       1
   42633   42660   42693   42717       4   42633   42660   42693   42720       4
   42633   42660  -42696   42666       1   42630   42654   42690   42711       4
   42630   42654   42690   42714       4   42627   42612   42615   42630       1
   42627   42648  -42654   42630       1   42627   42648   42654   42690       1
   42621   42597   42615   42630       6   42621   42597   42618   42633       6
   42621   42597  -42618   42636       7   42621   42639   42672   42702       1
   42621   42639   42672   42705       1   42621   42642   42636   42666       5
   42621   42642  -42675   42705       1   42618   42597   42615   42630       6
   42618   42597   42621   42639       6   42618   42597  -42621   42642       7
   42618   42633   42660   42693       1   42618   42633   42660   42696       1
   42618   42636  -42642   42621       5   42618   42636   42642   42675       5
   42618   42636  -42666   42696       1   42615   42597   42618   42633       6
   42615   42597   42618   42636       7   42615   42597   42621   42639       6
   42615   42597   42621   42642       7   42615   42612   42627   42648       1
   42615   42630  -42654   42648       1   42615   42630   42654   42690       1
   42612   42615   42597   42618       7   42612   42615   42597   42621       7
   42612   42615   42630   42654       1   42612   42627  -42648   42654       1
   42597   42570  -42594   42612       1   42597   42615   42612   42627       1
   42597   42615   42630   42654       1   42597   42618   42633   42660       1
   42597   42618  -42636   42642       1   42597   42618   42636   42666       1
   42597   42621   42639   42672       1   42597   42621  -42642   42636       1
   42597   42621   42642   42675       1   42594   42570  -42597   42615       7
   42594   42570   42597   42618       7   42594   42570   42597   42621       7
   42594   42612  -42615   42597       1   42594   42612   42615   42630       1
   42594   42612   42627   42648       1   42588   42603   42624   42645       3
   42582   42603   42624   42645       3   42576   42594   42570   42597       1
   42576   42594   42612   42615       5   42576   42594   42612   42627       5
   42570   42594  -42612   42615       5   42570   42594   42612   42627       5
   42570   42597  -42615   42612       7   42570   42597   42615   42630       6
   42570   42597   42618   42633       6   42570   42597   42618   42636       7
   42570   42597   42621   42639       6   42570   42597   42621   42642       7
   42567   42555   42564   42582       1   42567   42588  -42603   42582       1
   42567   42588   42603   42624       1   42564   42555   42567   42588       1
   42564   42582  -42603   42588       1   42564   42582   42603   42624       1
   42561   42552   42558   42570       1   42561   42576  -42594   42570       1
   42561   42576   42594   42612       1   42558   42552   42561   42576       1
   42558   42570  -42594   42576       1   42558   42570   42594   42612       1
   42558   42570   42597   42615       6   42558   42570   42597   42618       6
   42558   42570   42597   42621       6   42555   42549   42552   42558       4
   42555   42549   42552   42561       4   42555   42564   42582   42603       1
   42555   42567  -42588   42603       1   42552   42549   42555   42564       4
   42552   42549   42555   42567       4   42552   42558   42570   42594       1
   42552   42558   42570   42597       1   42552   42561  -42576   42594       1
   42549   42552   42558   42570       1   42549   42552   42561   42576       1
   42549   42555   42564   42582       1   42549   42555   42567   42588       1
   42540   42549   42552   42558       4   42540   42549   42552   42561       4
   42540   42549   42555   42564       4   42540   42549   42555   42567       4
   42534   42540   42549   42552       4   42534   42540   42549   42555       4
   42528   42540   42549   42552       4   42528   42540   42549   42555       4
   42516   42507   42513   42528       1   42516   42534  -42540   42528       1
   42516   42534   42540   42549       1   42513   42507   42516   42534       1
   42513   42528  -42540   42534       1   42513   42528   42540   42549       1
   42510   42504   42507   42513       3   42510   42504   42507   42516       3
   42507   42513   42528   42540       1   42507   42516  -42534   42540       1
   42504   42507   42513   42528       1   42504   42507   42516   42534       1
   43320   43371   43395   43413       3   43314   43371   43395   43413       3
   43308   43362   43392   43410       3   43302   43362   43392   43410       3
   43296   43353   43389   43407       3   43290   43353   43389   43407       3
   43284   43347   43386   43404       3   43278   43347   43386   43404       3
   43275   43335   43383   43401       3   43269   43335   43383   43401       3
   43260   43326   43380   43398       3   43254   43326   43380   43398       3
   43251   43212   43248   43314       1   43251   43320  -43371   43314       1
   43251   43320   43371   43395       1   43248   43212   43251   43320       1
   43248   43314  -43371   43320       1   43248   43314   43371   43395       1
   43245   43209   43242   43302       1   43245   43308  -43362   43302       1
   43245   43308   43362   43392       1   43242   43209   43245   43308       1
   43242   43302  -43362   43308       1   43242   43302   43362   43392       1
   43239   43203   43236   43290       1   43239   43296  -43353   43290       1
   43239   43296   43353   43389       1   43236   43203   43239   43296       1
   43236   43290  -43353   43296       1   43236   43290   43353   43389       1
   43233   43200   43230   43278       1   43233   43284  -43347   43278       1
   43233   43284   43347   43386       1   43230   43200   43233   43284       1
   43230   43278  -43347   43284       1   43230   43278   43347   43386       1
   43227   43197   43224   43269       1   43227   43275  -43335   43269       1
   43227   43275   43335   43383       1   43224   43197   43227   43275       1
   43224   43269  -43335   43275       1   43224   43269   43335   43383       1
   43221   43194   43218   43254       1   43221   43260  -43326   43254       1
   43221   43260   43326   43380       1   43218   43194   43221   43260       1
   43218   43254  -43326   43260       1   43218   43254   43326   43380       1
   43212   43185   43209   43242       4   43212   43185   43209   43245       4
   43212   43248   43314   43371       1   43212   43251  -43320   43371       1
   43209   43185   43212   43248       4   43209   43185   43212   43251       4
   43209   43242   43302   43362       1   43209   43245  -43308   43362       1
   43203   43176   43200   43230       4   43203   43176   43200   43233       4
   43203   43236   43290   43353       1   43203   43239  -43296   43353       1
   43200   43176   43203   43236       4   43200   43176   43203   43239       4
   43200   43230   43278   43347       1   43200   43233  -43284   43347       1
   43197   43173   43194   43218       4   43197   43173   43194   43221       4
   43197   43224   43269   43335       1   43197   43227  -43275   43335       1
   43194   43173   43197   43224       4   43194   43173   43197   43227       4
   43194   43218   43254   43326       1   43194   43221  -43260   43326       1
   43188   43155   43185   43209       4   43188   43155   43185   43212       4
   43185   43209   43242   43302       1   43185   43209   43245   43308       1
   43185   43212   43248   43314       1   43185   43212   43251   43320       1
   43179   43143   43176   43200       4   43179   43143   43176   43203       4
   43176   43200   43230   43278       1   43176   43200   43233   43284       1
   43176   43203   43236   43290       1   43176   43203   43239   43296       1
   43173   43194   43218   43254       1   43173   43194   43221   43260       1
   43173   43197   43224   43269       1   43173   43197   43227   43275       1
   43158   43188   43155   43185       1   43155   43185   43209   43242       4
   43155   43185   43209   43245       4   43155   43185   43212   43248       4
   43155   43185   43212   43251       4   43149   43119   43125   43158       5
   43149   43179   43143   43176       1   43143   43176   43200   43230       4
   43143   43176   43200   43233       4   43143   43176   43203   43236       4
   43143   43176   43203   43239       4   43137   43173   43194   43218       4
   43137   43173   43194   43221       4   43137   43173   43197   43224       4
   43137   43173   43197   43227       4   43131   43137   43173   43194       4
   43131   43137   43173   43197       4   43125   43104   43122   43155       1
   43125   43119   43149   43179       1   43125   43158  -43188   43155       1
   43122   43104   43125   43158       1   43122   43155   43185   43209       4
   43122   43155   43185   43212       4   43122   43155  -43188   43158       1
   43119   43101   43116   43143       1   43119   43125   43104   43122       1
   43119   43125   43158   43188       1   43119   43149  -43179   43143       1
   43116   43101   43119   43125       1   43116   43101   43119   43149       1
   43116   43143   43176   43200       4   43116   43143   43176   43203       4
   43116   43143  -43179   43149       1   43113   43137   43173   43194       4
   43113   43137   43173   43197       4   43110   43095   43098   43113       1
   43110   43131  -43137   43113       1   43110   43131   43137   43173       1
   43104   43080   43098   43113       6   43104   43080   43101   43116       6
   43104   43080  -43101   43119       7   43104   43122   43155   43185       1
   43104   43122   43155   43188       1   43104   43125   43119   43149       5
   43104   43125  -43158   43188       1   43101   43080   43098   43113       6
   43101   43080   43104   43122       6   43101   43080  -43104   43125       7
   43101   43116   43143   43176       1   43101   43116   43143   43179       1
   43101   43119  -43125   43104       5   43101   43119   43125   43158       5
   43101   43119  -43149   43179       1   43098   43080   43101   43116       6
   43098   43080   43101   43119       7   43098   43080   43104   43122       6
   43098   43080   43104   43125       7   43098   43095   43110   43131       1
   43098   43113  -43137   43131       1   43098   43113   43137   43173       1
   43095   43098   43080   43101       7   43095   43098   43080   43104       7
   43095   43098   43113   43137       1   43095   43110  -43131   43137       1
   43080   43053  -43077   43095       1   43080   43098   43095   43110       1
   43080   43098   43113   43137       1   43080   43101   43116   43143       1
   43080   43101  -43119   43125       1   43080   43101   43119   43149       1
   43080   43104   43122   43155       1   43080   43104  -43125   43119       1
   43080   43104   43125   43158       1   43077   43053  -43080   43098       7
   43077   43053   43080   43101       7   43077   43053   43080   43104       7
   43077   43095  -43098   43080       1   43077   43095   43098   43113       1
   43077   43095   43110   43131       1   43071   43086   43107   43128       3
   43065   43086   43107   43128       3   43059   43077   43053   43080       1
   43059   43077   43095   43098       5   43059   43077   43095   43110       5
   43053   43077  -43095   43098       5   43053   43077   43095   43110       5
   43053   43080  -43098   43095       7   43053   43080   43098   43113       6
   43053   43080   43101   43116       6   43053   43080   43101   43119       7
   43053   43080   43104   43122       6   43053   43080   43104   43125       7
   43050   43038   43047   43065       1   43050   43071  -43086   43065       1
   43050   43071   43086   43107       1   43047   43038   43050   43071       1
   43047   43065  -43086   43071       1   43047   43065   43086   43107       1
   43044   43035   43041   43053       1   43044   43059  -43077   43053       1
   43044   43059   43077   43095       1   43041   43035   43044   43059       1
   43041   43053  -43077   43059       1   43041   43053   43077   43095       1
   43041   43053   43080   43098       6   43041   43053   43080   43101       6
   43041   43053   43080   43104       6   43038   43032   43035   43041       4
   43038   43032   43035   43044       4   43038   43047   43065   43086       1
   43038   43050  -43071   43086       1   43035   43032   43038   43047       4
   43035   43032   43038   43050       4   43035   43041   43053   43077       1
   43035   43041   43053   43080       1   43035   43044  -43059   43077       1
   43032   43035   43041   43053       1   43032   43035   43044   43059       1
   43032   43038   43047   43065       1   43032   43038   43050   43071       1
   43023   43032   43035   43041       4   43023   43032   43035   43044       4
   43023   43032   43038   43047       4   43023   43032   43038   43050       4
   43017   43023   43032   43035       4   43017   43023   43032   43038       4
   43011   43023   43032   43035       4   43011   43023   43032   43038       4
   42999   42990   42996   43011       1   42999   43017  -43023   43011       1
   42999   43017   43023   43032       1   42996   42990   42999   43017       1
   42996   43011  -43023   43017       1   42996   43011   43023   43032       1
   42993   42987   42990   42996       3   42993   42987   42990   42999       3
   42990   42996   43011   43023       1   42990   42999  -43017   43023       1
   42987   42990   42996   43011       1   42987   42990   42999   43017       1
   43803   43854   43878   43896       3   43797   43854   43878   43896       3
   43791   43845   43875   43893       3   43785   43845   43875   43893       3
   43779   43836   43872   43890       3   43773   43836   43872   43890       3
   43767   43830   43869   43887       3   43761   43830   43869   43887       3
   43758   43818   43866   43884       3   43752   43818   43866   43884       3
   43743   43809   43863   43881       3   43737   43809   43863   43881       3
   43734   43695   43731   43797       1   43734   43803  -43854   43797       1
   43734   43803   43854   43878       1   43731   43695   43734   43803       1
   43731   43797  -43854   43803       1   43731   43797   43854   43878       1
   43728   43692   43725   43785       1   43728   43791  -43845   43785       1
   43728   43791   43845   43875       1   43725   43692   43728   43791       1
   43725   43785  -43845   43791       1   43725   43785   43845   43875       1
   43722   43686   43719   43773       1   43722   43779  -43836   43773       1
   43722   43779   43836   43872       1   43719   43686   43722   43779       1
   43719   43773  -43836   43779       1   43719   43773   43836   43872       1
   43716   43683   43713   43761       1   43716   43767  -43830   43761       1
   43716   43767   43830   43869       1   43713   43683   43716   43767       1
   43713   43761  -43830   43767       1   43713   43761   43830   43869       1
   43710   43680   43707   43752       1   43710   43758  -43818   43752       1
   43710   43758   43818   43866       1   43707   43680   43710   43758       1
   43707   43752  -43818   43758       1   43707   43752   43818   43866       1
   43704   43677   43701   43737       1   43704   43743  -43809   43737       1
   43704   43743   43809   43863       1   43701   43677   43704   43743       1
   43701   43737  -43809   43743       1   43701   43737   43809   43863       1
   43695   43668   43692   43725       4   43695   43668   43692   43728       4
   43695   43731   43797   43854       1   43695   43734  -43803   43854       1
   43692   43668   43695   43731       4   43692   43668   43695   43734       4
   43692   43725   43785   43845       1   43692   43728  -43791   43845       1
   43686   43659   43683   43713       4   43686   43659   43683   43716       4
   43686   43719   43773   43836       1   43686   43722  -43779   43836       1
   43683   43659   43686   43719       4   43683   43659   43686   43722       4
   43683   43713   43761   43830       1   43683   43716  -43767   43830       1
   43680   43656   43677   43701       4   43680   43656   43677   43704       4
   43680   43707   43752   43818       1   43680   43710  -43758   43818       1
   43677   43656   43680   43707       4   43677   43656   43680   43710       4
   43677   43701   43737   43809       1   43677   43704  -43743   43809       1
   43671   43638   43668   43692       4   43671   43638   43668   43695       4
   43668   43692   43725   43785       1   43668   43692   43728   43791       1
   43668   43695   43731   43797       1   43668   43695   43734   43803       1
   43662   43626   43659   43683       4   43662   43626   43659   43686       4
   43659   43683   43713   43761       1   43659   43683   43716   43767       1
   43659   43686   43719   43773       1   43659   43686   43722   43779       1
   43656   43677   43701   43737       1   43656   43677   43704   43743       1
   43656   43680   43707   43752       1   43656   43680   43710   43758       1
   43641   43671   43638   43668       1   43638   43668   43692   43725       4
   43638   43668   43692   43728       4   43638   43668   43695   43731       4
   43638   43668   43695   43734       4   43632   43602   43608   43641       5
   43632   43662   43626   43659       1   43626   43659   43683   43713       4
   43626   43659   43683   43716       4   43626   43659   43686   43719       4
   43626   43659   43686   43722       4   43620   43656   43677   43701       4
   43620   43656   43677   43704       4   43620   43656   43680   43707       4
   43620   43656   43680   43710       4   43614   43620   43656   43677       4
   43614   43620   43656   43680       4   43608   43587   43605   43638       1
   43608   43602   43632   43662       1   43608   43641  -43671   43638       1
   43605   43587   43608   43641       1   43605   43638   43668   43692       4
   43605   43638   43668   43695       4   43605   43638  -43671   43641       1
   43602   43584   43599   43626       1   43602   43608   43587   43605       1
   43602   43608   43641   43671       1   43602   43632  -43662   43626       1
   43599   43584   43602   43608       1   43599   43584   43602   43632       1
   43599   43626   43659   43683       4   43599   43626   43659   43686       4
   43599   43626  -43662   43632       1   43596   43620   43656   43677       4
   43596   43620   43656   43680       4   43593   43578   43581   43596       1
   43593   43614  -43620   43596       1   43593   43614   43620   43656       1
   43587   43563   43581   43596       6   43587   43563   43584   43599       6
   43587   43563  -43584   43602       7   43587   43605   43638   43668       1
   43587   43605   43638   43671       1   43587   43608   43602   43632       5
   43587   43608  -43641   43671       1   43584   43563   43581   43596       6
   43584   43563   43587   43605       6   43584   43563  -43587   43608       7
   43584   43599   43626   43659       1   43584   43599   43626   43662       1
   43584   43602  -43608   43587       5   43584   43602   43608   43641       5
   43584   43602  -43632   43662       1   43581   43563   43584   43599       6
   43581   43563   43584   43602       7   43581   43563   43587   43605       6
   43581   43563   43587   43608       7   43581   43578   43593   43614       1
   43581   43596  -43620   43614       1   43581   43596   43620   43656       1
   43578   43581   43563   43584       7   43578   43581   43563   43587       7
   43578   43581   43596   43620       1   43578   43593  -43614   43620       1
   43563   43536  -43560   43578       1   43563   43581   43578   43593       1
   43563   43581   43596   43620       1   43563   43584   43599   43626       1
   43563   43584  -43602   43608       1   43563   43584   43602   43632       1
   43563   43587   43605   43638       1   43563   43587  -43608   43602       1
   43563   43587   43608   43641       1   43560   43536  -43563   43581       7
   43560   43536   43563   43584       7   43560   43536   43563   43587       7
   43560   43578  -43581   43563       1   43560   43578   43581   43596       1
   43560   43578   43593   43614       1   43554   43569   43590   43611       3
   43548   43569   43590   43611       3   43542   43560   43536   43563       1
   43542   43560   43578   43581       5   43542   43560   43578   43593       5
   43536   43560  -43578   43581       5   43536   43560   43578   43593       5
   43536   43563  -43581   43578       7   43536   43563   43581   43596       6
   43536   43563   43584   43599       6   43536   43563   43584   43602       7
   43536   43563   43587   43605       6   43536   43563   43587   43608       7
   43533   43521   43530   43548       1   43533   43554  -43569   43548       1
   43533   43554   43569   43590       1   43530   43521   43533   43554       1
   43530   43548  -43569   43554       1   43530   43548   43569   43590       1
   43527   43518   43524   43536       1   43527   43542  -43560   43536       1
   43527   43542   43560   43578       1   43524   43518   43527   43542       1
   43524   43536  -43560   43542       1   43524   43536   43560   43578       1
   43524   43536   43563   43581       6   43524   43536   43563   43584       6
   43524   43536   43563   43587       6   43521   43515   43518   43524       4
   43521   43515   43518   43527       4   43521   43530   43548   43569       1
   43521   43533  -43554   43569       1   43518   43515   43521   43530       4
   43518   43515   43521   43533       4   43518   43524   43536   43560       1
   43518   43524   43536   43563       1   43518   43527  -43542   43560       1
   43515   43518   43524   43536       1   43515   43518   43527   43542       1
   43515   43521   43530   43548       1   43515   43521   43533   43554       1
   43506   43515   43518   43524       4   43506   43515   43518   43527       4
   43506   43515   43521   43530       4   43506   43515   43521   43533       4
   43500   43506   43515   43518       4   43500   43506   43515   43521       4
   43494   43506   43515   43518       4   43494   43506   43515   43521       4
   43482   43473   43479   43494       1   43482   43500  -43506   43494       1
   43482   43500   43506   43515       1   43479   43473   43482   43500       1
   43479   43494  -43506   43500       1   43479   43494   43506   43515       1
   43476   43470   43473   43479       3   43476   43470   43473   43482       3
   43473   43479   43494   43506       1   43473   43482  -43500   43506       1
   43470   43473   43479   43494       1   43470   43473   43482   43500       1
   44286   44337   44361   44379       3   44280   44337   44361   44379       3
   44274   44328   44358   44376       3   44268   44328   44358   44376       3
   44262   44319   44355   44373       3   44256   44319   44355   44373       3
   44250   44313   44352   44370       3   44244   44313   44352   44370       3
   44241   44301   44349   44367       3   44235   44301   44349   44367       3
   44226   44292   44346   44364       3   44220   44292   44346   44364       3
   44217   44178   44214   44280       1   44217   44286  -44337   44280       1
   44217   44286   44337   44361       1   44214   44178   44217   44286       1
   44214   44280  -44337   44286       1   44214   44280   44337   44361       1
   44211   44175   44208   44268       1   44211   44274  -44328   44268       1
   44211   44274   44328   44358       1   44208   44175   44211   44274       1
   44208   44268  -44328   44274       1   44208   44268   44328   44358       1
   44205   44169   44202   44256       1   44205   44262  -44319   44256       1
   44205   44262   44319   44355       1   44202   44169   44205   44262       1
   44202   44256  -44319   44262       1   44202   44256   44319   44355       1
   44199   44166   44196   44244       1   44199   44250  -44313   44244       1
   44199   44250   44313   44352       1   44196   44166   44199   44250       1
   44196   44244  -44313   44250       1   44196   44244   44313   44352       1
   44193   44163   44190   44235       1   44193   44241  -44301   44235       1
   44193   44241   44301   44349       1   44190   44163   44193   44241       1
   44190   44235  -44301   44241       1   44190   44235   44301   44349       1
   44187   44160   44184   44220       1   44187   44226  -44292   44220       1
   44187   44226   44292   44346       1   44184   44160   44187   44226       1
   44184   44220  -44292   44226       1   44184   44220   44292   44346       1
   44178   44151   44175   44208       4   44178   44151   44175   44211       4
   44178   44214   44280   44337       1   44178   44217  -44286   44337       1
   44175   44151   44178   44214       4   44175   44151   44178   44217       4
   44175   44208   44268   44328       1   44175   44211  -44274   44328       1
   44169   44142   44166   44196       4   44169   44142   44166   44199       4
   44169   44202   44256   44319       1   44169   44205  -44262   44319       1
   44166   44142   44169   44202       4   44166   44142   44169   44205       4
   44166   44196   44244   44313       1   44166   44199  -44250   44313       1
   44163   44139   44160   44184       4   44163   44139   44160   44187       4
   44163   44190   44235   44301       1   44163   44193  -44241   44301       1
   44160   44139   44163   44190       4   44160   44139   44163   44193       4
   44160   44184   44220   44292       1   44160   44187  -44226   44292       1
   44154   44121   44151   44175       4   44154   44121   44151   44178       4
   44151   44175   44208   44268       1   44151   44175   44211   44274       1
   44151   44178   44214   44280       1   44151   44178   44217   44286       1
   44145   44109   44142   44166       4   44145   44109   44142   44169       4
   44142   44166   44196   44244       1   44142   44166   44199   44250       1
   44142   44169   44202   44256       1   44142   44169   44205   44262       1
   44139   44160   44184   44220       1   44139   44160   44187   44226       1
   44139   44163   44190   44235       1   44139   44163   44193   44241       1
   44124   44154   44121   44151       1   44121   44151   44175   44208       4
   44121   44151   44175   44211       4   44121   44151   44178   44214       4
   44121   44151   44178   44217       4   44115   44085   44091   44124       5
   44115   44145   44109   44142       1   44109   44142   44166   44196       4
   44109   44142   44166   44199       4   44109   44142   44169   44202       4
   44109   44142   44169   44205       4   44103   44139   44160   44184       4
   44103   44139   44160   44187       4   44103   44139   44163   44190       4
   44103   44139   44163   44193       4   44097   44103   44139   44160       4
   44097   44103   44139   44163       4   44091   44070   44088   44121       1
   44091   44085   44115   44145       1   44091   44124  -44154   44121       1
   44088   44070   44091   44124       1   44088   44121   44151   44175       4
   44088   44121   44151   44178       4   44088   44121  -44154   44124       1
   44085   44067   44082   44109       1   44085   44091   44070   44088       1
   44085   44091   44124   44154       1   44085   44115  -44145   44109       1
   44082   44067   44085   44091       1   44082   44067   44085   44115       1
   44082   44109   44142   44166       4   44082   44109   44142   44169       4
   44082   44109  -44145   44115       1   44079   44103   44139   44160       4
   44079   44103   44139   44163       4   44076   44061   44064   44079       1
   44076   44097  -44103   44079       1   44076   44097   44103   44139       1
   44070   44046   44064   44079       6   44070   44046   44067   44082       6
   44070   44046  -44067   44085       7   44070   44088   44121   44151       1
   44070   44088   44121   44154       1   44070   44091   44085   44115       5
   44070   44091  -44124   44154       1   44067   44046   44064   44079       6
   44067   44046   44070   44088       6   44067   44046  -44070   44091       7
   44067   44082   44109   44142       1   44067   44082   44109   44145       1
   44067   44085  -44091   44070       5   44067   44085   44091   44124       5
   44067   44085  -44115   44145       1   44064   44046   44067   44082       6
   44064   44046   44067   44085       7   44064   44046   44070   44088       6
   44064   44046   44070   44091       7   44064   44061   44076   44097       1
   44064   44079  -44103   44097       1   44064   44079   44103   44139       1
   44061   44064   44046   44067       7   44061   44064   44046   44070       7
   44061   44064   44079   44103       1   44061   44076  -44097   44103       1
   44046   44019  -44043   44061       1   44046   44064   44061   44076       1
   44046   44064   44079   44103       1   44046   44067   44082   44109       1
   44046   44067  -44085   44091       1   44046   44067   44085   44115       1
   44046   44070   44088   44121       1   44046   44070  -44091   44085       1
   44046   44070   44091   44124       1   44043   44019  -44046   44064       7
   44043   44019   44046   44067       7   44043   44019   44046   44070       7
   44043   44061  -44064   44046       1   44043   44061   44064   44079       1
   44043   44061   44076   44097       1   44037   44052   44073   44094       3
   44031   44052   44073   44094       3   44025   44043   44019   44046       1
   44025   44043   44061   44064       5   44025   44043   44061   44076       5
   44019   44043  -44061   44064       5   44019   44043   44061   44076       5
   44019   44046  -44064   44061       7   44019   44046   44064   44079       6
   44019   44046   44067   44082       6   44019   44046   44067   44085       7
   44019   44046   44070   44088       6   44019   44046   44070   44091       7
   44016   44004   44013   44031       1   44016   44037  -44052   44031       1
   44016   44037   44052   44073       1   44013   44004   44016   44037       1
   44013   44031  -44052   44037       1   44013   44031   44052   44073       1
   44010   44001   44007   44019       1   44010   44025  -44043   44019       1
   44010   44025   44043   44061       1   44007   44001   44010   44025       1
   44007   44019  -44043   44025       1   44007   44019   44043   44061       1
   44007   44019   44046   44064       6   44007   44019   44046   44067       6
   44007   44019   44046   44070       6   44004   43998   44001   44007       4
   44004   43998   44001   44010       4   44004   44013   44031   44052       1
   44004   44016  -44037   44052       1   44001   43998   44004   44013       4
   44001   43998   44004   44016       4   44001   44007   44019   44043       1
   44001   44007   44019   44046       1   44001   44010  -44025   44043       1
   43998   44001   44007   44019       1   43998   44001   44010   44025       1
   43998   44004   44013   44031       1   43998   44004   44016   44037       1
   43989   43998   44001   44007       4   43989   43998   44001   44010       4
   43989   43998   44004   44013       4   43989   43998   44004   44016       4
   43983   43989   43998   44001       4   43983   43989   43998   44004       4
   43977   43989   43998   44001       4   43977   43989   43998   44004       4
   43965   43956   43962   43977       1   43965   43983  -43989   43977       1
   43965   43983   43989   43998       1   43962   43956   43965   43983       1
   43962   43977  -43989   43983       1   43962   43977   43989   43998       1
   43959   43953   43956   43962       3   43959   43953   43956   43965       3
   43956   43962   43977   43989       1   43956   43965  -43983   43989       1
   43953   43956   43962   43977       1   43953   43956   43965   43983       1
   44769   44820   44844   44862       3   44763   44820   44844   44862       3
   44757   44811   44841   44859       3   44751   44811   44841   44859       3
   44745   44802   44838   44856       3   44739   44802   44838   44856       3
   44733   44796   44835   44853       3   44727   44796   44835   44853       3
   44724   44784   44832   44850       3   44718   44784   44832   44850       3
   44709   44775   44829   44847       3   44703   44775   44829   44847       3
   44700   44661   44697   44763       1   44700   44769  -44820   44763       1
   44700   44769   44820   44844       1   44697   44661   44700   44769       1
   44697   44763  -44820   44769       1   44697   44763   44820   44844       1
   44694   44658   44691   44751       1   44694   44757  -44811   44751       1
   44694   44757   44811   44841       1   44691   44658   44694   44757       1
   44691   44751  -44811   44757       1   44691   44751   44811   44841       1
   44688   44652   44685   44739       1   44688   44745  -44802   44739       1
   44688   44745   44802   44838       1   44685   44652   44688   44745       1
   44685   44739  -44802   44745       1   44685   44739   44802   44838       1
   44682   44649   44679   44727       1   44682   44733  -44796   44727       1
   44682   44733   44796   44835       1   44679   44649   44682   44733       1
   44679   44727  -44796   44733       1   44679   44727   44796   44835       1
   44676   44646   44673   44718       1   44676   44724  -44784   44718       1
   44676   44724   44784   44832       1   44673   44646   44676   44724       1
   44673   44718  -44784   44724       1   44673   44718   44784   44832       1
   44670   44643   44667   44703       1   44670   44709  -44775   44703       1
   44670   44709   44775   44829       1   44667   44643   44670   44709       1
   44667   44703  -44775   44709       1   44667   44703   44775   44829       1
   44661   44634   44658   44691       4   44661   44634   44658   44694       4
   44661   44697   44763   44820       1   44661   44700  -44769   44820       1
   44658   44634   44661   44697       4   44658   44634   44661   44700       4
   44658   44691   44751   44811       1   44658   44694  -44757   44811       1
   44652   44625   44649   44679       4   44652   44625   44649   44682       4
   44652   44685   44739   44802       1   44652   44688  -44745   44802       1
   44649   44625   44652   44685       4   44649   44625   44652   44688       4
   44649   44679   44727   44796       1   44649   44682  -44733   44796       1
   44646   44622   44643   44667       4   44646   44622   44643   44670       4
   44646   44673   44718   44784       1   44646   44676  -44724   44784       1
   44643   44622   44646   44673       4   44643   44622   44646   44676       4
   44643   44667   44703   44775       1   44643   44670  -44709   44775       1
   44637   44604   44634   44658       4   44637   44604   44634   44661       4
   44634   44658   44691   44751       1   44634   44658   44694   44757       1
   44634   44661   44697   44763       1   44634   44661   44700   44769       1
   44628   44592   44625   44649       4   44628   44592   44625   44652       4
   44625   44649   44679   44727       1   44625   44649   44682   44733       1
   44625   44652   44685   44739       1   44625   44652   44688   44745       1
   44622   44643   44667   44703       1   44622   44643   44670   44709       1
   44622   44646   44673   44718       1   44622   44646   44676   44724       1
   44607   44637   44604   44634       1   44604   44634   44658   44691       4
   44604   44634   44658   44694       4   44604   44634   44661   44697       4
   44604   44634   44661   44700       4   44598   44568   44574   44607       5
   44598   44628   44592   44625       1   44592   44625   44649   44679       4
   44592   44625   44649   44682       4   44592   44625   44652   44685       4
   44592   44625   44652   44688       4   44586   44622   44643   44667       4
   44586   44622   44643   44670       4   44586   44622   44646   44673       4
   44586   44622   44646   44676       4   44580   44586   44622   44643       4
   44580   44586   44622   44646       4   44574   44553   44571   44604       1
   44574   44568   44598   44628       1   44574   44607  -44637   44604       1
   44571   44553   44574   44607       1   44571   44604   44634   44658       4
   44571   44604   44634   44661       4   44571   44604  -44637   44607       1
   44568   44550   44565   44592       1   44568   44574   44553   44571       1
   44568   44574   44607   44637       1   44568   44598  -44628   44592       1
   44565   44550   44568   44574       1   44565   44550   44568   44598       1
   44565   44592   44625   44649       4   44565   44592   44625   44652       4
   44565   44592  -44628   44598       1   44562   44586   44622   44643       4
   44562   44586   44622   44646       4   44559   44544   44547   44562       1
   44559   44580  -44586   44562       1   44559   44580   44586   44622       1
   44553   44529   44547   44562       6   44553   44529   44550   44565       6
   44553   44529  -44550   44568       7   44553   44571   44604   44634       1
   44553   44571   44604   44637       1   44553   44574   44568   44598       5
   44553   44574  -44607   44637       1   44550   44529   44547   44562       6
   44550   44529   44553   44571       6   44550   44529  -44553   44574       7
   44550   44565   44592   44625       1   44550   44565   44592   44628       1
   44550   44568  -44574   44553       5   44550   44568   44574   44607       5
   44550   44568  -44598   44628       1   44547   44529   44550   44565       6
   44547   44529   44550   44568       7   44547   44529   44553   44571       6
   44547   44529   44553   44574       7   44547   44544   44559   44580       1
   44547   44562  -44586   44580       1   44547   44562   44586   44622       1
   44544   44547   44529   44550       7   44544   44547   44529   44553       7
   44544   44547   44562   44586       1   44544   44559  -44580   44586       1
   44529   44502  -44526   44544       1   44529   44547   44544   44559       1
   44529   44547   44562   44586       1   44529   44550   44565   44592       1
   44529   44550  -44568   44574       1   44529   44550   44568   44598       1
   44529   44553   44571   44604       1   44529   44553  -44574   44568       1
   44529   44553   44574   44607       1   44526   44502  -44529   44547       7
   44526   44502   44529   44550       7   44526   44502   44529   44553       7
   44526   44544  -44547   44529       1   44526   44544   44547   44562       1
   44526   44544   44559   44580       1   44520   44535   44556   44577       3
   44514   44535   44556   44577       3   44508   44526   44502   44529       1
   44508   44526   44544   44547       5   44508   44526   44544   44559       5
   44502   44526  -44544   44547       5   44502   44526   44544   44559       5
   44502   44529  -44547   44544       7   44502   44529   44547   44562       6
   44502   44529   44550   44565       6   44502   44529   44550   44568       7
   44502   44529   44553   44571       6   44502   44529   44553   44574       7
   44499   44487   44496   44514       1   44499   44520  -44535   44514       1
   44499   44520   44535   44556       1   44496   44487   44499   44520       1
   44496   44514  -44535   44520       1   44496   44514   44535   44556       1
   44493   44484   44490   44502       1   44493   44508  -44526   44502       1
   44493   44508   44526   44544       1   44490   44484   44493   44508       1
   44490   44502  -44526   44508       1   44490   44502   44526   44544       1
   44490   44502   44529   44547       6   44490   44502   44529   44550       6
   44490   44502   44529   44553       6   44487   44481   44484   44490       4
   44487   44481   44484   44493       4   44487   44496   44514   44535       1
   44487   44499  -44520   44535       1   44484   44481   44487   44496       4
   44484   44481   44487   44499       4   44484   44490   44502   44526       1
   44484   44490   44502   44529       1   44484   44493  -44508   44526       1
   44481   44484   44490   44502       1   44481   44484   44493   44508       1
   44481   44487   44496   44514       1   44481   44487   44499   44520       1
   44472   44481   44484   44490       4   44472   44481   44484   44493       4
   44472   44481   44487   44496       4   44472   44481   44487   44499       4
   44466   44472   44481   44484       4   44466   44472   44481   44487       4
   44460   44472   44481   44484       4   44460   44472   44481   44487       4
   44448   44439   44445   44460       1   44448   44466  -44472   44460       1
   44448   44466   44472   44481       1   44445   44439   44448   44466       1
   44445   44460  -44472   44466       1   44445   44460   44472   44481       1
   44442   44436   44439   44445       3   44442   44436   44439   44448       3
   44439   44445   44460   44472       1   44439   44448  -44466   44472       1
   44436   44439   44445   44460       1   44436   44439   44448   44466       1
   45252   45303   45327   45345       3   45246   45303   45327   45345       3
   45240   45294   45324   45342       3   45234   45294   45324   45342       3
   45228   45285   45321   45339       3   45222   45285   45321   45339       3
   45216   45279   45318   45336       3   45210   45279   45318   45336       3
   45207   45267   45315   45333       3   45201   45267   45315   45333       3
   45192   45258   45312   45330       3   45186   45258   45312   45330       3
   45183   45144   45180   45246       1   45183   45252  -45303   45246       1
   45183   45252   45303   45327       1   45180   45144   45183   45252       1
   45180   45246  -45303   45252       1   45180   45246   45303   45327       1
   45177   45141   45174   45234       1   45177   45240  -45294   45234       1
   45177   45240   45294   45324       1   45174   45141   45177   45240       1
   45174   45234  -45294   45240       1   45174   45234   45294   45324       1
   45171   45135   45168   45222       1   45171   45228  -45285   45222       1
   45171   45228   45285   45321       1   45168   45135   45171   45228       1
   45168   45222  -45285   45228       1   45168   45222   45285   45321       1
   45165   45132   45162   45210       1   45165   45216  -45279   45210       1
   45165   45216   45279   45318       1   45162   45132   45165   45216       1
   45162   45210  -45279   45216       1   45162   45210   45279   45318       1
   45159   45129   45156   45201       1   45159   45207  -45267   45201       1
   45159   45207   45267   45315       1   45156   45129   45159   45207       1
   45156   45201  -45267   45207       1   45156   45201   45267   45315       1
   45153   45126   45150   45186       1   45153   45192  -45258   45186       1
   45153   45192   45258   45312       1   45150   45126   45153   45192       1
   45150   45186  -45258   45192       1   45150   45186   45258   45312       1
   45144   45117   45141   45174       4   45144   45117   45141   45177       4
   45144   45180   45246   45303       1   45144   45183  -45252   45303       1
   45141   45117   45144   45180       4   45141   45117   45144   45183       4
   45141   45174   45234   45294       1   45141   45177  -45240   45294       1
   45135   45108   45132   45162       4   45135   45108   45132   45165       4
   45135   45168   45222   45285       1   45135   45171  -45228   45285       1
   45132   45108   45135   45168       4   45132   45108   45135   45171       4
   45132   45162   45210   45279       1   45132   45165  -45216   45279       1
   45129   45105   45126   45150       4   45129   45105   45126   45153       4
   45129   45156   45201   45267       1   45129   45159  -45207   45267       1
   45126   45105   45129   45156       4   45126   45105   45129   45159       4
   45126   45150   45186   45258       1   45126   45153  -45192   45258       1
   45120   45087   45117   45141       4   45120   45087   45117   45144       4
   45117   45141   45174   45234       1   45117   45141   45177   45240       1
   45117   45144   45180   45246       1   45117   45144   45183   45252       1
   45111   45075   45108   45132       4   45111   45075   45108   45135       4
   45108   45132   45162   45210       1   45108   45132   45165   45216       1
   45108   45135   45168   45222       1   45108   45135   45171   45228       1
   45105   45126   45150   45186       1   45105   45126   45153   45192       1
   45105   45129   45156   45201       1   45105   45129   45159   45207       1
   45090   45120   45087   45117       1   45087   45117   45141   45174       4
   45087   45117   45141   45177       4   45087   45117   45144   45180       4
   45087   45117   45144   45183       4   45081   45051   45057   45090       5
   45081   45111   45075   45108       1   45075   45108   45132   45162       4
   45075   45108   45132   45165       4   45075   45108   45135   45168       4
   45075   45108   45135   45171       4   45069   45105   45126   45150       4
   45069   45105   45126   45153       4   45069   45105   45129   45156       4
   45069   45105   45129   45159       4   45063   45069   45105   45126       4
   45063   45069   45105   45129       4   45057   45036   45054   45087       1
   45057   45051   45081   45111       1   45057   45090  -45120   45087       1
   45054   45036   45057   45090       1   45054   45087   45117   45141       4
   45054   45087   45117   45144       4   45054   45087  -45120   45090       1
   45051   45033   45048   45075       1   45051   45057   45036   45054       1
   45051   45057   45090   45120       1   45051   45081  -45111   45075       1
   45048   45033   45051   45057       1   45048   45033   45051   45081       1
   45048   45075   45108   45132       4   45048   45075   45108   45135       4
   45048   45075  -45111   45081       1   45045   45069   45105   45126       4
   45045   45069   45105   45129       4   45042   45027   45030   45045       1
   45042   45063  -45069   45045       1   45042   45063   45069   45105       1
   45036   45012   45030   45045       6   45036   45012   45033   45048       6
   45036   45012  -45033   45051       7   45036   45054   45087   45117       1
   45036   45054   45087   45120       1   45036   45057   45051   45081       5
   45036   45057  -45090   45120       1   45033   45012   45030   45045       6
   45033   45012   45036   45054       6   45033   45012  -45036   45057       7
   45033   45048   45075   45108       1   45033   45048   45075   45111       1
   45033   45051  -45057   45036       5   45033   45051   45057   45090       5
   45033   45051  -45081   45111       1   45030   45012   45033   45048       6
   45030   45012   45033   45051       7   45030   45012   45036   45054       6
   45030   45012   45036   45057       7   45030   45027   45042   45063       1
   45030   45045  -45069   45063       1   45030   45045   45069   45105       1
   45027   45030   45012   45033       7   45027   45030   45012   45036       7
   45027   45030   45045   45069       1   45027   45042  -45063   45069       1
   45012   44985  -45009   45027       1   45012   45030   45027   45042       1
   45012   45030   45045   45069       1   45012   45033   45048   45075       1
   45012   45033  -45051   45057       1   45012   45033   45051   45081       1
   45012   45036   45054   45087       1   45012   45036  -45057   45051       1
   45012   45036   45057   45090       1   45009   44985  -45012   45030       7
   45009   44985   45012   45033       7   45009   44985   45012   45036       7
   45009   45027  -45030   45012       1   45009   45027   45030   45045       1
   45009   45027   45042   45063       1   45003   45018   45039   45060       3
   44997   45018   45039   45060       3   44991   45009   44985   45012       1
   44991   45009   45027   45030       5   44991   45009   45027   45042       5
   44985   45009  -45027   45030       5   44985   45009   45027   45042       5
   44985   45012  -45030   45027       7   44985   45012   45030   45045       6
   44985   45012   45033   45048       6   44985   45012   45033   45051       7
   44985   45012   45036   45054       6   44985   45012   45036   45057       7
   44982   44970   44979   44997       1   44982   45003  -45018   44997       1
   44982   45003   45018   45039       1   44979   44970   44982   45003       1
   44979   44997  -45018   45003       1   44979   44997   45018   45039       1
   44976   44967   44973   44985       1   44976   44991  -45009   44985       1
   44976   44991   45009   45027       1   44973   44967   44976   44991       1
   44973   44985  -45009   44991       1   44973   44985   45009   45027       1
   44973   44985   45012   45030       6   44973   44985   45012   45033       6
   44973   44985   45012   45036       6   44970   44964   44967   44973       4
   44970   44964   44967   44976       4   44970   44979   44997   45018       1
   44970   44982  -45003   45018       1   44967   44964   44970   44979       4
   44967   44964   44970   44982       4   44967   44973   44985   45009       1
   44967   44973   44985   45012       1   44967   44976  -44991   45009       1
   44964   44967   44973   44985       1   44964   44967   44976   44991       1
   44964   44970   44979   44997       1   44964   44970   44982   45003       1
   44955   44964   44967   44973       4   44955   44964   44967   44976       4
   44955   44964   44970   44979       4   44955   44964   44970   44982       4
   44949   44955   44964   44967       4   44949   44955   44964   44970       4
   44943   44955   44964   44967       4   44943   44955   44964   44970       4
   44931   44922   44928   44943       1   44931   44949  -44955   44943       1
   44931   44949   44955   44964       1   44928   44922   44931   44949       1
   44928   44943  -44955   44949       1   44928   44943   44955   44964       1
   44925   44919   44922   44928       3   44925   44919   44922   44931       3
   44922   44928   44943   44955       1   44922   44931  -44949   44955       1
   44919   44922   44928   44943       1   44919   44922   44931   44949       1
   45735   45786   45810   45828       3   45729   45786   45810   45828       3
   45723   45777   45807   45825       3   45717   45777   45807   45825       3
   45711   45768   45804   45822       3   45705   45768   45804   45822       3
   45699   45762   45801   45819       3   45693   45762   45801   45819       3
   45690   45750   45798   45816       3   45684   45750   45798   45816       3
   45675   45741   45795   45813       3   45669   45741   45795   45813       3
   45666   45627   45663   45729       1   45666   45735  -45786   45729       1
   45666   45735   45786   45810       1   45663   45627   45666   45735       1
   45663   45729  -45786   45735       1   45663   45729   45786   45810       1
   45660   45624   45657   45717       1   45660   45723  -45777   45717       1
   45660   45723   45777   45807       1   45657   45624   45660   45723       1
   45657   45717  -45777   45723       1   45657   45717   45777   45807       1
   45654   45618   45651   45705       1   45654   45711  -45768   45705       1
   45654   45711   45768   45804       1   45651   45618   45654   45711       1
   45651   45705  -45768   45711       1   45651   45705   45768   45804       1
   45648   45615   45645   45693       1   45648   45699  -45762   45693       1
   45648   45699   45762   45801       1   45645   45615   45648   45699       1
   45645   45693  -45762   45699       1   45645   45693   45762   45801       1
   45642   45612   45639   45684       1   45642   45690  -45750   45684       1
   45642   45690   45750   45798       1   45639   45612   45642   45690       1
   45639   45684  -45750   45690       1   45639   45684   45750   45798       1
   45636   45609   45633   45669       1   45636   45675  -45741   45669       1
   45636   45675   45741   45795       1   45633   45609   45636   45675       1
   45633   45669  -45741   45675       1   45633   45669   45741   45795       1
   45627   45600   45624   45657       4   45627   45600   45624   45660       4
   45627   45663   45729   45786       1   45627   45666  -45735   45786       1
   45624   45600   45627   45663       4   45624   45600   45627   45666       4
   45624   45657   45717   45777       1   45624   45660  -45723   45777       1
   45618   45591   45615   45645       4   45618   45591   45615   45648       4
   45618   45651   45705   45768       1   45618   45654  -45711   45768       1
   45615   45591   45618   45651       4   45615   45591   45618   45654       4
   45615   45645   45693   45762       1   45615   45648  -45699   45762       1
   45612   45588   45609   45633       4   45612   45588   45609   45636       4
   45612   45639   45684   45750       1   45612   45642  -45690   45750       1
   45609   45588   45612   45639       4   45609   45588   45612   45642       4
   45609   45633   45669   45741       1   45609   45636  -45675   45741       1
   45603   45570   45600   45624       4   45603   45570   45600   45627       4
   45600   45624   45657   45717       1   45600   45624   45660   45723       1
   45600   45627   45663   45729       1   45600   45627   45666   45735       1
   45594   45558   45591   45615       4   45594   45558   45591   45618       4
   45591   45615   45645   45693       1   45591   45615   45648   45699       1
   45591   45618   45651   45705       1   45591   45618   45654   45711       1
   45588   45609   45633   45669       1   45588   45609   45636   45675       1
   45588   45612   45639   45684       1   45588   45612   45642   45690       1
   45573   45603   45570   45600       1   45570   45600   45624   45657       4
   45570   45600   45624   45660       4   45570   45600   45627   45663       4
   45570   45600   45627   45666       4   45564   45534   45540   45573       5
   45564   45594   45558   45591       1   45558   45591   45615   45645       4
   45558   45591   45615   45648       4   45558   45591   45618   45651       4
   45558   45591   45618   45654       4   45552   45588   45609   45633       4
   45552   45588   45609   45636       4   45552   45588   45612   45639       4
   45552   45588   45612   45642       4   45546   45552   45588   45609       4
   45546   45552   45588   45612       4   45540   45519   45537   45570       1
   45540   45534   45564   45594       1   45540   45573  -45603   45570       1
   45537   45519   45540   45573       1   45537   45570   45600   45624       4
   45537   45570   45600   45627       4   45537   45570  -45603   45573       1
   45534   45516   45531   45558       1   45534   45540   45519   45537       1
   45534   45540   45573   45603       1   45534   45564  -45594   45558       1
   45531   45516   45534   45540       1   45531   45516   45534   45564       1
   45531   45558   45591   45615       4   45531   45558   45591   45618       4
   45531   45558  -45594   45564       1   45528   45552   45588   45609       4
   45528   45552   45588   45612       4   45525   45510   45513   45528       1
   45525   45546  -45552   45528       1   45525   45546   45552   45588       1
   45519   45495   45513   45528       6   45519   45495   45516   45531       6
   45519   45495  -45516   45534       7   45519   45537   45570   45600       1
   45519   45537   45570   45603       1   45519   45540   45534   45564       5
   45519   45540  -45573   45603       1   45516   45495   45513   45528       6
   45516   45495   45519   45537       6   45516   45495  -45519   45540       7
   45516   45531   45558   45591       1   45516   45531   45558   45594       1
   45516   45534  -45540   45519       5   45516   45534   45540   45573       5
   45516   45534  -45564   45594       1   45513   45495   45516   45531       6
   45513   45495   45516   45534       7   45513   45495   45519   45537       6
   45513   45495   45519   45540       7   45513   45510   45525   45546       1
   45513   45528  -45552   45546       1   45513   45528   45552   45588       1
   45510   45513   45495   45516       7   45510   45513   45495   45519       7
   45510   45513   45528   45552       1   45510   45525  -45546   45552       1
   45495   45468  -45492   45510       1   45495   45513   45510   45525       1
   45495   45513   45528   45552       1   45495   45516   45531   45558       1
   45495   45516  -45534   45540       1   45495   45516   45534   45564       1
   45495   45519   45537   45570       1   45495   45519  -45540   45534       1
   45495   45519   45540   45573       1   45492   45468  -45495   45513       7
   45492   45468   45495   45516       7   45492   45468   45495   45519       7
   45492   45510  -45513   45495       1   45492   45510   45513   45528       1
   45492   45510   45525   45546       1   45486   45501   45522   45543       3
   45480   45501   45522   45543       3   45474   45492   45468   45495       1
   45474   45492   45510   45513       5   45474   45492   45510   45525       5
   45468   45492  -45510   45513       5   45468   45492   45510   45525       5
   45468   45495  -45513   45510       7   45468   45495   45513   45528       6
   45468   45495   45516   45531       6   45468   45495   45516   45534       7
   45468   45495   45519   45537       6   45468   45495   45519   45540       7
   45465   45453   45462   45480       1   45465   45486  -45501   45480       1
   45465   45486   45501   45522       1   45462   45453   45465   45486       1
   45462   45480  -45501   45486       1   45462   45480   45501   45522       1
   45459   45450   45456   45468       1   45459   45474  -45492   45468       1
   45459   45474   45492   45510       1   45456   45450   45459   45474       1
   45456   45468  -45492   45474       1   45456   45468   45492   45510       1
   45456   45468   45495   45513       6   45456   45468   45495   45516       6
   45456   45468   45495   45519       6   45453   45447   45450   45456       4
   45453   45447   45450   45459       4   45453   45462   45480   45501       1
   45453   45465  -45486   45501       1   45450   45447   45453   45462       4
   45450   45447   45453   45465       4   45450   45456   45468   45492       1
   45450   45456   45468   45495       1   45450   45459  -45474   45492       1
   45447   45450   45456   45468       1   45447   45450   45459   45474       1
   45447   45453   45462   45480       1   45447   45453   45465   45486       1
   45438   45447   45450   45456       4   45438   45447   45450   45459       4
   45438   45447   45453   45462       4   45438   45447   45453   45465       4
   45432   45438   45447   45450       4   45432   45438   45447   45453       4
   45426   45438   45447   45450       4   45426   45438   45447   45453       4
   45414   45405   45411   45426       1   45414   45432  -45438   45426       1
   45414   45432   45438   45447       1   45411   45405   45414   45432       1
   45411   45426  -45438   45432       1   45411   45426   45438   45447       1
   45408   45402   45405   45411       3   45408   45402   45405   45414       3
   45405   45411   45426   45438       1   45405   45414  -45432   45438       1
   45402   45405   45411   45426       1   45402   45405   45414   45432       1
   46218   46269   46293   46311       3   46212   46269   46293   46311       3
   46206   46260   46290   46308       3   46200   46260   46290   46308       3
   46194   46251   46287   46305       3   46188   46251   46287   46305       3
   46182   46245   46284   46302       3   46176   46245   46284   46302       3
   46173   46233   46281   46299       3   46167   46233   46281   46299       3
   46158   46224   46278   46296       3   46152   46224   46278   46296       3
   46149   46110   46146   46212       1   46149   46218  -46269   46212       1
   46149   46218   46269   46293       1   46146   46110   46149   46218       1
   46146   46212  -46269   46218       1   46146   46212   46269   46293       1
   46143   46107   46140   46200       1   46143   46206  -46260   46200       1
   46143   46206   46260   46290       1   46140   46107   46143   46206       1
   46140   46200  -46260   46206       1   46140   46200   46260   46290       1
   46137   46101   46134   46188       1   46137   46194  -46251   46188       1
   46137   46194   46251   46287       1   46134   46101   46137   46194       1
   46134   46188  -46251   46194       1   46134   46188   46251   46287       1
   46131   46098   46128   46176       1   46131   46182  -46245   46176       1
   46131   46182   46245   46284       1   46128   46098   46131   46182       1
   46128   46176  -46245   46182       1   46128   46176   46245   46284       1
   46125   46095   46122   46167       1   46125   46173  -46233   46167       1
   46125   46173   46233   46281       1   46122   46095   46125   46173       1
   46122   46167  -46233   46173       1   46122   46167   46233   46281       1
   46119   46092   46116   46152       1   46119   46158  -46224   46152       1
   46119   46158   46224   46278       1   46116   46092   46119   46158       1
   46116   46152  -46224   46158       1   46116   46152   46224   46278       1
   46110   46083   46107   46140       4   46110   46083   46107   46143       4
   46110   46146   46212   46269       1   46110   46149  -46218   46269       1
   46107   46083   46110   46146       4   46107   46083   46110   46149       4
   46107   46140   46200   46260       1   46107   46143  -46206   46260       1
   46101   46074   46098   46128       4   46101   46074   46098   46131       4
   46101   46134   46188   46251       1   46101   46137  -46194   46251       1
   46098   46074   46101   46134       4   46098   46074   46101   46137       4
   46098   46128   46176   46245       1   46098   46131  -46182   46245       1
   46095   46071   46092   46116       4   46095   46071   46092   46119       4
   46095   46122   46167   46233       1   46095   46125  -46173   46233       1
   46092   46071   46095   46122       4   46092   46071   46095   46125       4
   46092   46116   46152   46224       1   46092   46119  -46158   46224       1
   46086   46053   46083   46107       4   46086   46053   46083   46110       4
   46083   46107   46140   46200       1   46083   46107   46143   46206       1
   46083   46110   46146   46212       1   46083   46110   46149   46218       1
   46077   46041   46074   46098       4   46077   46041   46074   46101       4
   46074   46098   46128   46176       1   46074   46098   46131   46182       1
   46074   46101   46134   46188       1   46074   46101   46137   46194       1
   46071   46092   46116   46152       1   46071   46092   46119   46158       1
   46071   46095   46122   46167       1   46071   46095   46125   46173       1
   46056   46086   46053   46083       1   46053   46083   46107   46140       4
   46053   46083   46107   46143       4   46053   46083   46110   46146       4
   46053   46083   46110   46149       4   46047   46017   46023   46056       5
   46047   46077   46041   46074       1   46041   46074   46098   46128       4
   46041   46074   46098   46131       4   46041   46074   46101   46134       4
   46041   46074   46101   46137       4   46035   46071   46092   46116       4
   46035   46071   46092   46119       4   46035   46071   46095   46122       4
   46035   46071   46095   46125       4   46029   46035   46071   46092       4
   46029   46035   46071   46095       4   46023   46002   46020   46053       1
   46023   46017   46047   46077       1   46023   46056  -46086   46053       1
   46020   46002   46023   46056       1   46020   46053   46083   46107       4
   46020   46053   46083   46110       4   46020   46053  -46086   46056       1
   46017   45999   46014   46041       1   46017   46023   46002   46020       1
   46017   46023   46056   46086       1   46017   46047  -46077   46041       1
   46014   45999   46017   46023       1   46014   45999   46017   46047       1
   46014   46041   46074   46098       4   46014   46041   46074   46101       4
   46014   46041  -46077   46047       1   46011   46035   46071   46092       4
   46011   46035   46071   46095       4   46008   45993   45996   46011       1
   46008   46029  -46035   46011       1   46008   46029   46035   46071       1
   46002   45978   45996   46011       6   46002   45978   45999   46014       6
   46002   45978  -45999   46017       7   46002   46020   46053   46083       1
   46002   46020   46053   46086       1   46002   46023   46017   46047       5
   46002   46023  -46056   46086       1   45999   45978   45996   46011       6
   45999   45978   46002   46020       6   45999   45978  -46002   46023       7
   45999   46014   46041   46074       1   45999   46014   46041   46077       1
   45999   46017  -46023   46002       5   45999   46017   46023   46056       5
   45999   46017  -46047   46077       1   45996   45978   45999   46014       6
   45996   45978   45999   46017       7   45996   45978   46002   46020       6
   45996   45978   46002   46023       7   45996   45993   46008   46029       1
   45996   46011  -46035   46029       1   45996   46011   46035   46071       1
   45993   45996   45978   45999       7   45993   45996   45978   46002       7
   45993   45996   46011   46035       1   45993   46008  -46029   46035       1
   45978   45951  -45975   45993       1   45978   45996   45993   46008       1
   45978   45996   46011   46035       1   45978   45999   46014   46041       1
   45978   45999  -46017   46023       1   45978   45999   46017   46047       1
   45978   46002   46020   46053       1   45978   46002  -46023   46017       1
   45978   46002   46023   46056       1   45975   45951  -45978   45996       7
   45975   45951   45978   45999       7   45975   45951   45978   46002       7
   45975   45993  -45996   45978       1   45975   45993   45996   46011       1
   45975   45993   46008   46029       1   45969   45984   46005   46026       3
   45963   45984   46005   46026       3   45957   45975   45951   45978       1
   45957   45975   45993   45996       5   45957   45975   45993   46008       5
   45951   45975  -45993   45996       5   45951   45975   45993   46008       5
   45951   45978  -45996   45993       7   45951   45978   45996   46011       6
   45951   45978   45999   46014       6   45951   45978   45999   46017       7
   45951   45978   46002   46020       6   45951   45978   46002   46023       7
   45948   45936   45945   45963       1   45948   45969  -45984   45963       1
   45948   45969   45984   46005       1   45945   45936   45948   45969       1
   45945   45963  -45984   45969       1   45945   45963   45984   46005       1
   45942   45933   45939   45951       1   45942   45957  -45975   45951       1
   45942   45957   45975   45993       1   45939   45933   45942   45957       1
   45939   45951  -45975   45957       1   45939   45951   45975   45993       1
   45939   45951   45978   45996       6   45939   45951   45978   45999       6
   45939   45951   45978   46002       6   45936   45930   45933   45939       4
   45936   45930   45933   45942       4   45936   45945   45963   45984       1
   45936   45948  -45969   45984       1   45933   45930   45936   45945       4
   45933   45930   45936   45948       4   45933   45939   45951   45975       1
   45933   45939   45951   45978       1   45933   45942  -45957   45975       1
   45930   45933   45939   45951       1   45930   45933   45942   45957       1
   45930   45936   45945   45963       1   45930   45936   45948   45969       1
   45921   45930   45933   45939       4   45921   45930   45933   45942       4
   45921   45930   45936   45945       4   45921   45930   45936   45948       4
   45915   45921   45930   45933       4   45915   45921   45930   45936       4
   45909   45921   45930   45933       4   45909   45921   45930   45936       4
   45897   45888   45894   45909       1   45897   45915  -45921   45909       1
   45897   45915   45921   45930       1   45894   45888   45897   45915       1
   45894   45909  -45921   45915       1   45894   45909   45921   45930       1
   45891   45885   45888   45894       3   45891   45885   45888   45897       3
   45888   45894   45909   45921       1   45888   45897  -45915   45921       1
   45885   45888   45894   45909       1   45885   45888   45897   45915       1
   46701   46752   46776   46794       3   46695   46752   46776   46794       3
   46689   46743   46773   46791       3   46683   46743   46773   46791       3
   46677   46734   46770   46788       3   46671   46734   46770   46788       3
   46665   46728   46767   46785       3   46659   46728   46767   46785       3
   46656   46716   46764   46782       3   46650   46716   46764   46782       3
   46641   46707   46761   46779       3   46635   46707   46761   46779       3
   46632   46593   46629   46695       1   46632   46701  -46752   46695       1
   46632   46701   46752   46776       1   46629   46593   46632   46701       1
   46629   46695  -46752   46701       1   46629   46695   46752   46776       1
   46626   46590   46623   46683       1   46626   46689  -46743   46683       1
   46626   46689   46743   46773       1   46623   46590   46626   46689       1
   46623   46683  -46743   46689       1   46623   46683   46743   46773       1
   46620   46584   46617   46671       1   46620   46677  -46734   46671       1
   46620   46677   46734   46770       1   46617   46584   46620   46677       1
   46617   46671  -46734   46677       1   46617   46671   46734   46770       1
   46614   46581   46611   46659       1   46614   46665  -46728   46659       1
   46614   46665   46728   46767       1   46611   46581   46614   46665       1
   46611   46659  -46728   46665       1   46611   46659   46728   46767       1
   46608   46578   46605   46650       1   46608   46656  -46716   46650       1
   46608   46656   46716   46764       1   46605   46578   46608   46656       1
   46605   46650  -46716   46656       1   46605   46650   46716   46764       1
   46602   46575   46599   46635       1   46602   46641  -46707   46635       1
   46602   46641   46707   46761       1   46599   46575   46602   46641       1
   46599   46635  -46707   46641       1   46599   46635   46707   46761       1
   46593   46566   46590   46623       4   46593   46566   46590   46626       4
   46593   46629   46695   46752       1   46593   46632  -46701   46752       1
   46590   46566   46593   46629       4   46590   46566   46593   46632       4
   46590   46623   46683   46743       1   46590   46626  -46689   46743       1
   46584   46557   46581   46611       4   46584   46557   46581   46614       4
   46584   46617   46671   46734       1   46584   46620  -46677   46734       1
   46581   46557   46584   46617       4   46581   46557   46584   46620       4
   46581   46611   46659   46728       1   46581   46614  -46665   46728       1
   46578   46554   46575   46599       4   46578   46554   46575   46602       4
   46578   46605   46650   46716       1   46578   46608  -46656   46716       1
   46575   46554   46578   46605       4   46575   46554   46578   46608       4
   46575   46599   46635   46707       1   46575   46602  -46641   46707       1
   46569   46536   46566   46590       4   46569   46536   46566   46593       4
   46566   46590   46623   46683       1   46566   46590   46626   46689       1
   46566   46593   46629   46695       1   46566   46593   46632   46701       1
   46560   46524   46557   46581       4   46560   46524   46557   46584       4
   46557   46581   46611   46659       1   46557   46581   46614   46665       1
   46557   46584   46617   46671       1   46557   46584   46620   46677       1
   46554   46575   46599   46635       1   46554   46575   46602   46641       1
   46554   46578   46605   46650       1   46554   46578   46608   46656       1
   46539   46569   46536   46566       1   46536   46566   46590   46623       4
   46536   46566   46590   46626       4   46536   46566   46593   46629       4
   46536   46566   46593   46632       4   46530   46500   46506   46539       5
   46530   46560   46524   46557       1   46524   46557   46581   46611       4
   46524   46557   46581   46614       4   46524   46557   46584   46617       4
   46524   46557   46584   46620       4   46518   46554   46575   46599       4
   46518   46554   46575   46602       4   46518   46554   46578   46605       4
   46518   46554   46578   46608       4   46512   46518   46554   46575       4
   46512   46518   46554   46578       4   46506   46485   46503   46536       1
   46506   46500   46530   46560       1   46506   46539  -46569   46536       1
   46503   46485   46506   46539       1   46503   46536   46566   46590       4
   46503   46536   46566   46593       4   46503   46536  -46569   46539       1
   46500   46482   46497   46524       1   46500   46506   46485   46503       1
   46500   46506   46539   46569       1   46500   46530  -46560   46524       1
   46497   46482   46500   46506       1   46497   46482   46500   46530       1
   46497   46524   46557   46581       4   46497   46524   46557   46584       4
   46497   46524  -46560   46530       1   46494   46518   46554   46575       4
   46494   46518   46554   46578       4   46491   46476   46479   46494       1
   46491   46512  -46518   46494       1   46491   46512   46518   46554       1
   46485   46461   46479   46494       6   46485   46461   46482   46497       6
   46485   46461  -46482   46500       7   46485   46503   46536   46566       1
   46485   46503   46536   46569       1   46485   46506   46500   46530       5
   46485   46506  -46539   46569       1   46482   46461   46479   46494       6
   46482   46461   46485   46503       6   46482   46461  -46485   46506       7
   46482   46497   46524   46557       1   46482   46497   46524   46560       1
   46482   46500  -46506   46485       5   46482   46500   46506   46539       5
   46482   46500  -46530   46560       1   46479   46461   46482   46497       6
   46479   46461   46482   46500       7   46479   46461   46485   46503       6
   46479   46461   46485   46506       7   46479   46476   46491   46512       1
   46479   46494  -46518   46512       1   46479   46494   46518   46554       1
   46476   46479   46461   46482       7   46476   46479   46461   46485       7
   46476   46479   46494   46518       1   46476   46491  -46512   46518       1
   46461   46434  -46458   46476       1   46461   46479   46476   46491       1
   46461   46479   46494   46518       1   46461   46482   46497   46524       1
   46461   46482  -46500   46506       1   46461   46482   46500   46530       1
   46461   46485   46503   46536       1   46461   46485  -46506   46500       1
   46461   46485   46506   46539       1   46458   46434  -46461   46479       7
   46458   46434   46461   46482       7   46458   46434   46461   46485       7
   46458   46476  -46479   46461       1   46458   46476   46479   46494       1
   46458   46476   46491   46512       1   46452   46467   46488   46509       3
   46446   46467   46488   46509       3   46440   46458   46434   46461       1
   46440   46458   46476   46479       5   46440   46458   46476   46491       5
   46434   46458  -46476   46479       5   46434   46458   46476   46491       5
   46434   46461  -46479   46476       7   46434   46461   46479   46494       6
   46434   46461   46482   46497       6   46434   46461   46482   46500       7
   46434   46461   46485   46503       6   46434   46461   46485   46506       7
   46431   46419   46428   46446       1   46431   46452  -46467   46446       1
   46431   46452   46467   46488       1   46428   46419   46431   46452       1
   46428   46446  -46467   46452       1   46428   46446   46467   46488       1
   46425   46416   46422   46434       1   46425   46440  -46458   46434       1
   46425   46440   46458   46476       1   46422   46416   46425   46440       1
   46422   46434  -46458   46440       1   46422   46434   46458   46476       1
   46422   46434   46461   46479       6   46422   46434   46461   46482       6
   46422   46434   46461   46485       6   46419   46413   46416   46422       4
   46419   46413   46416   46425       4   46419   46428   46446   46467       1
   46419   46431  -46452   46467       1   46416   46413   46419   46428       4
   46416   46413   46419   46431       4   46416   46422   46434   46458       1
   46416   46422   46434   46461       1   46416   46425  -46440   46458       1
   46413   46416   46422   46434       1   46413   46416   46425   46440       1
   46413   46419   46428   46446       1   46413   46419   46431   46452       1
   46404   46413   46416   46422       4   46404   46413   46416   46425       4
   46404   46413   46419   46428       4   46404   46413   46419   46431       4
   46398   46404   46413   46416       4   46398   46404   46413   46419       4
   46392   46404   46413   46416       4   46392   46404   46413   46419       4
   46380   46371   46377   46392       1   46380   46398  -46404   46392       1
   46380   46398   46404   46413       1   46377   46371   46380   46398       1
   46377   46392  -46404   46398       1   46377   46392   46404   46413       1
   46374   46368   46371   46377       3   46374   46368   46371   46380       3
   46371   46377   46392   46404       1   46371   46380  -46398   46404       1
   46368   46371   46377   46392       1   46368   46371   46380   46398       1
   47184   47235   47259   47277       3   47178   47235   47259   47277       3
   47172   47226   47256   47274       3   47166   47226   47256   47274       3
   47160   47217   47253   47271       3   47154   47217   47253   47271       3
   47148   47211   47250   47268       3   47142   47211   47250   47268       3
   47139   47199   47247   47265       3   47133   47199   47247   47265       3
   47124   47190   47244   47262       3   47118   47190   47244   47262       3
   47115   47076   47112   47178       1   47115   47184  -47235   47178       1
   47115   47184   47235   47259       1   47112   47076   47115   47184       1
   47112   47178  -47235   47184       1   47112   47178   47235   47259       1
   47109   47073   47106   47166       1   47109   47172  -47226   47166       1
   47109   47172   47226   47256       1   47106   47073   47109   47172       1
   47106   47166  -47226   47172       1   47106   47166   47226   47256       1
   47103   47067   47100   47154       1   47103   47160  -47217   47154       1
   47103   47160   47217   47253       1   47100   47067   47103   47160       1
   47100   47154  -47217   47160       1   47100   47154   47217   47253       1
   47097   47064   47094   47142       1   47097   47148  -47211   47142       1
   47097   47148   47211   47250       1   47094   47064   47097   47148       1
   47094   47142  -47211   47148       1   47094   47142   47211   47250       1
   47091   47061   47088   47133       1   47091   47139  -47199   47133       1
   47091   47139   47199   47247       1   47088   47061   47091   47139       1
   47088   47133  -47199   47139       1   47088   47133   47199   47247       1
   47085   47058   47082   47118       1   47085   47124  -47190   47118       1
   47085   47124   47190   47244       1   47082   47058   47085   47124       1
   47082   47118  -47190   47124       1   47082   47118   47190   47244       1
   47076   47049   47073   47106       4   47076   47049   47073   47109       4
   47076   47112   47178   47235       1   47076   47115  -47184   47235       1
   47073   47049   47076   47112       4   47073   47049   47076   47115       4
   47073   47106   47166   47226       1   47073   47109  -47172   47226       1
   47067   47040   47064   47094       4   47067   47040   47064   47097       4
   47067   47100   47154   47217       1   47067   47103  -47160   47217       1
   47064   47040   47067   47100       4   47064   47040   47067   47103       4
   47064   47094   47142   47211       1   47064   47097  -47148   47211       1
   47061   47037   47058   47082       4   47061   47037   47058   47085       4
   47061   47088   47133   47199       1   47061   47091  -47139   47199       1
   47058   47037   47061   47088       4   47058   47037   47061   47091       4
   47058   47082   47118   47190       1   47058   47085  -47124   47190       1
   47052   47019   47049   47073       4   47052   47019   47049   47076       4
   47049   47073   47106   47166       1   47049   47073   47109   47172       1
   47049   47076   47112   47178       1   47049   47076   47115   47184       1
   47043   47007   47040   47064       4   47043   47007   47040   47067       4
   47040   47064   47094   47142       1   47040   47064   47097   47148       1
   47040   47067   47100   47154       1   47040   47067   47103   47160       1
   47037   47058   47082   47118       1   47037   47058   47085   47124       1
   47037   47061   47088   47133       1   47037   47061   47091   47139       1
   47022   47052   47019   47049       1   47019   47049   47073   47106       4
   47019   47049   47073   47109       4   47019   47049   47076   47112       4
   47019   47049   47076   47115       4   47013   46983   46989   47022       5
   47013   47043   47007   47040       1   47007   47040   47064   47094       4
   47007   47040   47064   47097       4   47007   47040   47067   47100       4
   47007   47040   47067   47103       4   47001   47037   47058   47082       4
   47001   47037   47058   47085       4   47001   47037   47061   47088       4
   47001   47037   47061   47091       4   46995   47001   47037   47058       4
   46995   47001   47037   47061       4   46989   46968   46986   47019       1
   46989   46983   47013   47043       1   46989   47022  -47052   47019       1
   46986   46968   46989   47022       1   46986   47019   47049   47073       4
   46986   47019   47049   47076       4   46986   47019  -47052   47022       1
   46983   46965   46980   47007       1   46983   46989   46968   46986       1
   46983   46989   47022   47052       1   46983   47013  -47043   47007       1
   46980   46965   46983   46989       1   46980   46965   46983   47013       1
   46980   47007   47040   47064       4   46980   47007   47040   47067       4
   46980   47007  -47043   47013       1   46977   47001   47037   47058       4
   46977   47001   47037   47061       4   46974   46959   46962   46977       1
   46974   46995  -47001   46977       1   46974   46995   47001   47037       1
   46968   46944   46962   46977       6   46968   46944   46965   46980       6
   46968   46944  -46965   46983       7   46968   46986   47019   47049       1
   46968   46986   47019   47052       1   46968   46989   46983   47013       5
   46968   46989  -47022   47052       1   46965   46944   46962   46977       6
   46965   46944   46968   46986       6   46965   46944  -46968   46989       7
   46965   46980   47007   47040       1   46965   46980   47007   47043       1
   46965   46983  -46989   46968       5   46965   46983   46989   47022       5
   46965   46983  -47013   47043       1   46962   46944   46965   46980       6
   46962   46944   46965   46983       7   46962   46944   46968   46986       6
   46962   46944   46968   46989       7   46962   46959   46974   46995       1
   46962   46977  -47001   46995       1   46962   46977   47001   47037       1
   46959   46962   46944   46965       7   46959   46962   46944   46968       7
   46959   46962   46977   47001       1   46959   46974  -46995   47001       1
   46944   46917  -46941   46959       1   46944   46962   46959   46974       1
   46944   46962   46977   47001       1   46944   46965   46980   47007       1
   46944   46965  -46983   46989       1   46944   46965   46983   47013       1
   46944   46968   46986   47019       1   46944   46968  -46989   46983       1
   46944   46968   46989   47022       1   46941   46917  -46944   46962       7
   46941   46917   46944   46965       7   46941   46917   46944   46968       7
   46941   46959  -46962   46944       1   46941   46959   46962   46977       1
   46941   46959   46974   46995       1   46935   46950   46971   46992       3
   46929   46950   46971   46992       3   46923   46941   46917   46944       1
   46923   46941   46959   46962       5   46923   46941   46959   46974       5
   46917   46941  -46959   46962       5   46917   46941   46959   46974       5
   46917   46944  -46962   46959       7   46917   46944   46962   46977       6
   46917   46944   46965   46980       6   46917   46944   46965   46983       7
   46917   46944   46968   46986       6   46917   46944   46968   46989       7
   46914   46902   46911   46929       1   46914   46935  -46950   46929       1
   46914   46935   46950   46971       1   46911   46902   46914   46935       1
   46911   46929  -46950   46935       1   46911   46929   46950   46971       1
   46908   46899   46905   46917       1   46908   46923  -46941   46917       1
   46908   46923   46941   46959       1   46905   46899   46908   46923       1
   46905   46917  -46941   46923       1   46905   46917   46941   46959       1
   46905   46917   46944   46962       6   46905   46917   46944   46965       6
   46905   46917   46944   46968       6   46902   46896   46899   46905       4
   46902   46896   46899   46908       4   46902   46911   46929   46950       1
   46902   46914  -46935   46950       1   46899   46896   46902   46911       4
   46899   46896   46902   46914       4   46899   46905   46917   46941       1
   46899   46905   46917   46944       1   46899   46908  -46923   46941       1
   46896   46899   46905   46917       1   46896   46899   46908   46923       1
   46896   46902   46911   46929       1   46896   46902   46914   46935       1
   46887   46896   46899   46905       4   46887   46896   46899   46908       4
   46887   46896   46902   46911       4   46887   46896   46902   46914       4
   46881   46887   46896   46899       4   46881   46887   46896   46902       4
   46875   46887   46896   46899       4   46875   46887   46896   46902       4
   46863   46854   46860   46875       1   46863   46881  -46887   46875       1
   46863   46881   46887   46896       1   46860   46854   46863   46881       1
   46860   46875  -46887   46881       1   46860   46875   46887   46896       1
   46857   46851   46854   46860       3   46857   46851   46854   46863       3
   46854   46860   46875   46887       1   46854   46863  -46881   46887       1
   46851   46854   46860   46875       1   46851   46854   46863   46881       1
   47667   47718   47742   47760       3   47661   47718   47742   47760       3
   47655   47709   47739   47757       3   47649   47709   47739   47757       3
   47643   47700   47736   47754       3   47637   47700   47736   47754       3
   47631   47694   47733   47751       3   47625   47694   47733   47751       3
   47622   47682   47730   47748       3   47616   47682   47730   47748       3
   47607   47673   47727   47745       3   47601   47673   47727   47745       3
   47598   47559   47595   47661       1   47598   47667  -47718   47661       1
   47598   47667   47718   47742       1   47595   47559   47598   47667       1
   47595   47661  -47718   47667       1   47595   47661   47718   47742       1
   47592   47556   47589   47649       1   47592   47655  -47709   47649       1
   47592   47655   47709   47739       1   47589   47556   47592   47655       1
   47589   47649  -47709   47655       1   47589   47649   47709   47739       1
   47586   47550   47583   47637       1   47586   47643  -47700   47637       1
   47586   47643   47700   47736       1   47583   47550   47586   47643       1
   47583   47637  -47700   47643       1   47583   47637   47700   47736       1
   47580   47547   47577   47625       1   47580   47631  -47694   47625       1
   47580   47631   47694   47733       1   47577   47547   47580   47631       1
   47577   47625  -47694   47631       1   47577   47625   47694   47733       1
   47574   47544   47571   47616       1   47574   47622  -47682   47616       1
   47574   47622   47682   47730       1   47571   47544   47574   47622       1
   47571   47616  -47682   47622       1   47571   47616   47682   47730       1
   47568   47541   47565   47601       1   47568   47607  -47673   47601       1
   47568   47607   47673   47727       1   47565   47541   47568   47607       1
   47565   47601  -47673   47607       1   47565   47601   47673   47727       1
   47559   47532   47556   47589       4   47559   47532   47556   47592       4
   47559   47595   47661   47718       1   47559   47598  -47667   47718       1
   47556   47532   47559   47595       4   47556   47532   47559   47598       4
   47556   47589   47649   47709       1   47556   47592  -47655   47709       1
   47550   47523   47547   47577       4   47550   47523   47547   47580       4
   47550   47583   47637   47700       1   47550   47586  -47643   47700       1
   47547   47523   47550   47583       4   47547   47523   47550   47586       4
   47547   47577   47625   47694       1   47547   47580  -47631   47694       1
   47544   47520   47541   47565       4   47544   47520   47541   47568       4
   47544   47571   47616   47682       1   47544   47574  -47622   47682       1
   47541   47520   47544   47571       4   47541   47520   47544   47574       4
   47541   47565   47601   47673       1   47541   47568  -47607   47673       1
   47535   47502   47532   47556       4   47535   47502   47532   47559       4
   47532   47556   47589   47649       1   47532   47556   47592   47655       1
   47532   47559   47595   47661       1   47532   47559   47598   47667       1
   47526   47490   47523   47547       4   47526   47490   47523   47550       4
   47523   47547   47577   47625       1   47523   47547   47580   47631       1
   47523   47550   47583   47637       1   47523   47550   47586   47643       1
   47520   47541   47565   47601       1   47520   47541   47568   47607       1
   47520   47544   47571   47616       1   47520   47544   47574   47622       1
   47505   47535   47502   47532       1   47502   47532   47556   47589       4
   47502   47532   47556   47592       4   47502   47532   47559   47595       4
   47502   47532   47559   47598       4   47496   47466   47472   47505       5
   47496   47526   47490   47523       1   47490   47523   47547   47577       4
   47490   47523   47547   47580       4   47490   47523   47550   47583       4
   47490   47523   47550   47586       4   47484   47520   47541   47565       4
   47484   47520   47541   47568       4   47484   47520   47544   47571       4
   47484   47520   47544   47574       4   47478   47484   47520   47541       4
   47478   47484   47520   47544       4   47472   47451   47469   47502       1
   47472   47466   47496   47526       1   47472   47505  -47535   47502       1
   47469   47451   47472   47505       1   47469   47502   47532   47556       4
   47469   47502   47532   47559       4   47469   47502  -47535   47505       1
   47466   47448   47463   47490       1   47466   47472   47451   47469       1
   47466   47472   47505   47535       1   47466   47496  -47526   47490       1
   47463   47448   47466   47472       1   47463   47448   47466   47496       1
   47463   47490   47523   47547       4   47463   47490   47523   47550       4
   47463   47490  -47526   47496       1   47460   47484   47520   47541       4
   47460   47484   47520   47544       4   47457   47442   47445   47460       1
   47457   47478  -47484   47460       1   47457   47478   47484   47520       1
   47451   47427   47445   47460       6   47451   47427   47448   47463       6
   47451   47427  -47448   47466       7   47451   47469   47502   47532       1
   47451   47469   47502   47535       1   47451   47472   47466   47496       5
   47451   47472  -47505   47535       1   47448   47427   47445   47460       6
   47448   47427   47451   47469       6   47448   47427  -47451   47472       7
   47448   47463   47490   47523       1   47448   47463   47490   47526       1
   47448   47466  -47472   47451       5   47448   47466   47472   47505       5
   47448   47466  -47496   47526       1   47445   47427   47448   47463       6
   47445   47427   47448   47466       7   47445   47427   47451   47469       6
   47445   47427   47451   47472       7   47445   47442   47457   47478       1
   47445   47460  -47484   47478       1   47445   47460   47484   47520       1
   47442   47445   47427   47448       7   47442   47445   47427   47451       7
   47442   47445   47460   47484       1   47442   47457  -47478   47484       1
   47427   47400  -47424   47442       1   47427   47445   47442   47457       1
   47427   47445   47460   47484       1   47427   47448   47463   47490       1
   47427   47448  -47466   47472       1   47427   47448   47466   47496       1
   47427   47451   47469   47502       1   47427   47451  -47472   47466       1
   47427   47451   47472   47505       1   47424   47400  -47427   47445       7
   47424   47400   47427   47448       7   47424   47400   47427   47451       7
   47424   47442  -47445   47427       1   47424   47442   47445   47460       1
   47424   47442   47457   47478       1   47418   47433   47454   47475       3
   47412   47433   47454   47475       3   47406   47424   47400   47427       1
   47406   47424   47442   47445       5   47406   47424   47442   47457       5
   47400   47424  -47442   47445       5   47400   47424   47442   47457       5
   47400   47427  -47445   47442       7   47400   47427   47445   47460       6
   47400   47427   47448   47463       6   47400   47427   47448   47466       7
   47400   47427   47451   47469       6   47400   47427   47451   47472       7
   47397   47385   47394   47412       1   47397   47418  -47433   47412       1
   47397   47418   47433   47454       1   47394   47385   47397   47418       1
   47394   47412  -47433   47418       1   47394   47412   47433   47454       1
   47391   47382   47388   47400       1   47391   47406  -47424   47400       1
   47391   47406   47424   47442       1   47388   47382   47391   47406       1
   47388   47400  -47424   47406       1   47388   47400   47424   47442       1
   47388   47400   47427   47445       6   47388   47400   47427   47448       6
   47388   47400   47427   47451       6   47385   47379   47382   47388       4
   47385   47379   47382   47391       4   47385   47394   47412   47433       1
   47385   47397  -47418   47433       1   47382   47379   47385   47394       4
   47382   47379   47385   47397       4   47382   47388   47400   47424       1
   47382   47388   47400   47427       1   47382   47391  -47406   47424       1
   47379   47382   47388   47400       1   47379   47382   47391   47406       1
   47379   47385   47394   47412       1   47379   47385   47397   47418       1
   47370   47379   47382   47388       4   47370   47379   47382   47391       4
   47370   47379   47385   47394       4   47370   47379   47385   47397       4
   47364   47370   47379   47382       4   47364   47370   47379   47385       4
   47358   47370   47379   47382       4   47358   47370   47379   47385       4
   47346   47337   47343   47358       1   47346   47364  -47370   47358       1
   47346   47364   47370   47379       1   47343   47337   47346   47364       1
   47343   47358  -47370   47364       1   47343   47358   47370   47379       1
   47340   47334   47337   47343       3   47340   47334   47337   47346       3
   47337   47343   47358   47370       1   47337   47346  -47364   47370       1
   47334   47337   47343   47358       1   47334   47337   47346   47364       1
   48150   48201   48225   48243       3   48144   48201   48225   48243       3
   48138   48192   48222   48240       3   48132   48192   48222   48240       3
   48126   48183   48219   48237       3   48120   48183   48219   48237       3
   48114   48177   48216   48234       3   48108   48177   48216   48234       3
   48105   48165   48213   48231       3   48099   48165   48213   48231       3
   48090   48156   48210   48228       3   48084   48156   48210   48228       3
   48081   48042   48078   48144       1   48081   48150  -48201   48144       1
   48081   48150   48201   48225       1   48078   48042   48081   48150       1
   48078   48144  -48201   48150       1   48078   48144   48201   48225       1
   48075   48039   48072   48132       1   48075   48138  -48192   48132       1
   48075   48138   48192   48222       1   48072   48039   48075   48138       1
   48072   48132  -48192   48138       1   48072   48132   48192   48222       1
   48069   48033   48066   48120       1   48069   48126  -48183   48120       1
   48069   48126   48183   48219       1   48066   48033   48069   48126       1
   48066   48120  -48183   48126       1   48066   48120   48183   48219       1
   48063   48030   48060   48108       1   48063   48114  -48177   48108       1
   48063   48114   48177   48216       1   48060   48030   48063   48114       1
   48060   48108  -48177   48114       1   48060   48108   48177   48216       1
   48057   48027   48054   48099       1   48057   48105  -48165   48099       1
   48057   48105   48165   48213       1   48054   48027   48057   48105       1
   48054   48099  -48165   48105       1   48054   48099   48165   48213       1
   48051   48024   48048   48084       1   48051   48090  -48156   48084       1
   48051   48090   48156   48210       1   48048   48024   48051   48090       1
   48048   48084  -48156   48090       1   48048   48084   48156   48210       1
   48042   48015   48039   48072       4   48042   48015   48039   48075       4
   48042   48078   48144   48201       1   48042   48081  -48150   48201       1
   48039   48015   48042   48078       4   48039   48015   48042   48081       4
   48039   48072   48132   48192       1   48039   48075  -48138   48192       1
   48033   48006   48030   48060       4   48033   48006   48030   48063       4
   48033   48066   48120   48183       1   48033   48069  -48126   48183       1
   48030   48006   48033   48066       4   48030   48006   48033   48069       4
   48030   48060   48108   48177       1   48030   48063  -48114   48177       1
   48027   48003   48024   48048       4   48027   48003   48024   48051       4
   48027   48054   48099   48165       1   48027   48057  -48105   48165       1
   48024   48003   48027   48054       4   48024   48003   48027   48057       4
   48024   48048   48084   48156       1   48024   48051  -48090   48156       1
   48018   47985   48015   48039       4   48018   47985   48015   48042       4
   48015   48039   48072   48132       1   48015   48039   48075   48138       1
   48015   48042   48078   48144       1   48015   48042   48081   48150       1
   48009   47973   48006   48030       4   48009   47973   48006   48033       4
   48006   48030   48060   48108       1   48006   48030   48063   48114       1
   48006   48033   48066   48120       1   48006   48033   48069   48126       1
   48003   48024   48048   48084       1   48003   48024   48051   48090       1
   48003   48027   48054   48099       1   48003   48027   48057   48105       1
   47988   48018   47985   48015       1   47985   48015   48039   48072       4
   47985   48015   48039   48075       4   47985   48015   48042   48078       4
   47985   48015   48042   48081       4   47979   47949   47955   47988       5
   47979   48009   47973   48006       1   47973   48006   48030   48060       4
   47973   48006   48030   48063       4   47973   48006   48033   48066       4
   47973   48006   48033   48069       4   47967   48003   48024   48048       4
   47967   48003   48024   48051       4   47967   48003   48027   48054       4
   47967   48003   48027   48057       4   47961   47967   48003   48024       4
   47961   47967   48003   48027       4   47955   47934   47952   47985       1
   47955   47949   47979   48009       1   47955   47988  -48018   47985       1
   47952   47934   47955   47988       1   47952   47985   48015   48039       4
   47952   47985   48015   48042       4   47952   47985  -48018   47988       1
   47949   47931   47946   47973       1   47949   47955   47934   47952       1
   47949   47955   47988   48018       1   47949   47979  -48009   47973       1
   47946   47931   47949   47955       1   47946   47931   47949   47979       1
   47946   47973   48006   48030       4   47946   47973   48006   48033       4
   47946   47973  -48009   47979       1   47943   47967   48003   48024       4
   47943   47967   48003   48027       4   47940   47925   47928   47943       1
   47940   47961  -47967   47943       1   47940   47961   47967   48003       1
   47934   47910   47928   47943       6   47934   47910   47931   47946       6
   47934   47910  -47931   47949       7   47934   47952   47985   48015       1
   47934   47952   47985   48018       1   47934   47955   47949   47979       5
   47934   47955  -47988   48018       1   47931   47910   47928   47943       6
   47931   47910   47934   47952       6   47931   47910  -47934   47955       7
   47931   47946   47973   48006       1   47931   47946   47973   48009       1
   47931   47949  -47955   47934       5   47931   47949   47955   47988       5
   47931   47949  -47979   48009       1   47928   47910   47931   47946       6
   47928   47910   47931   47949       7   47928   47910   47934   47952       6
   47928   47910   47934   47955       7   47928   47925   47940   47961       1
   47928   47943  -47967   47961       1   47928   47943   47967   48003       1
   47925   47928   47910   47931       7   47925   47928   47910   47934       7
   47925   47928   47943   47967       1   47925   47940  -47961   47967       1
   47910   47883  -47907   47925       1   47910   47928   47925   47940       1
   47910   47928   47943   47967       1   47910   47931   47946   47973       1
   47910   47931  -47949   47955       1   47910   47931   47949   47979       1
   47910   47934   47952   47985       1   47910   47934  -47955   47949       1
   47910   47934   47955   47988       1   47907   47883  -47910   47928       7
   47907   47883   47910   47931       7   47907   47883   47910   47934       7
   47907   47925  -47928   47910       1   47907   47925   47928   47943       1
   47907   47925   47940   47961       1   47901   47916   47937   47958       3
   47895   47916   47937   47958       3   47889   47907   47883   47910       1
   47889   47907   47925   47928       5   47889   47907   47925   47940       5
   47883   47907  -47925   47928       5   47883   47907   47925   47940       5
   47883   47910  -47928   47925       7   47883   47910   47928   47943       6
   47883   47910   47931   47946       6   47883   47910   47931   47949       7
   47883   47910   47934   47952       6   47883   47910   47934   47955       7
   47880   47868   47877   47895       1   47880   47901  -47916   47895       1
   47880   47901   47916   47937       1   47877   47868   47880   47901       1
   47877   47895  -47916   47901       1   47877   47895   47916   47937       1
   47874   47865   47871   47883       1   47874   47889  -47907   47883       1
   47874   47889   47907   47925       1   47871   47865   47874   47889       1
   47871   47883  -47907   47889       1   47871   47883   47907   47925       1
   47871   47883   47910   47928       6   47871   47883   47910   47931       6
   47871   47883   47910   47934       6   47868   47862   47865   47871       4
   47868   47862   47865   47874       4   47868   47877   47895   47916       1
   47868   47880  -47901   47916       1   47865   47862   47868   47877       4
   47865   47862   47868   47880       4   47865   47871   47883   47907       1
   47865   47871   47883   47910       1   47865   47874  -47889   47907       1
   47862   47865   47871   47883       1   47862   47865   47874   47889       1
   47862   47868   47877   47895       1   47862   47868   47880   47901       1
   47853   47862   47865   47871       4   47853   47862   47865   47874       4
   47853   47862   47868   47877       4   47853   47862   47868   47880       4
   47847   47853   47862   47865       4   47847   47853   47862   47868       4
   47841   47853   47862   47865       4   47841   47853   47862   47868       4
   47829   47820   47826   47841       1   47829   47847  -47853   47841       1
   47829   47847   47853   47862       1   47826   47820   47829   47847       1
   47826   47841  -47853   47847       1   47826   47841   47853   47862       1
   47823   47817   47820   47826       3   47823   47817   47820   47829       3
   47820   47826   47841   47853       1   47820   47829  -47847   47853       1
   47817   47820   47826   47841       1   47817   47820   47829   47847       1
   48633   48684   48708   48726       3   48627   48684   48708   48726       3
   48621   48675   48705   48723       3   48615   48675   48705   48723       3
   48609   48666   48702   48720       3   48603   48666   48702   48720       3
   48597   48660   48699   48717       3   48591   48660   48699   48717       3
   48588   48648   48696   48714       3   48582   48648   48696   48714       3
   48573   48639   48693   48711       3   48567   48639   48693   48711       3
   48564   48525   48561   48627       1   48564   48633  -48684   48627       1
   48564   48633   48684   48708       1   48561   48525   48564   48633       1
   48561   48627  -48684   48633       1   48561   48627   48684   48708       1
   48558   48522   48555   48615       1   48558   48621  -48675   48615       1
   48558   48621   48675   48705       1   48555   48522   48558   48621       1
   48555   48615  -48675   48621       1   48555   48615   48675   48705       1
   48552   48516   48549   48603       1   48552   48609  -48666   48603       1
   48552   48609   48666   48702       1   48549   48516   48552   48609       1
   48549   48603  -48666   48609       1   48549   48603   48666   48702       1
   48546   48513   48543   48591       1   48546   48597  -48660   48591       1
   48546   48597   48660   48699       1   48543   48513   48546   48597       1
   48543   48591  -48660   48597       1   48543   48591   48660   48699       1
   48540   48510   48537   48582       1   48540   48588  -48648   48582       1
   48540   48588   48648   48696       1   48537   48510   48540   48588       1
   48537   48582  -48648   48588       1   48537   48582   48648   48696       1
   48534   48507   48531   48567       1   48534   48573  -48639   48567       1
   48534   48573   48639   48693       1   48531   48507   48534   48573       1
   48531   48567  -48639   48573       1   48531   48567   48639   48693       1
   48525   48498   48522   48555       4   48525   48498   48522   48558       4
   48525   48561   48627   48684       1   48525   48564  -48633   48684       1
   48522   48498   48525   48561       4   48522   48498   48525   48564       4
   48522   48555   48615   48675       1   48522   48558  -48621   48675       1
   48516   48489   48513   48543       4   48516   48489   48513   48546       4
   48516   48549   48603   48666       1   48516   48552  -48609   48666       1
   48513   48489   48516   48549       4   48513   48489   48516   48552       4
   48513   48543   48591   48660       1   48513   48546  -48597   48660       1
   48510   48486   48507   48531       4   48510   48486   48507   48534       4
   48510   48537   48582   48648       1   48510   48540  -48588   48648       1
   48507   48486   48510   48537       4   48507   48486   48510   48540       4
   48507   48531   48567   48639       1   48507   48534  -48573   48639       1
   48501   48468   48498   48522       4   48501   48468   48498   48525       4
   48498   48522   48555   48615       1   48498   48522   48558   48621       1
   48498   48525   48561   48627       1   48498   48525   48564   48633       1
   48492   48456   48489   48513       4   48492   48456   48489   48516       4
   48489   48513   48543   48591       1   48489   48513   48546   48597       1
   48489   48516   48549   48603       1   48489   48516   48552   48609       1
   48486   48507   48531   48567       1   48486   48507   48534   48573       1
   48486   48510   48537   48582       1   48486   48510   48540   48588       1
   48471   48501   48468   48498       1   48468   48498   48522   48555       4
   48468   48498   48522   48558       4   48468   48498   48525   48561       4
   48468   48498   48525   48564       4   48462   48432   48438   48471       5
   48462   48492   48456   48489       1   48456   48489   48513   48543       4
   48456   48489   48513   48546       4   48456   48489   48516   48549       4
   48456   48489   48516   48552       4   48450   48486   48507   48531       4
   48450   48486   48507   48534       4   48450   48486   48510   48537       4
   48450   48486   48510   48540       4   48444   48450   48486   48507       4
   48444   48450   48486   48510       4   48438   48417   48435   48468       1
   48438   48432   48462   48492       1   48438   48471  -48501   48468       1
   48435   48417   48438   48471       1   48435   48468   48498   48522       4
   48435   48468   48498   48525       4   48435   48468  -48501   48471       1
   48432   48414   48429   48456       1   48432   48438   48417   48435       1
   48432   48438   48471   48501       1   48432   48462  -48492   48456       1
   48429   48414   48432   48438       1   48429   48414   48432   48462       1
   48429   48456   48489   48513       4   48429   48456   48489   48516       4
   48429   48456  -48492   48462       1   48426   48450   48486   48507       4
   48426   48450   48486   48510       4   48423   48408   48411   48426       1
   48423   48444  -48450   48426       1   48423   48444   48450   48486       1
   48417   48393   48411   48426       6   48417   48393   48414   48429       6
   48417   48393  -48414   48432       7   48417   48435   48468   48498       1
   48417   48435   48468   48501       1   48417   48438   48432   48462       5
   48417   48438  -48471   48501       1   48414   48393   48411   48426       6
   48414   48393   48417   48435       6   48414   48393  -48417   48438       7
   48414   48429   48456   48489       1   48414   48429   48456   48492       1
   48414   48432  -48438   48417       5   48414   48432   48438   48471       5
   48414   48432  -48462   48492       1   48411   48393   48414   48429       6
   48411   48393   48414   48432       7   48411   48393   48417   48435       6
   48411   48393   48417   48438       7   48411   48408   48423   48444       1
   48411   48426  -48450   48444       1   48411   48426   48450   48486       1
   48408   48411   48393   48414       7   48408   48411   48393   48417       7
   48408   48411   48426   48450       1   48408   48423  -48444   48450       1
   48393   48366  -48390   48408       1   48393   48411   48408   48423       1
   48393   48411   48426   48450       1   48393   48414   48429   48456       1
   48393   48414  -48432   48438       1   48393   48414   48432   48462       1
   48393   48417   48435   48468       1   48393   48417  -48438   48432       1
   48393   48417   48438   48471       1   48390   48366  -48393   48411       7
   48390   48366   48393   48414       7   48390   48366   48393   48417       7
   48390   48408  -48411   48393       1   48390   48408   48411   48426       1
   48390   48408   48423   48444       1   48384   48399   48420   48441       3
   48378   48399   48420   48441       3   48372   48390   48366   48393       1
   48372   48390   48408   48411       5   48372   48390   48408   48423       5
   48366   48390  -48408   48411       5   48366   48390   48408   48423       5
   48366   48393  -48411   48408       7   48366   48393   48411   48426       6
   48366   48393   48414   48429       6   48366   48393   48414   48432       7
   48366   48393   48417   48435       6   48366   48393   48417   48438       7
   48363   48351   48360   48378       1   48363   48384  -48399   48378       1
   48363   48384   48399   48420       1   48360   48351   48363   48384       1
   48360   48378  -48399   48384       1   48360   48378   48399   48420       1
   48357   48348   48354   48366       1   48357   48372  -48390   48366       1
   48357   48372   48390   48408       1   48354   48348   48357   48372       1
   48354   48366  -48390   48372       1   48354   48366   48390   48408       1
   48354   48366   48393   48411       6   48354   48366   48393   48414       6
   48354   48366   48393   48417       6   48351   48345   48348   48354       4
   48351   48345   48348   48357       4   48351   48360   48378   48399       1
   48351   48363  -48384   48399       1   48348   48345   48351   48360       4
   48348   48345   48351   48363       4   48348   48354   48366   48390       1
   48348   48354   48366   48393       1   48348   48357  -48372   48390       1
   48345   48348   48354   48366       1   48345   48348   48357   48372       1
   48345   48351   48360   48378       1   48345   48351   48363   48384       1
   48336   48345   48348   48354       4   48336   48345   48348   48357       4
   48336   48345   48351   48360       4   48336   48345   48351   48363       4
   48330   48336   48345   48348       4   48330   48336   48345   48351       4
   48324   48336   48345   48348       4   48324   48336   48345   48351       4
   48312   48303   48309   48324       1   48312   48330  -48336   48324       1
   48312   48330   48336   48345       1   48309   48303   48312   48330       1
   48309   48324  -48336   48330       1   48309   48324   48336   48345       1
   48306   48300   48303   48309       3   48306   48300   48303   48312       3
   48303   48309   48324   48336       1   48303   48312  -48330   48336       1
   48300   48303   48309   48324       1   48300   48303   48312   48330       1
   49116   49167   49191   49209       3   49110   49167   49191   49209       3
   49104   49158   49188   49206       3   49098   49158   49188   49206       3
   49092   49149   49185   49203       3   49086   49149   49185   49203       3
   49080   49143   49182   49200       3   49074   49143   49182   49200       3
   49071   49131   49179   49197       3   49065   49131   49179   49197       3
   49056   49122   49176   49194       3   49050   49122   49176   49194       3
   49047   49008   49044   49110       1   49047   49116  -49167   49110       1
   49047   49116   49167   49191       1   49044   49008   49047   49116       1
   49044   49110  -49167   49116       1   49044   49110   49167   49191       1
   49041   49005   49038   49098       1   49041   49104  -49158   49098       1
   49041   49104   49158   49188       1   49038   49005   49041   49104       1
   49038   49098  -49158   49104       1   49038   49098   49158   49188       1
   49035   48999   49032   49086       1   49035   49092  -49149   49086       1
   49035   49092   49149   49185       1   49032   48999   49035   49092       1
   49032   49086  -49149   49092       1   49032   49086   49149   49185       1
   49029   48996   49026   49074       1   49029   49080  -49143   49074       1
   49029   49080   49143   49182       1   49026   48996   49029   49080       1
   49026   49074  -49143   49080       1   49026   49074   49143   49182       1
   49023   48993   49020   49065       1   49023   49071  -49131   49065       1
   49023   49071   49131   49179       1   49020   48993   49023   49071       1
   49020   49065  -49131   49071       1   49020   49065   49131   49179       1
   49017   48990   49014   49050       1   49017   49056  -49122   49050       1
   49017   49056   49122   49176       1   49014   48990   49017   49056       1
   49014   49050  -49122   49056       1   49014   49050   49122   49176       1
   49008   48981   49005   49038       4   49008   48981   49005   49041       4
   49008   49044   49110   49167       1   49008   49047  -49116   49167       1
   49005   48981   49008   49044       4   49005   48981   49008   49047       4
   49005   49038   49098   49158       1   49005   49041  -49104   49158       1
   48999   48972   48996   49026       4   48999   48972   48996   49029       4
   48999   49032   49086   49149       1   48999   49035  -49092   49149       1
   48996   48972   48999   49032       4   48996   48972   48999   49035       4
   48996   49026   49074   49143       1   48996   49029  -49080   49143       1
   48993   48969   48990   49014       4   48993   48969   48990   49017       4
   48993   49020   49065   49131       1   48993   49023  -49071   49131       1
   48990   48969   48993   49020       4   48990   48969   48993   49023       4
   48990   49014   49050   49122       1   48990   49017  -49056   49122       1
   48984   48951   48981   49005       4   48984   48951   48981   49008       4
   48981   49005   49038   49098       1   48981   49005   49041   49104       1
   48981   49008   49044   49110       1   48981   49008   49047   49116       1
   48975   48939   48972   48996       4   48975   48939   48972   48999       4
   48972   48996   49026   49074       1   48972   48996   49029   49080       1
   48972   48999   49032   49086       1   48972   48999   49035   49092       1
   48969   48990   49014   49050       1   48969   48990   49017   49056       1
   48969   48993   49020   49065       1   48969   48993   49023   49071       1
   48954   48984   48951   48981       1   48951   48981   49005   49038       4
   48951   48981   49005   49041       4   48951   48981   49008   49044       4
   48951   48981   49008   49047       4   48945   48915   48921   48954       5
   48945   48975   48939   48972       1   48939   48972   48996   49026       4
   48939   48972   48996   49029       4   48939   48972   48999   49032       4
   48939   48972   48999   49035       4   48933   48969   48990   49014       4
   48933   48969   48990   49017       4   48933   48969   48993   49020       4
   48933   48969   48993   49023       4   48927   48933   48969   48990       4
   48927   48933   48969   48993       4   48921   48900   48918   48951       1
   48921   48915   48945   48975       1   48921   48954  -48984   48951       1
   48918   48900   48921   48954       1   48918   48951   48981   49005       4
   48918   48951   48981   49008       4   48918   48951  -48984   48954       1
   48915   48897   48912   48939       1   48915   48921   48900   48918       1
   48915   48921   48954   48984       1   48915   48945  -48975   48939       1
   48912   48897   48915   48921       1   48912   48897   48915   48945       1
   48912   48939   48972   48996       4   48912   48939   48972   48999       4
   48912   48939  -48975   48945       1   48909   48933   48969   48990       4
   48909   48933   48969   48993       4   48906   48891   48894   48909       1
   48906   48927  -48933   48909       1   48906   48927   48933   48969       1
   48900   48876   48894   48909       6   48900   48876   48897   48912       6
   48900   48876  -48897   48915       7   48900   48918   48951   48981       1
   48900   48918   48951   48984       1   48900   48921   48915   48945       5
   48900   48921  -48954   48984       1   48897   48876   48894   48909       6
   48897   48876   48900   48918       6   48897   48876  -48900   48921       7
   48897   48912   48939   48972       1   48897   48912   48939   48975       1
   48897   48915  -48921   48900       5   48897   48915   48921   48954       5
   48897   48915  -48945   48975       1   48894   48876   48897   48912       6
   48894   48876   48897   48915       7   48894   48876   48900   48918       6
   48894   48876   48900   48921       7   48894   48891   48906   48927       1
   48894   48909  -48933   48927       1   48894   48909   48933   48969       1
   48891   48894   48876   48897       7   48891   48894   48876   48900       7
   48891   48894   48909   48933       1   48891   48906  -48927   48933       1
   48876   48849  -48873   48891       1   48876   48894   48891   48906       1
   48876   48894   48909   48933       1   48876   48897   48912   48939       1
   48876   48897  -48915   48921       1   48876   48897   48915   48945       1
   48876   48900   48918   48951       1   48876   48900  -48921   48915       1
   48876   48900   48921   48954       1   48873   48849  -48876   48894       7
   48873   48849   48876   48897       7   48873   48849   48876   48900       7
   48873   48891  -48894   48876       1   48873   48891   48894   48909       1
   48873   48891   48906   48927       1   48867   48882   48903   48924       3
   48861   48882   48903   48924       3   48855   48873   48849   48876       1
   48855   48873   48891   48894       5   48855   48873   48891   48906       5
   48849   48873  -48891   48894       5   48849   48873   48891   48906       5
   48849   48876  -48894   48891       7   48849   48876   48894   48909       6
   48849   48876   48897   48912       6   48849   48876   48897   48915       7
   48849   48876   48900   48918       6   48849   48876   48900   48921       7
   48846   48834   48843   48861       1   48846   48867  -48882   48861       1
   48846   48867   48882   48903       1   48843   48834   48846   48867       1
   48843   48861  -48882   48867       1   48843   48861   48882   48903       1
   48840   48831   48837   48849       1   48840   48855  -48873   48849       1
   48840   48855   48873   48891       1   48837   48831   48840   48855       1
   48837   48849  -48873   48855       1   48837   48849   48873   48891       1
   48837   48849   48876   48894       6   48837   48849   48876   48897       6
   48837   48849   48876   48900       6   48834   48828   48831   48837       4
   48834   48828   48831   48840       4   48834   48843   48861   48882       1
   48834   48846  -48867   48882       1   48831   48828   48834   48843       4
   48831   48828   48834   48846       4   48831   48837   48849   48873       1
   48831   48837   48849   48876       1   48831   48840  -48855   48873       1
   48828   48831   48837   48849       1   48828   48831   48840   48855       1
   48828   48834   48843   48861       1   48828   48834   48846   48867       1
   48819   48828   48831   48837       4   48819   48828   48831   48840       4
   48819   48828   48834   48843       4   48819   48828   48834   48846       4
   48813   48819   48828   48831       4   48813   48819   48828   48834       4
   48807   48819   48828   48831       4   48807   48819   48828   48834       4
   48795   48786   48792   48807       1   48795   48813  -48819   48807       1
   48795   48813   48819   48828       1   48792   48786   48795   48813       1
   48792   48807  -48819   48813       1   48792   48807   48819   48828       1
   48789   48783   48786   48792       3   48789   48783   48786   48795       3
   48786   48792   48807   48819       1   48786   48795  -48813   48819       1
   48783   48786   48792   48807       1   48783   48786   48795   48813       1
   49599   49650   49674   49692       3   49593   49650   49674   49692       3
   49587   49641   49671   49689       3   49581   49641   49671   49689       3
   49575   49632   49668   49686       3   49569   49632   49668   49686       3
   49563   49626   49665   49683       3   49557   49626   49665   49683       3
   49554   49614   49662   49680       3   49548   49614   49662   49680       3
   49539   49605   49659   49677       3   49533   49605   49659   49677       3
   49530   49491   49527   49593       1   49530   49599  -49650   49593       1
   49530   49599   49650   49674       1   49527   49491   49530   49599       1
   49527   49593  -49650   49599       1   49527   49593   49650   49674       1
   49524   49488   49521   49581       1   49524   49587  -49641   49581       1
   49524   49587   49641   49671       1   49521   49488   49524   49587       1
   49521   49581  -49641   49587       1   49521   49581   49641   49671       1
   49518   49482   49515   49569       1   49518   49575  -49632   49569       1
   49518   49575   49632   49668       1   49515   49482   49518   49575       1
   49515   49569  -49632   49575       1   49515   49569   49632   49668       1
   49512   49479   49509   49557       1   49512   49563  -49626   49557       1
   49512   49563   49626   49665       1   49509   49479   49512   49563       1
   49509   49557  -49626   49563       1   49509   49557   49626   49665       1
   49506   49476   49503   49548       1   49506   49554  -49614   49548       1
   49506   49554   49614   49662       1   49503   49476   49506   49554       1
   49503   49548  -49614   49554       1   49503   49548   49614   49662       1
   49500   49473   49497   49533       1   49500   49539  -49605   49533       1
   49500   49539   49605   49659       1   49497   49473   49500   49539       1
   49497   49533  -49605   49539       1   49497   49533   49605   49659       1
   49491   49464   49488   49521       4   49491   49464   49488   49524       4
   49491   49527   49593   49650       1   49491   49530  -49599   49650       1
   49488   49464   49491   49527       4   49488   49464   49491   49530       4
   49488   49521   49581   49641       1   49488   49524  -49587   49641       1
   49482   49455   49479   49509       4   49482   49455   49479   49512       4
   49482   49515   49569   49632       1   49482   49518  -49575   49632       1
   49479   49455   49482   49515       4   49479   49455   49482   49518       4
   49479   49509   49557   49626       1   49479   49512  -49563   49626       1
   49476   49452   49473   49497       4   49476   49452   49473   49500       4
   49476   49503   49548   49614       1   49476   49506  -49554   49614       1
   49473   49452   49476   49503       4   49473   49452   49476   49506       4
   49473   49497   49533   49605       1   49473   49500  -49539   49605       1
   49467   49434   49464   49488       4   49467   49434   49464   49491       4
   49464   49488   49521   49581       1   49464   49488   49524   49587       1
   49464   49491   49527   49593       1   49464   49491   49530   49599       1
   49458   49422   49455   49479       4   49458   49422   49455   49482       4
   49455   49479   49509   49557       1   49455   49479   49512   49563       1
   49455   49482   49515   49569       1   49455   49482   49518   49575       1
   49452   49473   49497   49533       1   49452   49473   49500   49539       1
   49452   49476   49503   49548       1   49452   49476   49506   49554       1
   49437   49467   49434   49464       1   49434   49464   49488   49521       4
   49434   49464   49488   49524       4   49434   49464   49491   49527       4
   49434   49464   49491   49530       4   49428   49398   49404   49437       5
   49428   49458   49422   49455       1   49422   49455   49479   49509       4
   49422   49455   49479   49512       4   49422   49455   49482   49515       4
   49422   49455   49482   49518       4   49416   49452   49473   49497       4
   49416   49452   49473   49500       4   49416   49452   49476   49503       4
   49416   49452   49476   49506       4   49410   49416   49452   49473       4
   49410   49416   49452   49476       4   49404   49383   49401   49434       1
   49404   49398   49428   49458       1   49404   49437  -49467   49434       1
   49401   49383   49404   49437       1   49401   49434   49464   49488       4
   49401   49434   49464   49491       4   49401   49434  -49467   49437       1
   49398   49380   49395   49422       1   49398   49404   49383   49401       1
   49398   49404   49437   49467       1   49398   49428  -49458   49422       1
   49395   49380   49398   49404       1   49395   49380   49398   49428       1
   49395   49422   49455   49479       4   49395   49422   49455   49482       4
   49395   49422  -49458   49428       1   49392   49416   49452   49473       4
   49392   49416   49452   49476       4   49389   49374   49377   49392       1
   49389   49410  -49416   49392       1   49389   49410   49416   49452       1
   49383   49359   49377   49392       6   49383   49359   49380   49395       6
   49383   49359  -49380   49398       7   49383   49401   49434   49464       1
   49383   49401   49434   49467       1   49383   49404   49398   49428       5
   49383   49404  -49437   49467       1   49380   49359   49377   49392       6
   49380   49359   49383   49401       6   49380   49359  -49383   49404       7
   49380   49395   49422   49455       1   49380   49395   49422   49458       1
   49380   49398  -49404   49383       5   49380   49398   49404   49437       5
   49380   49398  -49428   49458       1   49377   49359   49380   49395       6
   49377   49359   49380   49398       7   49377   49359   49383   49401       6
   49377   49359   49383   49404       7   49377   49374   49389   49410       1
   49377   49392  -49416   49410       1   49377   49392   49416   49452       1
   49374   49377   49359   49380       7   49374   49377   49359   49383       7
   49374   49377   49392   49416       1   49374   49389  -49410   49416       1
   49359   49332  -49356   49374       1   49359   49377   49374   49389       1
   49359   49377   49392   49416       1   49359   49380   49395   49422       1
   49359   49380  -49398   49404       1   49359   49380   49398   49428       1
   49359   49383   49401   49434       1   49359   49383  -49404   49398       1
   49359   49383   49404   49437       1   49356   49332  -49359   49377       7
   49356   49332   49359   49380       7   49356   49332   49359   49383       7
   49356   49374  -49377   49359       1   49356   49374   49377   49392       1
   49356   49374   49389   49410       1   49350   49365   49386   49407       3
   49344   49365   49386   49407       3   49338   49356   49332   49359       1
   49338   49356   49374   49377       5   49338   49356   49374   49389       5
   49332   49356  -49374   49377       5   49332   49356   49374   49389       5
   49332   49359  -49377   49374       7   49332   49359   49377   49392       6
   49332   49359   49380   49395       6   49332   49359   49380   49398       7
   49332   49359   49383   49401       6   49332   49359   49383   49404       7
   49329   49317   49326   49344       1   49329   49350  -49365   49344       1
   49329   49350   49365   49386       1   49326   49317   49329   49350       1
   49326   49344  -49365   49350       1   49326   49344   49365   49386       1
   49323   49314   49320   49332       1   49323   49338  -49356   49332       1
   49323   49338   49356   49374       1   49320   49314   49323   49338       1
   49320   49332  -49356   49338       1   49320   49332   49356   49374       1
   49320   49332   49359   49377       6   49320   49332   49359   49380       6
   49320   49332   49359   49383       6   49317   49311   49314   49320       4
   49317   49311   49314   49323       4   49317   49326   49344   49365       1
   49317   49329  -49350   49365       1   49314   49311   49317   49326       4
   49314   49311   49317   49329       4   49314   49320   49332   49356       1
   49314   49320   49332   49359       1   49314   49323  -49338   49356       1
   49311   49314   49320   49332       1   49311   49314   49323   49338       1
   49311   49317   49326   49344       1   49311   49317   49329   49350       1
   49302   49311   49314   49320       4   49302   49311   49314   49323       4
   49302   49311   49317   49326       4   49302   49311   49317   49329       4
   49296   49302   49311   49314       4   49296   49302   49311   49317       4
   49290   49302   49311   49314       4   49290   49302   49311   49317       4
   49278   49269   49275   49290       1   49278   49296  -49302   49290       1
   49278   49296   49302   49311       1   49275   49269   49278   49296       1
   49275   49290  -49302   49296       1   49275   49290   49302   49311       1
   49272   49266   49269   49275       3   49272   49266   49269   49278       3
   49269   49275   49290   49302       1   49269   49278  -49296   49302       1
   49266   49269   49275   49290       1   49266   49269   49278   49296       1
   50082   50133   50157   50175       3   50076   50133   50157   50175       3
   50070   50124   50154   50172       3   50064   50124   50154   50172       3
   50058   50115   50151   50169       3   50052   50115   50151   50169       3
   50046   50109   50148   50166       3   50040   50109   50148   50166       3
   50037   50097   50145   50163       3   50031   50097   50145   50163       3
   50022   50088   50142   50160       3   50016   50088   50142   50160       3
   50013   49974   50010   50076       1   50013   50082  -50133   50076       1
   50013   50082   50133   50157       1   50010   49974   50013   50082       1
   50010   50076  -50133   50082       1   50010   50076   50133   50157       1
   50007   49971   50004   50064       1   50007   50070  -50124   50064       1
   50007   50070   50124   50154       1   50004   49971   50007   50070       1
   50004   50064  -50124   50070       1   50004   50064   50124   50154       1
   50001   49965   49998   50052       1   50001   50058  -50115   50052       1
   50001   50058   50115   50151       1   49998   49965   50001   50058       1
   49998   50052  -50115   50058       1   49998   50052   50115   50151       1
   49995   49962   49992   50040       1   49995   50046  -50109   50040       1
   49995   50046   50109   50148       1   49992   49962   49995   50046       1
   49992   50040  -50109   50046       1   49992   50040   50109   50148       1
   49989   49959   49986   50031       1   49989   50037  -50097   50031       1
   49989   50037   50097   50145       1   49986   49959   49989   50037       1
   49986   50031  -50097   50037       1   49986   50031   50097   50145       1
   49983   49956   49980   50016       1   49983   50022  -50088   50016       1
   49983   50022   50088   50142       1   49980   49956   49983   50022       1
   49980   50016  -50088   50022       1   49980   50016   50088   50142       1
   49974   49947   49971   50004       4   49974   49947   49971   50007       4
   49974   50010   50076   50133       1   49974   50013  -50082   50133       1
   49971   49947   49974   50010       4   49971   49947   49974   50013       4
   49971   50004   50064   50124       1   49971   50007  -50070   50124       1
   49965   49938   49962   49992       4   49965   49938   49962   49995       4
   49965   49998   50052   50115       1   49965   50001  -50058   50115       1
   49962   49938   49965   49998       4   49962   49938   49965   50001       4
   49962   49992   50040   50109       1   49962   49995  -50046   50109       1
   49959   49935   49956   49980       4   49959   49935   49956   49983       4
   49959   49986   50031   50097       1   49959   49989  -50037   50097       1
   49956   49935   49959   49986       4   49956   49935   49959   49989       4
   49956   49980   50016   50088       1   49956   49983  -50022   50088       1
   49950   49917   49947   49971       4   49950   49917   49947   49974       4
   49947   49971   50004   50064       1   49947   49971   50007   50070       1
   49947   49974   50010   50076       1   49947   49974   50013   50082       1
   49941   49905   49938   49962       4   49941   49905   49938   49965       4
   49938   49962   49992   50040       1   49938   49962   49995   50046       1
   49938   49965   49998   50052       1   49938   49965   50001   50058       1
   49935   49956   49980   50016       1   49935   49956   49983   50022       1
   49935   49959   49986   50031       1   49935   49959   49989   50037       1
   49920   49950   49917   49947       1   49917   49947   49971   50004       4
   49917   49947   49971   50007       4   49917   49947   49974   50010       4
   49917   49947   49974   50013       4   49911   49881   49887   49920       5
   49911   49941   49905   49938       1   49905   49938   49962   49992       4
   49905   49938   49962   49995       4   49905   49938   49965   49998       4
   49905   49938   49965   50001       4   49899   49935   49956   49980       4
   49899   49935   49956   49983       4   49899   49935   49959   49986       4
   49899   49935   49959   49989       4   49893   49899   49935   49956       4
   49893   49899   49935   49959       4   49887   49866   49884   49917       1
   49887   49881   49911   49941       1   49887   49920  -49950   49917       1
   49884   49866   49887   49920       1   49884   49917   49947   49971       4
   49884   49917   49947   49974       4   49884   49917  -49950   49920       1
   49881   49863   49878   49905       1   49881   49887   49866   49884       1
   49881   49887   49920   49950       1   49881   49911  -49941   49905       1
   49878   49863   49881   49887       1   49878   49863   49881   49911       1
   49878   49905   49938   49962       4   49878   49905   49938   49965       4
   49878   49905  -49941   49911       1   49875   49899   49935   49956       4
   49875   49899   49935   49959       4   49872   49857   49860   49875       1
   49872   49893  -49899   49875       1   49872   49893   49899   49935       1
   49866   49842   49860   49875       6   49866   49842   49863   49878       6
   49866   49842  -49863   49881       7   49866   49884   49917   49947       1
   49866   49884   49917   49950       1   49866   49887   49881   49911       5
   49866   49887  -49920   49950       1   49863   49842   49860   49875       6
   49863   49842   49866   49884       6   49863   49842  -49866   49887       7
   49863   49878   49905   49938       1   49863   49878   49905   49941       1
   49863   49881  -49887   49866       5   49863   49881   49887   49920       5
   49863   49881  -49911   49941       1   49860   49842   49863   49878       6
   49860   49842   49863   49881       7   49860   49842   49866   49884       6
   49860   49842   49866   49887       7   49860   49857   49872   49893       1
   49860   49875  -49899   49893       1   49860   49875   49899   49935       1
   49857   49860   49842   49863       7   49857   49860   49842   49866       7
   49857   49860   49875   49899       1   49857   49872  -49893   49899       1
   49842   49815  -49839   49857       1   49842   49860   49857   49872       1
   49842   49860   49875   49899       1   49842   49863   49878   49905       1
   49842   49863  -49881   49887       1   49842   49863   49881   49911       1
   49842   49866   49884   49917       1   49842   49866  -49887   49881       1
   49842   49866   49887   49920       1   49839   49815  -49842   49860       7
   49839   49815   49842   49863       7   49839   49815   49842   49866       7
   49839   49857  -49860   49842       1   49839   49857   49860   49875       1
   49839   49857   49872   49893       1   49833   49848   49869   49890       3
   49827   49848   49869   49890       3   49821   49839   49815   49842       1
   49821   49839   49857   49860       5   49821   49839   49857   49872       5
   49815   49839  -49857   49860       5   49815   49839   49857   49872       5
   49815   49842  -49860   49857       7   49815   49842   49860   49875       6
   49815   49842   49863   49878       6   49815   49842   49863   49881       7
   49815   49842   49866   49884       6   49815   49842   49866   49887       7
   49812   49800   49809   49827       1   49812   49833  -49848   49827       1
   49812   49833   49848   49869       1   49809   49800   49812   49833       1
   49809   49827  -49848   49833       1   49809   49827   49848   49869       1
   49806   49797   49803   49815       1   49806   49821  -49839   49815       1
   49806   49821   49839   49857       1   49803   49797   49806   49821       1
   49803   49815  -49839   49821       1   49803   49815   49839   49857       1
   49803   49815   49842   49860       6   49803   49815   49842   49863       6
   49803   49815   49842   49866       6   49800   49794   49797   49803       4
   49800   49794   49797   49806       4   49800   49809   49827   49848       1
   49800   49812  -49833   49848       1   49797   49794   49800   49809       4
   49797   49794   49800   49812       4   49797   49803   49815   49839       1
   49797   49803   49815   49842       1   49797   49806  -49821   49839       1
   49794   49797   49803   49815       1   49794   49797   49806   49821       1
   49794   49800   49809   49827       1   49794   49800   49812   49833       1
   49785   49794   49797   49803       4   49785   49794   49797   49806       4
   49785   49794   49800   49809       4   49785   49794   49800   49812       4
   49779   49785   49794   49797       4   49779   49785   49794   49800       4
   49773   49785   49794   49797       4   49773   49785   49794   49800       4
   49761   49752   49758   49773       1   49761   49779  -49785   49773       1
   49761   49779   49785   49794       1   49758   49752   49761   49779       1
   49758   49773  -49785   49779       1   49758   49773   49785   49794       1
   49755   49749   49752   49758       3   49755   49749   49752   49761       3
   49752   49758   49773   49785       1   49752   49761  -49779   49785       1
   49749   49752   49758   49773       1   49749   49752   49761   49779       1
   50565   50616   50640   50658       3   50559   50616   50640   50658       3
   50553   50607   50637   50655       3   50547   50607   50637   50655       3
   50541   50598   50634   50652       3   50535   50598   50634   50652       3
   50529   50592   50631   50649       3   50523   50592   50631   50649       3
   50520   50580   50628   50646       3   50514   50580   50628   50646       3
   50505   50571   50625   50643       3   50499   50571   50625   50643       3
   50496   50457   50493   50559       1   50496   50565  -50616   50559       1
   50496   50565   50616   50640       1   50493   50457   50496   50565       1
   50493   50559  -50616   50565       1   50493   50559   50616   50640       1
   50490   50454   50487   50547       1   50490   50553  -50607   50547       1
   50490   50553   50607   50637       1   50487   50454   50490   50553       1
   50487   50547  -50607   50553       1   50487   50547   50607   50637       1
   50484   50448   50481   50535       1   50484   50541  -50598   50535       1
   50484   50541   50598   50634       1   50481   50448   50484   50541       1
   50481   50535  -50598   50541       1   50481   50535   50598   50634       1
   50478   50445   50475   50523       1   50478   50529  -50592   50523       1
   50478   50529   50592   50631       1   50475   50445   50478   50529       1
   50475   50523  -50592   50529       1   50475   50523   50592   50631       1
   50472   50442   50469   50514       1   50472   50520  -50580   50514       1
   50472   50520   50580   50628       1   50469   50442   50472   50520       1
   50469   50514  -50580   50520       1   50469   50514   50580   50628       1
   50466   50439   50463   50499       1   50466   50505  -50571   50499       1
   50466   50505   50571   50625       1   50463   50439   50466   50505       1
   50463   50499  -50571   50505       1   50463   50499   50571   50625       1
   50457   50430   50454   50487       4   50457   50430   50454   50490       4
   50457   50493   50559   50616       1   50457   50496  -50565   50616       1
   50454   50430   50457   50493       4   50454   50430   50457   50496       4
   50454   50487   50547   50607       1   50454   50490  -50553   50607       1
   50448   50421   50445   50475       4   50448   50421   50445   50478       4
   50448   50481   50535   50598       1   50448   50484  -50541   50598       1
   50445   50421   50448   50481       4   50445   50421   50448   50484       4
   50445   50475   50523   50592       1   50445   50478  -50529   50592       1
   50442   50418   50439   50463       4   50442   50418   50439   50466       4
   50442   50469   50514   50580       1   50442   50472  -50520   50580       1
   50439   50418   50442   50469       4   50439   50418   50442   50472       4
   50439   50463   50499   50571       1   50439   50466  -50505   50571       1
   50433   50400   50430   50454       4   50433   50400   50430   50457       4
   50430   50454   50487   50547       1   50430   50454   50490   50553       1
   50430   50457   50493   50559       1   50430   50457   50496   50565       1
   50424   50388   50421   50445       4   50424   50388   50421   50448       4
   50421   50445   50475   50523       1   50421   50445   50478   50529       1
   50421   50448   50481   50535       1   50421   50448   50484   50541       1
   50418   50439   50463   50499       1   50418   50439   50466   50505       1
   50418   50442   50469   50514       1   50418   50442   50472   50520       1
   50403   50433   50400   50430       1   50400   50430   50454   50487       4
   50400   50430   50454   50490       4   50400   50430   50457   50493       4
   50400   50430   50457   50496       4   50394   50364   50370   50403       5
   50394   50424   50388   50421       1   50388   50421   50445   50475       4
   50388   50421   50445   50478       4   50388   50421   50448   50481       4
   50388   50421   50448   50484       4   50382   50418   50439   50463       4
   50382   50418   50439   50466       4   50382   50418   50442   50469       4
   50382   50418   50442   50472       4   50376   50382   50418   50439       4
   50376   50382   50418   50442       4   50370   50349   50367   50400       1
   50370   50364   50394   50424       1   50370   50403  -50433   50400       1
   50367   50349   50370   50403       1   50367   50400   50430   50454       4
   50367   50400   50430   50457       4   50367   50400  -50433   50403       1
   50364   50346   50361   50388       1   50364   50370   50349   50367       1
   50364   50370   50403   50433       1   50364   50394  -50424   50388       1
   50361   50346   50364   50370       1   50361   50346   50364   50394       1
   50361   50388   50421   50445       4   50361   50388   50421   50448       4
   50361   50388  -50424   50394       1   50358   50382   50418   50439       4
   50358   50382   50418   50442       4   50355   50340   50343   50358       1
   50355   50376  -50382   50358       1   50355   50376   50382   50418       1
   50349   50325   50343   50358       6   50349   50325   50346   50361       6
   50349   50325  -50346   50364       7   50349   50367   50400   50430       1
   50349   50367   50400   50433       1   50349   50370   50364   50394       5
   50349   50370  -50403   50433       1   50346   50325   50343   50358       6
   50346   50325   50349   50367       6   50346   50325  -50349   50370       7
   50346   50361   50388   50421       1   50346   50361   50388   50424       1
   50346   50364  -50370   50349       5   50346   50364   50370   50403       5
   50346   50364  -50394   50424       1   50343   50325   50346   50361       6
   50343   50325   50346   50364       7   50343   50325   50349   50367       6
   50343   50325   50349   50370       7   50343   50340   50355   50376       1
   50343   50358  -50382   50376       1   50343   50358   50382   50418       1
   50340   50343   50325   50346       7   50340   50343   50325   50349       7
   50340   50343   50358   50382       1   50340   50355  -50376   50382       1
   50325   50298  -50322   50340       1   50325   50343   50340   50355       1
   50325   50343   50358   50382       1   50325   50346   50361   50388       1
   50325   50346  -50364   50370       1   50325   50346   50364   50394       1
   50325   50349   50367   50400       1   50325   50349  -50370   50364       1
   50325   50349   50370   50403       1   50322   50298  -50325   50343       7
   50322   50298   50325   50346       7   50322   50298   50325   50349       7
   50322   50340  -50343   50325       1   50322   50340   50343   50358       1
   50322   50340   50355   50376       1   50316   50331   50352   50373       3
   50310   50331   50352   50373       3   50304   50322   50298   50325       1
   50304   50322   50340   50343       5   50304   50322   50340   50355       5
   50298   50322  -50340   50343       5   50298   50322   50340   50355       5
   50298   50325  -50343   50340       7   50298   50325   50343   50358       6
   50298   50325   50346   50361       6   50298   50325   50346   50364       7
   50298   50325   50349   50367       6   50298   50325   50349   50370       7
   50295   50283   50292   50310       1   50295   50316  -50331   50310       1
   50295   50316   50331   50352       1   50292   50283   50295   50316       1
   50292   50310  -50331   50316       1   50292   50310   50331   50352       1
   50289   50280   50286   50298       1   50289   50304  -50322   50298       1
   50289   50304   50322   50340       1   50286   50280   50289   50304       1
   50286   50298  -50322   50304       1   50286   50298   50322   50340       1
   50286   50298   50325   50343       6   50286   50298   50325   50346       6
   50286   50298   50325   50349       6   50283   50277   50280   50286       4
   50283   50277   50280   50289       4   50283   50292   50310   50331       1
   50283   50295  -50316   50331       1   50280   50277   50283   50292       4
   50280   50277   50283   50295       4   50280   50286   50298   50322       1
   50280   50286   50298   50325       1   50280   50289  -50304   50322       1
   50277   50280   50286   50298       1   50277   50280   50289   50304       1
   50277   50283   50292   50310       1   50277   50283   50295   50316       1
   50268   50277   50280   50286       4   50268   50277   50280   50289       4
   50268   50277   50283   50292       4   50268   50277   50283   50295       4
   50262   50268   50277   50280       4   50262   50268   50277   50283       4
   50256   50268   50277   50280       4   50256   50268   50277   50283       4
   50244   50235   50241   50256       1   50244   50262  -50268   50256       1
   50244   50262   50268   50277       1   50241   50235   50244   50262       1
   50241   50256  -50268   50262       1   50241   50256   50268   50277       1
   50238   50232   50235   50241       3   50238   50232   50235   50244       3
   50235   50241   50256   50268       1   50235   50244  -50262   50268       1
   50232   50235   50241   50256       1   50232   50235   50244   50262       1
   51048   51099   51123   51141       3   51042   51099   51123   51141       3
   51036   51090   51120   51138       3   51030   51090   51120   51138       3
   51024   51081   51117   51135       3   51018   51081   51117   51135       3
   51012   51075   51114   51132       3   51006   51075   51114   51132       3
   51003   51063   51111   51129       3   50997   51063   51111   51129       3
   50988   51054   51108   51126       3   50982   51054   51108   51126       3
   50979   50940   50976   51042       1   50979   51048  -51099   51042       1
   50979   51048   51099   51123       1   50976   50940   50979   51048       1
   50976   51042  -51099   51048       1   50976   51042   51099   51123       1
   50973   50937   50970   51030       1   50973   51036  -51090   51030       1
   50973   51036   51090   51120       1   50970   50937   50973   51036       1
   50970   51030  -51090   51036       1   50970   51030   51090   51120       1
   50967   50931   50964   51018       1   50967   51024  -51081   51018       1
   50967   51024   51081   51117       1   50964   50931   50967   51024       1
   50964   51018  -51081   51024       1   50964   51018   51081   51117       1
   50961   50928   50958   51006       1   50961   51012  -51075   51006       1
   50961   51012   51075   51114       1   50958   50928   50961   51012       1
   50958   51006  -51075   51012       1   50958   51006   51075   51114       1
   50955   50925   50952   50997       1   50955   51003  -51063   50997       1
   50955   51003   51063   51111       1   50952   50925   50955   51003       1
   50952   50997  -51063   51003       1   50952   50997   51063   51111       1
   50949   50922   50946   50982       1   50949   50988  -51054   50982       1
   50949   50988   51054   51108       1   50946   50922   50949   50988       1
   50946   50982  -51054   50988       1   50946   50982   51054   51108       1
   50940   50913   50937   50970       4   50940   50913   50937   50973       4
   50940   50976   51042   51099       1   50940   50979  -51048   51099       1
   50937   50913   50940   50976       4   50937   50913   50940   50979       4
   50937   50970   51030   51090       1   50937   50973  -51036   51090       1
   50931   50904   50928   50958       4   50931   50904   50928   50961       4
   50931   50964   51018   51081       1   50931   50967  -51024   51081       1
   50928   50904   50931   50964       4   50928   50904   50931   50967       4
   50928   50958   51006   51075       1   50928   50961  -51012   51075       1
   50925   50901   50922   50946       4   50925   50901   50922   50949       4
   50925   50952   50997   51063       1   50925   50955  -51003   51063       1
   50922   50901   50925   50952       4   50922   50901   50925   50955       4
   50922   50946   50982   51054       1   50922   50949  -50988   51054       1
   50916   50883   50913   50937       4   50916   50883   50913   50940       4
   50913   50937   50970   51030       1   50913   50937   50973   51036       1
   50913   50940   50976   51042       1   50913   50940   50979   51048       1
   50907   50871   50904   50928       4   50907   50871   50904   50931       4
   50904   50928   50958   51006       1   50904   50928   50961   51012       1
   50904   50931   50964   51018       1   50904   50931   50967   51024       1
   50901   50922   50946   50982       1   50901   50922   50949   50988       1
   50901   50925   50952   50997       1   50901   50925   50955   51003       1
   50886   50916   50883   50913       1   50883   50913   50937   50970       4
   50883   50913   50937   50973       4   50883   50913   50940   50976       4
   50883   50913   50940   50979       4   50877   50847   50853   50886       5
   50877   50907   50871   50904       1   50871   50904   50928   50958       4
   50871   50904   50928   50961       4   50871   50904   50931   50964       4
   50871   50904   50931   50967       4   50865   50901   50922   50946       4
   50865   50901   50922   50949       4   50865   50901   50925   50952       4
   50865   50901   50925   50955       4   50859   50865   50901   50922       4
   50859   50865   50901   50925       4   50853   50832   50850   50883       1
   50853   50847   50877   50907       1   50853   50886  -50916   50883       1
   50850   50832   50853   50886       1   50850   50883   50913   50937       4
   50850   50883   50913   50940       4   50850   50883  -50916   50886       1
   50847   50829   50844   50871       1   50847   50853   50832   50850       1
   50847   50853   50886   50916       1   50847   50877  -50907   50871       1
   50844   50829   50847   50853       1   50844   50829   50847   50877       1
   50844   50871   50904   50928       4   50844   50871   50904   50931       4
   50844   50871  -50907   50877       1   50841   50865   50901   50922       4
   50841   50865   50901   50925       4   50838   50823   50826   50841       1
   50838   50859  -50865   50841       1   50838   50859   50865   50901       1
   50832   50808   50826   50841       6   50832   50808   50829   50844       6
   50832   50808  -50829   50847       7   50832   50850   50883   50913       1
   50832   50850   50883   50916       1   50832   50853   50847   50877       5
   50832   50853  -50886   50916       1   50829   50808   50826   50841       6
   50829   50808   50832   50850       6   50829   50808  -50832   50853       7
   50829   50844   50871   50904       1   50829   50844   50871   50907       1
   50829   50847  -50853   50832       5   50829   50847   50853   50886       5
   50829   50847  -50877   50907       1   50826   50808   50829   50844       6
   50826   50808   50829   50847       7   50826   50808   50832   50850       6
   50826   50808   50832   50853       7   50826   50823   50838   50859       1
   50826   50841  -50865   50859       1   50826   50841   50865   50901       1
   50823   50826   50808   50829       7   50823   50826   50808   50832       7
   50823   50826   50841   50865       1   50823   50838  -50859   50865       1
   50808   50781  -50805   50823       1   50808   50826   50823   50838       1
   50808   50826   50841   50865       1   50808   50829   50844   50871       1
   50808   50829  -50847   50853       1   50808   50829   50847   50877       1
   50808   50832   50850   50883       1   50808   50832  -50853   50847       1
   50808   50832   50853   50886       1   50805   50781  -50808   50826       7
   50805   50781   50808   50829       7   50805   50781   50808   50832       7
   50805   50823  -50826   50808       1   50805   50823   50826   50841       1
   50805   50823   50838   50859       1   50799   50814   50835   50856       3
   50793   50814   50835   50856       3   50787   50805   50781   50808       1
   50787   50805   50823   50826       5   50787   50805   50823   50838       5
   50781   50805  -50823   50826       5   50781   50805   50823   50838       5
   50781   50808  -50826   50823       7   50781   50808   50826   50841       6
   50781   50808   50829   50844       6   50781   50808   50829   50847       7
   50781   50808   50832   50850       6   50781   50808   50832   50853       7
   50778   50766   50775   50793       1   50778   50799  -50814   50793       1
   50778   50799   50814   50835       1   50775   50766   50778   50799       1
   50775   50793  -50814   50799       1   50775   50793   50814   50835       1
   50772   50763   50769   50781       1   50772   50787  -50805   50781       1
   50772   50787   50805   50823       1   50769   50763   50772   50787       1
   50769   50781  -50805   50787       1   50769   50781   50805   50823       1
   50769   50781   50808   50826       6   50769   50781   50808   50829       6
   50769   50781   50808   50832       6   50766   50760   50763   50769       4
   50766   50760   50763   50772       4   50766   50775   50793   50814       1
   50766   50778  -50799   50814       1   50763   50760   50766   50775       4
   50763   50760   50766   50778       4   50763   50769   50781   50805       1
   50763   50769   50781   50808       1   50763   50772  -50787   50805       1
   50760   50763   50769   50781       1   50760   50763   50772   50787       1
   50760   50766   50775   50793       1   50760   50766   50778   50799       1
   50751   50760   50763   50769       4   50751   50760   50763   50772       4
   50751   50760   50766   50775       4   50751   50760   50766   50778       4
   50745   50751   50760   50763       4   50745   50751   50760   50766       4
   50739   50751   50760   50763       4   50739   50751   50760   50766       4
   50727   50718   50724   50739       1   50727   50745  -50751   50739       1
   50727   50745   50751   50760       1   50724   50718   50727   50745       1
   50724   50739  -50751   50745       1   50724   50739   50751   50760       1
   50721   50715   50718   50724       3   50721   50715   50718   50727       3
   50718   50724   50739   50751       1   50718   50727  -50745   50751       1
   50715   50718   50724   50739       1   50715   50718   50727   50745       1
   51531   51582   51606   51624       3   51525   51582   51606   51624       3
   51519   51573   51603   51621       3   51513   51573   51603   51621       3
   51507   51564   51600   51618       3   51501   51564   51600   51618       3
   51495   51558   51597   51615       3   51489   51558   51597   51615       3
   51486   51546   51594   51612       3   51480   51546   51594   51612       3
   51471   51537   51591   51609       3   51465   51537   51591   51609       3
   51462   51423   51459   51525       1   51462   51531  -51582   51525       1
   51462   51531   51582   51606       1   51459   51423   51462   51531       1
   51459   51525  -51582   51531       1   51459   51525   51582   51606       1
   51456   51420   51453   51513       1   51456   51519  -51573   51513       1
   51456   51519   51573   51603       1   51453   51420   51456   51519       1
   51453   51513  -51573   51519       1   51453   51513   51573   51603       1
   51450   51414   51447   51501       1   51450   51507  -51564   51501       1
   51450   51507   51564   51600       1   51447   51414   51450   51507       1
   51447   51501  -51564   51507       1   51447   51501   51564   51600       1
   51444   51411   51441   51489       1   51444   51495  -51558   51489       1
   51444   51495   51558   51597       1   51441   51411   51444   51495       1
   51441   51489  -51558   51495       1   51441   51489   51558   51597       1
   51438   51408   51435   51480       1   51438   51486  -51546   51480       1
   51438   51486   51546   51594       1   51435   51408   51438   51486       1
   51435   51480  -51546   51486       1   51435   51480   51546   51594       1
   51432   51405   51429   51465       1   51432   51471  -51537   51465       1
   51432   51471   51537   51591       1   51429   51405   51432   51471       1
   51429   51465  -51537   51471       1   51429   51465   51537   51591       1
   51423   51396   51420   51453       4   51423   51396   51420   51456       4
   51423   51459   51525   51582       1   51423   51462  -51531   51582       1
   51420   51396   51423   51459       4   51420   51396   51423   51462       4
   51420   51453   51513   51573       1   51420   51456  -51519   51573       1
   51414   51387   51411   51441       4   51414   51387   51411   51444       4
   51414   51447   51501   51564       1   51414   51450  -51507   51564       1
   51411   51387   51414   51447       4   51411   51387   51414   51450       4
   51411   51441   51489   51558       1   51411   51444  -51495   51558       1
   51408   51384   51405   51429       4   51408   51384   51405   51432       4
   51408   51435   51480   51546       1   51408   51438  -51486   51546       1
   51405   51384   51408   51435       4   51405   51384   51408   51438       4
   51405   51429   51465   51537       1   51405   51432  -51471   51537       1
   51399   51366   51396   51420       4   51399   51366   51396   51423       4
   51396   51420   51453   51513       1   51396   51420   51456   51519       1
   51396   51423   51459   51525       1   51396   51423   51462   51531       1
   51390   51354   51387   51411       4   51390   51354   51387   51414       4
   51387   51411   51441   51489       1   51387   51411   51444   51495       1
   51387   51414   51447   51501       1   51387   51414   51450   51507       1
   51384   51405   51429   51465       1   51384   51405   51432   51471       1
   51384   51408   51435   51480       1   51384   51408   51438   51486       1
   51369   51399   51366   51396       1   51366   51396   51420   51453       4
   51366   51396   51420   51456       4   51366   51396   51423   51459       4
   51366   51396   51423   51462       4   51360   51330   51336   51369       5
   51360   51390   51354   51387       1   51354   51387   51411   51441       4
   51354   51387   51411   51444       4   51354   51387   51414   51447       4
   51354   51387   51414   51450       4   51348   51384   51405   51429       4
   51348   51384   51405   51432       4   51348   51384   51408   51435       4
   51348   51384   51408   51438       4   51342   51348   51384   51405       4
   51342   51348   51384   51408       4   51336   51315   51333   51366       1
   51336   51330   51360   51390       1   51336   51369  -51399   51366       1
   51333   51315   51336   51369       1   51333   51366   51396   51420       4
   51333   51366   51396   51423       4   51333   51366  -51399   51369       1
   51330   51312   51327   51354       1   51330   51336   51315   51333       1
   51330   51336   51369   51399       1   51330   51360  -51390   51354       1
   51327   51312   51330   51336       1   51327   51312   51330   51360       1
   51327   51354   51387   51411       4   51327   51354   51387   51414       4
   51327   51354  -51390   51360       1   51324   51348   51384   51405       4
   51324   51348   51384   51408       4   51321   51306   51309   51324       1
   51321   51342  -51348   51324       1   51321   51342   51348   51384       1
   51315   51291   51309   51324       6   51315   51291   51312   51327       6
   51315   51291  -51312   51330       7   51315   51333   51366   51396       1
   51315   51333   51366   51399       1   51315   51336   51330   51360       5
   51315   51336  -51369   51399       1   51312   51291   51309   51324       6
   51312   51291   51315   51333       6   51312   51291  -51315   51336       7
   51312   51327   51354   51387       1   51312   51327   51354   51390       1
   51312   51330  -51336   51315       5   51312   51330   51336   51369       5
   51312   51330  -51360   51390       1   51309   51291   51312   51327       6
   51309   51291   51312   51330       7   51309   51291   51315   51333       6
   51309   51291   51315   51336       7   51309   51306   51321   51342       1
   51309   51324  -51348   51342       1   51309   51324   51348   51384       1
   51306   51309   51291   51312       7   51306   51309   51291   51315       7
   51306   51309   51324   51348       1   51306   51321  -51342   51348       1
   51291   51264  -51288   51306       1   51291   51309   51306   51321       1
   51291   51309   51324   51348       1   51291   51312   51327   51354       1
   51291   51312  -51330   51336       1   51291   51312   51330   51360       1
   51291   51315   51333   51366       1   51291   51315  -51336   51330       1
   51291   51315   51336   51369       1   51288   51264  -51291   51309       7
   51288   51264   51291   51312       7   51288   51264   51291   51315       7
   51288   51306  -51309   51291       1   51288   51306   51309   51324       1
   51288   51306   51321   51342       1   51282   51297   51318   51339       3
   51276   51297   51318   51339       3   51270   51288   51264   51291       1
   51270   51288   51306   51309       5   51270   51288   51306   51321       5
   51264   51288  -51306   51309       5   51264   51288   51306   51321       5
   51264   51291  -51309   51306       7   51264   51291   51309   51324       6
   51264   51291   51312   51327       6   51264   51291   51312   51330       7
   51264   51291   51315   51333       6   51264   51291   51315   51336       7
   51261   51249   51258   51276       1   51261   51282  -51297   51276       1
   51261   51282   51297   51318       1   51258   51249   51261   51282       1
   51258   51276  -51297   51282       1   51258   51276   51297   51318       1
   51255   51246   51252   51264       1   51255   51270  -51288   51264       1
   51255   51270   51288   51306       1   51252   51246   51255   51270       1
   51252   51264  -51288   51270       1   51252   51264   51288   51306       1
   51252   51264   51291   51309       6   51252   51264   51291   51312       6
   51252   51264   51291   51315       6   51249   51243   51246   51252       4
   51249   51243   51246   51255       4   51249   51258   51276   51297       1
   51249   51261  -51282   51297       1   51246   51243   51249   51258       4
   51246   51243   51249   51261       4   51246   51252   51264   51288       1
   51246   51252   51264   51291       1   51246   51255  -51270   51288       1
   51243   51246   51252   51264       1   51243   51246   51255   51270       1
   51243   51249   51258   51276       1   51243   51249   51261   51282       1
   51234   51243   51246   51252       4   51234   51243   51246   51255       4
   51234   51243   51249   51258       4   51234   51243   51249   51261       4
   51228   51234   51243   51246       4   51228   51234   51243   51249       4
   51222   51234   51243   51246       4   51222   51234   51243   51249       4
   51210   51201   51207   51222       1   51210   51228  -51234   51222       1
   51210   51228   51234   51243       1   51207   51201   51210   51228       1
   51207   51222  -51234   51228       1   51207   51222   51234   51243       1
   51204   51198   51201   51207       3   51204   51198   51201   51210       3
   51201   51207   51222   51234       1   51201   51210  -51228   51234       1
   51198   51201   51207   51222       1   51198   51201   51210   51228       1
   52014   52065   52089   52107       3   52008   52065   52089   52107       3
   52002   52056   52086   52104       3   51996   52056   52086   52104       3
   51990   52047   52083   52101       3   51984   52047   52083   52101       3
   51978   52041   52080   52098       3   51972   52041   52080   52098       3
   51969   52029   52077   52095       3   51963   52029   52077   52095       3
   51954   52020   52074   52092       3   51948   52020   52074   52092       3
   51945   51906   51942   52008       1   51945   52014  -52065   52008       1
   51945   52014   52065   52089       1   51942   51906   51945   52014       1
   51942   52008  -52065   52014       1   51942   52008   52065   52089       1
   51939   51903   51936   51996       1   51939   52002  -52056   51996       1
   51939   52002   52056   52086       1   51936   51903   51939   52002       1
   51936   51996  -52056   52002       1   51936   51996   52056   52086       1
   51933   51897   51930   51984       1   51933   51990  -52047   51984       1
   51933   51990   52047   52083       1   51930   51897   51933   51990       1
   51930   51984  -52047   51990       1   51930   51984   52047   52083       1
   51927   51894   51924   51972       1   51927   51978  -52041   51972       1
   51927   51978   52041   52080       1   51924   51894   51927   51978       1
   51924   51972  -52041   51978       1   51924   51972   52041   52080       1
   51921   51891   51918   51963       1   51921   51969  -52029   51963       1
   51921   51969   52029   52077       1   51918   51891   51921   51969       1
   51918   51963  -52029   51969       1   51918   51963   52029   52077       1
   51915   51888   51912   51948       1   51915   51954  -52020   51948       1
   51915   51954   52020   52074       1   51912   51888   51915   51954       1
   51912   51948  -52020   51954       1   51912   51948   52020   52074       1
   51906   51879   51903   51936       4   51906   51879   51903   51939       4
   51906   51942   52008   52065       1   51906   51945  -52014   52065       1
   51903   51879   51906   51942       4   51903   51879   51906   51945       4
   51903   51936   51996   52056       1   51903   51939  -52002   52056       1
   51897   51870   51894   51924       4   51897   51870   51894   51927       4
   51897   51930   51984   52047       1   51897   51933  -51990   52047       1
   51894   51870   51897   51930       4   51894   51870   51897   51933       4
   51894   51924   51972   52041       1   51894   51927  -51978   52041       1
   51891   51867   51888   51912       4   51891   51867   51888   51915       4
   51891   51918   51963   52029       1   51891   51921  -51969   52029       1
   51888   51867   51891   51918       4   51888   51867   51891   51921       4
   51888   51912   51948   52020       1   51888   51915  -51954   52020       1
   51882   51849   51879   51903       4   51882   51849   51879   51906       4
   51879   51903   51936   51996       1   51879   51903   51939   52002       1
   51879   51906   51942   52008       1   51879   51906   51945   52014       1
   51873   51837   51870   51894       4   51873   51837   51870   51897       4
   51870   51894   51924   51972       1   51870   51894   51927   51978       1
   51870   51897   51930   51984       1   51870   51897   51933   51990       1
   51867   51888   51912   51948       1   51867   51888   51915   51954       1
   51867   51891   51918   51963       1   51867   51891   51921   51969       1
   51852   51882   51849   51879       1   51849   51879   51903   51936       4
   51849   51879   51903   51939       4   51849   51879   51906   51942       4
   51849   51879   51906   51945       4   51843   51813   51819   51852       5
   51843   51873   51837   51870       1   51837   51870   51894   51924       4
   51837   51870   51894   51927       4   51837   51870   51897   51930       4
   51837   51870   51897   51933       4   51831   51867   51888   51912       4
   51831   51867   51888   51915       4   51831   51867   51891   51918       4
   51831   51867   51891   51921       4   51825   51831   51867   51888       4
   51825   51831   51867   51891       4   51819   51798   51816   51849       1
   51819   51813   51843   51873       1   51819   51852  -51882   51849       1
   51816   51798   51819   51852       1   51816   51849   51879   51903       4
   51816   51849   51879   51906       4   51816   51849  -51882   51852       1
   51813   51795   51810   51837       1   51813   51819   51798   51816       1
   51813   51819   51852   51882       1   51813   51843  -51873   51837       1
   51810   51795   51813   51819       1   51810   51795   51813   51843       1
   51810   51837   51870   51894       4   51810   51837   51870   51897       4
   51810   51837  -51873   51843       1   51807   51831   51867   51888       4
   51807   51831   51867   51891       4   51804   51789   51792   51807       1
   51804   51825  -51831   51807       1   51804   51825   51831   51867       1
   51798   51774   51792   51807       6   51798   51774   51795   51810       6
   51798   51774  -51795   51813       7   51798   51816   51849   51879       1
   51798   51816   51849   51882       1   51798   51819   51813   51843       5
   51798   51819  -51852   51882       1   51795   51774   51792   51807       6
   51795   51774   51798   51816       6   51795   51774  -51798   51819       7
   51795   51810   51837   51870       1   51795   51810   51837   51873       1
   51795   51813  -51819   51798       5   51795   51813   51819   51852       5
   51795   51813  -51843   51873       1   51792   51774   51795   51810       6
   51792   51774   51795   51813       7   51792   51774   51798   51816       6
   51792   51774   51798   51819       7   51792   51789   51804   51825       1
   51792   51807  -51831   51825       1   51792   51807   51831   51867       1
   51789   51792   51774   51795       7   51789   51792   51774   51798       7
   51789   51792   51807   51831       1   51789   51804  -51825   51831       1
   51774   51747  -51771   51789       1   51774   51792   51789   51804       1
   51774   51792   51807   51831       1   51774   51795   51810   51837       1
   51774   51795  -51813   51819       1   51774   51795   51813   51843       1
   51774   51798   51816   51849       1   51774   51798  -51819   51813       1
   51774   51798   51819   51852       1   51771   51747  -51774   51792       7
   51771   51747   51774   51795       7   51771   51747   51774   51798       7
   51771   51789  -51792   51774       1   51771   51789   51792   51807       1
   51771   51789   51804   51825       1   51765   51780   51801   51822       3
   51759   51780   51801   51822       3   51753   51771   51747   51774       1
   51753   51771   51789   51792       5   51753   51771   51789   51804       5
   51747   51771  -51789   51792       5   51747   51771   51789   51804       5
   51747   51774  -51792   51789       7   51747   51774   51792   51807       6
   51747   51774   51795   51810       6   51747   51774   51795   51813       7
   51747   51774   51798   51816       6   51747   51774   51798   51819       7
   51744   51732   51741   51759       1   51744   51765  -51780   51759       1
   51744   51765   51780   51801       1   51741   51732   51744   51765       1
   51741   51759  -51780   51765       1   51741   51759   51780   51801       1
   51738   51729   51735   51747       1   51738   51753  -51771   51747       1
   51738   51753   51771   51789       1   51735   51729   51738   51753       1
   51735   51747  -51771   51753       1   51735   51747   51771   51789       1
   51735   51747   51774   51792       6   51735   51747   51774   51795       6
   51735   51747   51774   51798       6   51732   51726   51729   51735       4
   51732   51726   51729   51738       4   51732   51741   51759   51780       1
   51732   51744  -51765   51780       1   51729   51726   51732   51741       4
   51729   51726   51732   51744       4   51729   51735   51747   51771       1
   51729   51735   51747   51774       1   51729   51738  -51753   51771       1
   51726   51729   51735   51747       1   51726   51729   51738   51753       1
   51726   51732   51741   51759       1   51726   51732   51744   51765       1
   51717   51726   51729   51735       4   51717   51726   51729   51738       4
   51717   51726   51732   51741       4   51717   51726   51732   51744       4
   51711   51717   51726   51729       4   51711   51717   51726   51732       4
   51705   51717   51726   51729       4   51705   51717   51726   51732       4
   51693   51684   51690   51705       1   51693   51711  -51717   51705       1
   51693   51711   51717   51726       1   51690   51684   51693   51711       1
   51690   51705  -51717   51711       1   51690   51705   51717   51726       1
   51687   51681   51684   51690       3   51687   51681   51684   51693       3
   51684   51690   51705   51717       1   51684   51693  -51711   51717       1
   51681   51684   51690   51705       1   51681   51684   51693   51711       1
   52497   52548   52572   52590       3   52491   52548   52572   52590       3
   52485   52539   52569   52587       3   52479   52539   52569   52587       3
   52473   52530   52566   52584       3   52467   52530   52566   52584       3
   52461   52524   52563   52581       3   52455   52524   52563   52581       3
   52452   52512   52560   52578       3   52446   52512   52560   52578       3
   52437   52503   52557   52575       3   52431   52503   52557   52575       3
   52428   52389   52425   52491       1   52428   52497  -52548   52491       1
   52428   52497   52548   52572       1   52425   52389   52428   52497       1
   52425   52491  -52548   52497       1   52425   52491   52548   52572       1
   52422   52386   52419   52479       1   52422   52485  -52539   52479       1
   52422   52485   52539   52569       1   52419   52386   52422   52485       1
   52419   52479  -52539   52485       1   52419   52479   52539   52569       1
   52416   52380   52413   52467       1   52416   52473  -52530   52467       1
   52416   52473   52530   52566       1   52413   52380   52416   52473       1
   52413   52467  -52530   52473       1   52413   52467   52530   52566       1
   52410   52377   52407   52455       1   52410   52461  -52524   52455       1
   52410   52461   52524   52563       1   52407   52377   52410   52461       1
   52407   52455  -52524   52461       1   52407   52455   52524   52563       1
   52404   52374   52401   52446       1   52404   52452  -52512   52446       1
   52404   52452   52512   52560       1   52401   52374   52404   52452       1
   52401   52446  -52512   52452       1   52401   52446   52512   52560       1
   52398   52371   52395   52431       1   52398   52437  -52503   52431       1
   52398   52437   52503   52557       1   52395   52371   52398   52437       1
   52395   52431  -52503   52437       1   52395   52431   52503   52557       1
   52389   52362   52386   52419       4   52389   52362   52386   52422       4
   52389   52425   52491   52548       1   52389   52428  -52497   52548       1
   52386   52362   52389   52425       4   52386   52362   52389   52428       4
   52386   52419   52479   52539       1   52386   52422  -52485   52539       1
   52380   52353   52377   52407       4   52380   52353   52377   52410       4
   52380   52413   52467   52530       1   52380   52416  -52473   52530       1
   52377   52353   52380   52413       4   52377   52353   52380   52416       4
   52377   52407   52455   52524       1   52377   52410  -52461   52524       1
   52374   52350   52371   52395       4   52374   52350   52371   52398       4
   52374   52401   52446   52512       1   52374   52404  -52452   52512       1
   52371   52350   52374   52401       4   52371   52350   52374   52404       4
   52371   52395   52431   52503       1   52371   52398  -52437   52503       1
   52365   52332   52362   52386       4   52365   52332   52362   52389       4
   52362   52386   52419   52479       1   52362   52386   52422   52485       1
   52362   52389   52425   52491       1   52362   52389   52428   52497       1
   52356   52320   52353   52377       4   52356   52320   52353   52380       4
   52353   52377   52407   52455       1   52353   52377   52410   52461       1
   52353   52380   52413   52467       1   52353   52380   52416   52473       1
   52350   52371   52395   52431       1   52350   52371   52398   52437       1
   52350   52374   52401   52446       1   52350   52374   52404   52452       1
   52335   52365   52332   52362       1   52332   52362   52386   52419       4
   52332   52362   52386   52422       4   52332   52362   52389   52425       4
   52332   52362   52389   52428       4   52326   52296   52302   52335       5
   52326   52356   52320   52353       1   52320   52353   52377   52407       4
   52320   52353   52377   52410       4   52320   52353   52380   52413       4
   52320   52353   52380   52416       4   52314   52350   52371   52395       4
   52314   52350   52371   52398       4   52314   52350   52374   52401       4
   52314   52350   52374   52404       4   52308   52314   52350   52371       4
   52308   52314   52350   52374       4   52302   52281   52299   52332       1
   52302   52296   52326   52356       1   52302   52335  -52365   52332       1
   52299   52281   52302   52335       1   52299   52332   52362   52386       4
   52299   52332   52362   52389       4   52299   52332  -52365   52335       1
   52296   52278   52293   52320       1   52296   52302   52281   52299       1
   52296   52302   52335   52365       1   52296   52326  -52356   52320       1
   52293   52278   52296   52302       1   52293   52278   52296   52326       1
   52293   52320   52353   52377       4   52293   52320   52353   52380       4
   52293   52320  -52356   52326       1   52290   52314   52350   52371       4
   52290   52314   52350   52374       4   52287   52272   52275   52290       1
   52287   52308  -52314   52290       1   52287   52308   52314   52350       1
   52281   52257   52275   52290       6   52281   52257   52278   52293       6
   52281   52257  -52278   52296       7   52281   52299   52332   52362       1
   52281   52299   52332   52365       1   52281   52302   52296   52326       5
   52281   52302  -52335   52365       1   52278   52257   52275   52290       6
   52278   52257   52281   52299       6   52278   52257  -52281   52302       7
   52278   52293   52320   52353       1   52278   52293   52320   52356       1
   52278   52296  -52302   52281       5   52278   52296   52302   52335       5
   52278   52296  -52326   52356       1   52275   52257   52278   52293       6
   52275   52257   52278   52296       7   52275   52257   52281   52299       6
   52275   52257   52281   52302       7   52275   52272   52287   52308       1
   52275   52290  -52314   52308       1   52275   52290   52314   52350       1
   52272   52275   52257   52278       7   52272   52275   52257   52281       7
   52272   52275   52290   52314       1   52272   52287  -52308   52314       1
   52257   52230  -52254   52272       1   52257   52275   52272   52287       1
   52257   52275   52290   52314       1   52257   52278   52293   52320       1
   52257   52278  -52296   52302       1   52257   52278   52296   52326       1
   52257   52281   52299   52332       1   52257   52281  -52302   52296       1
   52257   52281   52302   52335       1   52254   52230  -52257   52275       7
   52254   52230   52257   52278       7   52254   52230   52257   52281       7
   52254   52272  -52275   52257       1   52254   52272   52275   52290       1
   52254   52272   52287   52308       1   52248   52263   52284   52305       3
   52242   52263   52284   52305       3   52236   52254   52230   52257       1
   52236   52254   52272   52275       5   52236   52254   52272   52287       5
   52230   52254  -52272   52275       5   52230   52254   52272   52287       5
   52230   52257  -52275   52272       7   52230   52257   52275   52290       6
   52230   52257   52278   52293       6   52230   52257   52278   52296       7
   52230   52257   52281   52299       6   52230   52257   52281   52302       7
   52227   52215   52224   52242       1   52227   52248  -52263   52242       1
   52227   52248   52263   52284       1   52224   52215   52227   52248       1
   52224   52242  -52263   52248       1   52224   52242   52263   52284       1
   52221   52212   52218   52230       1   52221   52236  -52254   52230       1
   52221   52236   52254   52272       1   52218   52212   52221   52236       1
   52218   52230  -52254   52236       1   52218   52230   52254   52272       1
   52218   52230   52257   52275       6   52218   52230   52257   52278       6
   52218   52230   52257   52281       6   52215   52209   52212   52218       4
   52215   52209   52212   52221       4   52215   52224   52242   52263       1
   52215   52227  -52248   52263       1   52212   52209   52215   52224       4
   52212   52209   52215   52227       4   52212   52218   52230   52254       1
   52212   52218   52230   52257       1   52212   52221  -52236   52254       1
   52209   52212   52218   52230       1   52209   52212   52221   52236       1
   52209   52215   52224   52242       1   52209   52215   52227   52248       1
   52200   52209   52212   52218       4   52200   52209   52212   52221       4
   52200   52209   52215   52224       4   52200   52209   52215   52227       4
   52194   52200   52209   52212       4   52194   52200   52209   52215       4
   52188   52200   52209   52212       4   52188   52200   52209   52215       4
   52176   52167   52173   52188       1   52176   52194  -52200   52188       1
   52176   52194   52200   52209       1   52173   52167   52176   52194       1
   52173   52188  -52200   52194       1   52173   52188   52200   52209       1
   52170   52164   52167   52173       3   52170   52164   52167   52176       3
   52167   52173   52188   52200       1   52167   52176  -52194   52200       1
   52164   52167   52173   52188       1   52164   52167   52176   52194       1
   52980   53031   53055   53073       3   52974   53031   53055   53073       3
   52968   53022   53052   53070       3   52962   53022   53052   53070       3
   52956   53013   53049   53067       3   52950   53013   53049   53067       3
   52944   53007   53046   53064       3   52938   53007   53046   53064       3
   52935   52995   53043   53061       3   52929   52995   53043   53061       3
   52920   52986   53040   53058       3   52914   52986   53040   53058       3
   52911   52872   52908   52974       1   52911   52980  -53031   52974       1
   52911   52980   53031   53055       1   52908   52872   52911   52980       1
   52908   52974  -53031   52980       1   52908   52974   53031   53055       1
   52905   52869   52902   52962       1   52905   52968  -53022   52962       1
   52905   52968   53022   53052       1   52902   52869   52905   52968       1
   52902   52962  -53022   52968       1   52902   52962   53022   53052       1
   52899   52863   52896   52950       1   52899   52956  -53013   52950       1
   52899   52956   53013   53049       1   52896   52863   52899   52956       1
   52896   52950  -53013   52956       1   52896   52950   53013   53049       1
   52893   52860   52890   52938       1   52893   52944  -53007   52938       1
   52893   52944   53007   53046       1   52890   52860   52893   52944       1
   52890   52938  -53007   52944       1   52890   52938   53007   53046       1
   52887   52857   52884   52929       1   52887   52935  -52995   52929       1
   52887   52935   52995   53043       1   52884   52857   52887   52935       1
   52884   52929  -52995   52935       1   52884   52929   52995   53043       1
   52881   52854   52878   52914       1   52881   52920  -52986   52914       1
   52881   52920   52986   53040       1   52878   52854   52881   52920       1
   52878   52914  -52986   52920       1   52878   52914   52986   53040       1
   52872   52845   52869   52902       4   52872   52845   52869   52905       4
   52872   52908   52974   53031       1   52872   52911  -52980   53031       1
   52869   52845   52872   52908       4   52869   52845   52872   52911       4
   52869   52902   52962   53022       1   52869   52905  -52968   53022       1
   52863   52836   52860   52890       4   52863   52836   52860   52893       4
   52863   52896   52950   53013       1   52863   52899  -52956   53013       1
   52860   52836   52863   52896       4   52860   52836   52863   52899       4
   52860   52890   52938   53007       1   52860   52893  -52944   53007       1
   52857   52833   52854   52878       4   52857   52833   52854   52881       4
   52857   52884   52929   52995       1   52857   52887  -52935   52995       1
   52854   52833   52857   52884       4   52854   52833   52857   52887       4
   52854   52878   52914   52986       1   52854   52881  -52920   52986       1
   52848   52815   52845   52869       4   52848   52815   52845   52872       4
   52845   52869   52902   52962       1   52845   52869   52905   52968       1
   52845   52872   52908   52974       1   52845   52872   52911   52980       1
   52839   52803   52836   52860       4   52839   52803   52836   52863       4
   52836   52860   52890   52938       1   52836   52860   52893   52944       1
   52836   52863   52896   52950       1   52836   52863   52899   52956       1
   52833   52854   52878   52914       1   52833   52854   52881   52920       1
   52833   52857   52884   52929       1   52833   52857   52887   52935       1
   52818   52848   52815   52845       1   52815   52845   52869   52902       4
   52815   52845   52869   52905       4   52815   52845   52872   52908       4
   52815   52845   52872   52911       4   52809   52779   52785   52818       5
   52809   52839   52803   52836       1   52803   52836   52860   52890       4
   52803   52836   52860   52893       4   52803   52836   52863   52896       4
   52803   52836   52863   52899       4   52797   52833   52854   52878       4
   52797   52833   52854   52881       4   52797   52833   52857   52884       4
   52797   52833   52857   52887       4   52791   52797   52833   52854       4
   52791   52797   52833   52857       4   52785   52764   52782   52815       1
   52785   52779   52809   52839       1   52785   52818  -52848   52815       1
   52782   52764   52785   52818       1   52782   52815   52845   52869       4
   52782   52815   52845   52872       4   52782   52815  -52848   52818       1
   52779   52761   52776   52803       1   52779   52785   52764   52782       1
   52779   52785   52818   52848       1   52779   52809  -52839   52803       1
   52776   52761   52779   52785       1   52776   52761   52779   52809       1
   52776   52803   52836   52860       4   52776   52803   52836   52863       4
   52776   52803  -52839   52809       1   52773   52797   52833   52854       4
   52773   52797   52833   52857       4   52770   52755   52758   52773       1
   52770   52791  -52797   52773       1   52770   52791   52797   52833       1
   52764   52740   52758   52773       6   52764   52740   52761   52776       6
   52764   52740  -52761   52779       7   52764   52782   52815   52845       1
   52764   52782   52815   52848       1   52764   52785   52779   52809       5
   52764   52785  -52818   52848       1   52761   52740   52758   52773       6
   52761   52740   52764   52782       6   52761   52740  -52764   52785       7
   52761   52776   52803   52836       1   52761   52776   52803   52839       1
   52761   52779  -52785   52764       5   52761   52779   52785   52818       5
   52761   52779  -52809   52839       1   52758   52740   52761   52776       6
   52758   52740   52761   52779       7   52758   52740   52764   52782       6
   52758   52740   52764   52785       7   52758   52755   52770   52791       1
   52758   52773  -52797   52791       1   52758   52773   52797   52833       1
   52755   52758   52740   52761       7   52755   52758   52740   52764       7
   52755   52758   52773   52797       1   52755   52770  -52791   52797       1
   52740   52713  -52737   52755       1   52740   52758   52755   52770       1
   52740   52758   52773   52797       1   52740   52761   52776   52803       1
   52740   52761  -52779   52785       1   52740   52761   52779   52809       1
   52740   52764   52782   52815       1   52740   52764  -52785   52779       1
   52740   52764   52785   52818       1   52737   52713  -52740   52758       7
   52737   52713   52740   52761       7   52737   52713   52740   52764       7
   52737   52755  -52758   52740       1   52737   52755   52758   52773       1
   52737   52755   52770   52791       1   52731   52746   52767   52788       3
   52725   52746   52767   52788       3   52719   52737   52713   52740       1
   52719   52737   52755   52758       5   52719   52737   52755   52770       5
   52713   52737  -52755   52758       5   52713   52737   52755   52770       5
   52713   52740  -52758   52755       7   52713   52740   52758   52773       6
   52713   52740   52761   52776       6   52713   52740   52761   52779       7
   52713   52740   52764   52782       6   52713   52740   52764   52785       7
   52710   52698   52707   52725       1   52710   52731  -52746   52725       1
   52710   52731   52746   52767       1   52707   52698   52710   52731       1
   52707   52725  -52746   52731       1   52707   52725   52746   52767       1
   52704   52695   52701   52713       1   52704   52719  -52737   52713       1
   52704   52719   52737   52755       1   52701   52695   52704   52719       1
   52701   52713  -52737   52719       1   52701   52713   52737   52755       1
   52701   52713   52740   52758       6   52701   52713   52740   52761       6
   52701   52713   52740   52764       6   52698   52692   52695   52701       4
   52698   52692   52695   52704       4   52698   52707   52725   52746       1
   52698   52710  -52731   52746       1   52695   52692   52698   52707       4
   52695   52692   52698   52710       4   52695   52701   52713   52737       1
   52695   52701   52713   52740       1   52695   52704  -52719   52737       1
   52692   52695   52701   52713       1   52692   52695   52704   52719       1
   52692   52698   52707   52725       1   52692   52698   52710   52731       1
   52683   52692   52695   52701       4   52683   52692   52695   52704       4
   52683   52692   52698   52707       4   52683   52692   52698   52710       4
   52677   52683   52692   52695       4   52677   52683   52692   52698       4
   52671   52683   52692   52695       4   52671   52683   52692   52698       4
   52659   52650   52656   52671       1   52659   52677  -52683   52671       1
   52659   52677   52683   52692       1   52656   52650   52659   52677       1
   52656   52671  -52683   52677       1   52656   52671   52683   52692       1
   52653   52647   52650   52656       3   52653   52647   52650   52659       3
   52650   52656   52671   52683       1   52650   52659  -52677   52683       1
   52647   52650   52656   52671       1   52647   52650   52659   52677       1
   53463   53514   53538   53556       3   53457   53514   53538   53556       3
   53451   53505   53535   53553       3   53445   53505   53535   53553       3
   53439   53496   53532   53550       3   53433   53496   53532   53550       3
   53427   53490   53529   53547       3   53421   53490   53529   53547       3
   53418   53478   53526   53544       3   53412   53478   53526   53544       3
   53403   53469   53523   53541       3   53397   53469   53523   53541       3
   53394   53355   53391   53457       1   53394   53463  -53514   53457       1
   53394   53463   53514   53538       1   53391   53355   53394   53463       1
   53391   53457  -53514   53463       1   53391   53457   53514   53538       1
   53388   53352   53385   53445       1   53388   53451  -53505   53445       1
   53388   53451   53505   53535       1   53385   53352   53388   53451       1
   53385   53445  -53505   53451       1   53385   53445   53505   53535       1
   53382   53346   53379   53433       1   53382   53439  -53496   53433       1
   53382   53439   53496   53532       1   53379   53346   53382   53439       1
   53379   53433  -53496   53439       1   53379   53433   53496   53532       1
   53376   53343   53373   53421       1   53376   53427  -53490   53421       1
   53376   53427   53490   53529       1   53373   53343   53376   53427       1
   53373   53421  -53490   53427       1   53373   53421   53490   53529       1
   53370   53340   53367   53412       1   53370   53418  -53478   53412       1
   53370   53418   53478   53526       1   53367   53340   53370   53418       1
   53367   53412  -53478   53418       1   53367   53412   53478   53526       1
   53364   53337   53361   53397       1   53364   53403  -53469   53397       1
   53364   53403   53469   53523       1   53361   53337   53364   53403       1
   53361   53397  -53469   53403       1   53361   53397   53469   53523       1
   53355   53328   53352   53385       4   53355   53328   53352   53388       4
   53355   53391   53457   53514       1   53355   53394  -53463   53514       1
   53352   53328   53355   53391       4   53352   53328   53355   53394       4
   53352   53385   53445   53505       1   53352   53388  -53451   53505       1
   53346   53319   53343   53373       4   53346   53319   53343   53376       4
   53346   53379   53433   53496       1   53346   53382  -53439   53496       1
   53343   53319   53346   53379       4   53343   53319   53346   53382       4
   53343   53373   53421   53490       1   53343   53376  -53427   53490       1
   53340   53316   53337   53361       4   53340   53316   53337   53364       4
   53340   53367   53412   53478       1   53340   53370  -53418   53478       1
   53337   53316   53340   53367       4   53337   53316   53340   53370       4
   53337   53361   53397   53469       1   53337   53364  -53403   53469       1
   53331   53298   53328   53352       4   53331   53298   53328   53355       4
   53328   53352   53385   53445       1   53328   53352   53388   53451       1
   53328   53355   53391   53457       1   53328   53355   53394   53463       1
   53322   53286   53319   53343       4   53322   53286   53319   53346       4
   53319   53343   53373   53421       1   53319   53343   53376   53427       1
   53319   53346   53379   53433       1   53319   53346   53382   53439       1
   53316   53337   53361   53397       1   53316   53337   53364   53403       1
   53316   53340   53367   53412       1   53316   53340   53370   53418       1
   53301   53331   53298   53328       1   53298   53328   53352   53385       4
   53298   53328   53352   53388       4   53298   53328   53355   53391       4
   53298   53328   53355   53394       4   53292   53262   53268   53301       5
   53292   53322   53286   53319       1   53286   53319   53343   53373       4
   53286   53319   53343   53376       4   53286   53319   53346   53379       4
   53286   53319   53346   53382       4   53280   53316   53337   53361       4
   53280   53316   53337   53364       4   53280   53316   53340   53367       4
   53280   53316   53340   53370       4   53274   53280   53316   53337       4
   53274   53280   53316   53340       4   53268   53247   53265   53298       1
   53268   53262   53292   53322       1   53268   53301  -53331   53298       1
   53265   53247   53268   53301       1   53265   53298   53328   53352       4
   53265   53298   53328   53355       4   53265   53298  -53331   53301       1
   53262   53244   53259   53286       1   53262   53268   53247   53265       1
   53262   53268   53301   53331       1   53262   53292  -53322   53286       1
   53259   53244   53262   53268       1   53259   53244   53262   53292       1
   53259   53286   53319   53343       4   53259   53286   53319   53346       4
   53259   53286  -53322   53292       1   53256   53280   53316   53337       4
   53256   53280   53316   53340       4   53253   53238   53241   53256       1
   53253   53274  -53280   53256       1   53253   53274   53280   53316       1
   53247   53223   53241   53256       6   53247   53223   53244   53259       6
   53247   53223  -53244   53262       7   53247   53265   53298   53328       1
   53247   53265   53298   53331       1   53247   53268   53262   53292       5
   53247   53268  -53301   53331       1   53244   53223   53241   53256       6
   53244   53223   53247   53265       6   53244   53223  -53247   53268       7
   53244   53259   53286   53319       1   53244   53259   53286   53322       1
   53244   53262  -53268   53247       5   53244   53262   53268   53301       5
   53244   53262  -53292   53322       1   53241   53223   53244   53259       6
   53241   53223   53244   53262       7   53241   53223   53247   53265       6
   53241   53223   53247   53268       7   53241   53238   53253   53274       1
   53241   53256  -53280   53274       1   53241   53256   53280   53316       1
   53238   53241   53223   53244       7   53238   53241   53223   53247       7
   53238   53241   53256   53280       1   53238   53253  -53274   53280       1
   53223   53196  -53220   53238       1   53223   53241   53238   53253       1
   53223   53241   53256   53280       1   53223   53244   53259   53286       1
   53223   53244  -53262   53268       1   53223   53244   53262   53292       1
   53223   53247   53265   53298       1   53223   53247  -53268   53262       1
   53223   53247   53268   53301       1   53220   53196  -53223   53241       7
   53220   53196   53223   53244       7   53220   53196   53223   53247       7
   53220   53238  -53241   53223       1   53220   53238   53241   53256       1
   53220   53238   53253   53274       1   53214   53229   53250   53271       3
   53208   53229   53250   53271       3   53202   53220   53196   53223       1
   53202   53220   53238   53241       5   53202   53220   53238   53253       5
   53196   53220  -53238   53241       5   53196   53220   53238   53253       5
   53196   53223  -53241   53238       7   53196   53223   53241   53256       6
   53196   53223   53244   53259       6   53196   53223   53244   53262       7
   53196   53223   53247   53265       6   53196   53223   53247   53268       7
   53193   53181   53190   53208       1   53193   53214  -53229   53208       1
   53193   53214   53229   53250       1   53190   53181   53193   53214       1
   53190   53208  -53229   53214       1   53190   53208   53229   53250       1
   53187   53178   53184   53196       1   53187   53202  -53220   53196       1
   53187   53202   53220   53238       1   53184   53178   53187   53202       1
   53184   53196  -53220   53202       1   53184   53196   53220   53238       1
   53184   53196   53223   53241       6   53184   53196   53223   53244       6
   53184   53196   53223   53247       6   53181   53175   53178   53184       4
   53181   53175   53178   53187       4   53181   53190   53208   53229       1
   53181   53193  -53214   53229       1   53178   53175   53181   53190       4
   53178   53175   53181   53193       4   53178   53184   53196   53220       1
   53178   53184   53196   53223       1   53178   53187  -53202   53220       1
   53175   53178   53184   53196       1   53175   53178   53187   53202       1
   53175   53181   53190   53208       1   53175   53181   53193   53214       1
   53166   53175   53178   53184       4   53166   53175   53178   53187       4
   53166   53175   53181   53190       4   53166   53175   53181   53193       4
   53160   53166   53175   53178       4   53160   53166   53175   53181       4
   53154   53166   53175   53178       4   53154   53166   53175   53181       4
   53142   53133   53139   53154       1   53142   53160  -53166   53154       1
   53142   53160   53166   53175       1   53139   53133   53142   53160       1
   53139   53154  -53166   53160       1   53139   53154   53166   53175       1
   53136   53130   53133   53139       3   53136   53130   53133   53142       3
   53133   53139   53154   53166       1   53133   53142  -53160   53166       1
   53130   53133   53139   53154       1   53130   53133   53142   53160       1
   53946   53997   54021   54039       3   53940   53997   54021   54039       3
   53934   53988   54018   54036       3   53928   53988   54018   54036       3
   53922   53979   54015   54033       3   53916   53979   54015   54033       3
   53910   53973   54012   54030       3   53904   53973   54012   54030       3
   53901   53961   54009   54027       3   53895   53961   54009   54027       3
   53886   53952   54006   54024       3   53880   53952   54006   54024       3
   53877   53838   53874   53940       1   53877   53946  -53997   53940       1
   53877   53946   53997   54021       1   53874   53838   53877   53946       1
   53874   53940  -53997   53946       1   53874   53940   53997   54021       1
   53871   53835   53868   53928       1   53871   53934  -53988   53928       1
   53871   53934   53988   54018       1   53868   53835   53871   53934       1
   53868   53928  -53988   53934       1   53868   53928   53988   54018       1
   53865   53829   53862   53916       1   53865   53922  -53979   53916       1
   53865   53922   53979   54015       1   53862   53829   53865   53922       1
   53862   53916  -53979   53922       1   53862   53916   53979   54015       1
   53859   53826   53856   53904       1   53859   53910  -53973   53904       1
   53859   53910   53973   54012       1   53856   53826   53859   53910       1
   53856   53904  -53973   53910       1   53856   53904   53973   54012       1
   53853   53823   53850   53895       1   53853   53901  -53961   53895       1
   53853   53901   53961   54009       1   53850   53823   53853   53901       1
   53850   53895  -53961   53901       1   53850   53895   53961   54009       1
   53847   53820   53844   53880       1   53847   53886  -53952   53880       1
   53847   53886   53952   54006       1   53844   53820   53847   53886       1
   53844   53880  -53952   53886       1   53844   53880   53952   54006       1
   53838   53811   53835   53868       4   53838   53811   53835   53871       4
   53838   53874   53940   53997       1   53838   53877  -53946   53997       1
   53835   53811   53838   53874       4   53835   53811   53838   53877       4
   53835   53868   53928   53988       1   53835   53871  -53934   53988       1
   53829   53802   53826   53856       4   53829   53802   53826   53859       4
   53829   53862   53916   53979       1   53829   53865  -53922   53979       1
   53826   53802   53829   53862       4   53826   53802   53829   53865       4
   53826   53856   53904   53973       1   53826   53859  -53910   53973       1
   53823   53799   53820   53844       4   53823   53799   53820   53847       4
   53823   53850   53895   53961       1   53823   53853  -53901   53961       1
   53820   53799   53823   53850       4   53820   53799   53823   53853       4
   53820   53844   53880   53952       1   53820   53847  -53886   53952       1
   53814   53781   53811   53835       4   53814   53781   53811   53838       4
   53811   53835   53868   53928       1   53811   53835   53871   53934       1
   53811   53838   53874   53940       1   53811   53838   53877   53946       1
   53805   53769   53802   53826       4   53805   53769   53802   53829       4
   53802   53826   53856   53904       1   53802   53826   53859   53910       1
   53802   53829   53862   53916       1   53802   53829   53865   53922       1
   53799   53820   53844   53880       1   53799   53820   53847   53886       1
   53799   53823   53850   53895       1   53799   53823   53853   53901       1
   53784   53814   53781   53811       1   53781   53811   53835   53868       4
   53781   53811   53835   53871       4   53781   53811   53838   53874       4
   53781   53811   53838   53877       4   53775   53745   53751   53784       5
   53775   53805   53769   53802       1   53769   53802   53826   53856       4
   53769   53802   53826   53859       4   53769   53802   53829   53862       4
   53769   53802   53829   53865       4   53763   53799   53820   53844       4
   53763   53799   53820   53847       4   53763   53799   53823   53850       4
   53763   53799   53823   53853       4   53757   53763   53799   53820       4
   53757   53763   53799   53823       4   53751   53730   53748   53781       1
   53751   53745   53775   53805       1   53751   53784  -53814   53781       1
   53748   53730   53751   53784       1   53748   53781   53811   53835       4
   53748   53781   53811   53838       4   53748   53781  -53814   53784       1
   53745   53727   53742   53769       1   53745   53751   53730   53748       1
   53745   53751   53784   53814       1   53745   53775  -53805   53769       1
   53742   53727   53745   53751       1   53742   53727   53745   53775       1
   53742   53769   53802   53826       4   53742   53769   53802   53829       4
   53742   53769  -53805   53775       1   53739   53763   53799   53820       4
   53739   53763   53799   53823       4   53736   53721   53724   53739       1
   53736   53757  -53763   53739       1   53736   53757   53763   53799       1
   53730   53706   53724   53739       6   53730   53706   53727   53742       6
   53730   53706  -53727   53745       7   53730   53748   53781   53811       1
   53730   53748   53781   53814       1   53730   53751   53745   53775       5
   53730   53751  -53784   53814       1   53727   53706   53724   53739       6
   53727   53706   53730   53748       6   53727   53706  -53730   53751       7
   53727   53742   53769   53802       1   53727   53742   53769   53805       1
   53727   53745  -53751   53730       5   53727   53745   53751   53784       5
   53727   53745  -53775   53805       1   53724   53706   53727   53742       6
   53724   53706   53727   53745       7   53724   53706   53730   53748       6
   53724   53706   53730   53751       7   53724   53721   53736   53757       1
   53724   53739  -53763   53757       1   53724   53739   53763   53799       1
   53721   53724   53706   53727       7   53721   53724   53706   53730       7
   53721   53724   53739   53763       1   53721   53736  -53757   53763       1
   53706   53679  -53703   53721       1   53706   53724   53721   53736       1
   53706   53724   53739   53763       1   53706   53727   53742   53769       1
   53706   53727  -53745   53751       1   53706   53727   53745   53775       1
   53706   53730   53748   53781       1   53706   53730  -53751   53745       1
   53706   53730   53751   53784       1   53703   53679  -53706   53724       7
   53703   53679   53706   53727       7   53703   53679   53706   53730       7
   53703   53721  -53724   53706       1   53703   53721   53724   53739       1
   53703   53721   53736   53757       1   53697   53712   53733   53754       3
   53691   53712   53733   53754       3   53685   53703   53679   53706       1
   53685   53703   53721   53724       5   53685   53703   53721   53736       5
   53679   53703  -53721   53724       5   53679   53703   53721   53736       5
   53679   53706  -53724   53721       7   53679   53706   53724   53739       6
   53679   53706   53727   53742       6   53679   53706   53727   53745       7
   53679   53706   53730   53748       6   53679   53706   53730   53751       7
   53676   53664   53673   53691       1   53676   53697  -53712   53691       1
   53676   53697   53712   53733       1   53673   53664   53676   53697       1
   53673   53691  -53712   53697       1   53673   53691   53712   53733       1
   53670   53661   53667   53679       1   53670   53685  -53703   53679       1
   53670   53685   53703   53721       1   53667   53661   53670   53685       1
   53667   53679  -53703   53685       1   53667   53679   53703   53721       1
   53667   53679   53706   53724       6   53667   53679   53706   53727       6
   53667   53679   53706   53730       6   53664   53658   53661   53667       4
   53664   53658   53661   53670       4   53664   53673   53691   53712       1
   53664   53676  -53697   53712       1   53661   53658   53664   53673       4
   53661   53658   53664   53676       4   53661   53667   53679   53703       1
   53661   53667   53679   53706       1   53661   53670  -53685   53703       1
   53658   53661   53667   53679       1   53658   53661   53670   53685       1
   53658   53664   53673   53691       1   53658   53664   53676   53697       1
   53649   53658   53661   53667       4   53649   53658   53661   53670       4
   53649   53658   53664   53673       4   53649   53658   53664   53676       4
   53643   53649   53658   53661       4   53643   53649   53658   53664       4
   53637   53649   53658   53661       4   53637   53649   53658   53664       4
   53625   53616   53622   53637       1   53625   53643  -53649   53637       1
   53625   53643   53649   53658       1   53622   53616   53625   53643       1
   53622   53637  -53649   53643       1   53622   53637   53649   53658       1
   53619   53613   53616   53622       3   53619   53613   53616   53625       3
   53616   53622   53637   53649       1   53616   53625  -53643   53649       1
   53613   53616   53622   53637       1   53613   53616   53625   53643       1
   54429   54480   54504   54522       3   54423   54480   54504   54522       3
   54417   54471   54501   54519       3   54411   54471   54501   54519       3
   54405   54462   54498   54516       3   54399   54462   54498   54516       3
   54393   54456   54495   54513       3   54387   54456   54495   54513       3
   54384   54444   54492   54510       3   54378   54444   54492   54510       3
   54369   54435   54489   54507       3   54363   54435   54489   54507       3
   54360   54321   54357   54423       1   54360   54429  -54480   54423       1
   54360   54429   54480   54504       1   54357   54321   54360   54429       1
   54357   54423  -54480   54429       1   54357   54423   54480   54504       1
   54354   54318   54351   54411       1   54354   54417  -54471   54411       1
   54354   54417   54471   54501       1   54351   54318   54354   54417       1
   54351   54411  -54471   54417       1   54351   54411   54471   54501       1
   54348   54312   54345   54399       1   54348   54405  -54462   54399       1
   54348   54405   54462   54498       1   54345   54312   54348   54405       1
   54345   54399  -54462   54405       1   54345   54399   54462   54498       1
   54342   54309   54339   54387       1   54342   54393  -54456   54387       1
   54342   54393   54456   54495       1   54339   54309   54342   54393       1
   54339   54387  -54456   54393       1   54339   54387   54456   54495       1
   54336   54306   54333   54378       1   54336   54384  -54444   54378       1
   54336   54384   54444   54492       1   54333   54306   54336   54384       1
   54333   54378  -54444   54384       1   54333   54378   54444   54492       1
   54330   54303   54327   54363       1   54330   54369  -54435   54363       1
   54330   54369   54435   54489       1   54327   54303   54330   54369       1
   54327   54363  -54435   54369       1   54327   54363   54435   54489       1
   54321   54294   54318   54351       4   54321   54294   54318   54354       4
   54321   54357   54423   54480       1   54321   54360  -54429   54480       1
   54318   54294   54321   54357       4   54318   54294   54321   54360       4
   54318   54351   54411   54471       1   54318   54354  -54417   54471       1
   54312   54285   54309   54339       4   54312   54285   54309   54342       4
   54312   54345   54399   54462       1   54312   54348  -54405   54462       1
   54309   54285   54312   54345       4   54309   54285   54312   54348       4
   54309   54339   54387   54456       1   54309   54342  -54393   54456       1
   54306   54282   54303   54327       4   54306   54282   54303   54330       4
   54306   54333   54378   54444       1   54306   54336  -54384   54444       1
   54303   54282   54306   54333       4   54303   54282   54306   54336       4
   54303   54327   54363   54435       1   54303   54330  -54369   54435       1
   54297   54264   54294   54318       4   54297   54264   54294   54321       4
   54294   54318   54351   54411       1   54294   54318   54354   54417       1
   54294   54321   54357   54423       1   54294   54321   54360   54429       1
   54288   54252   54285   54309       4   54288   54252   54285   54312       4
   54285   54309   54339   54387       1   54285   54309   54342   54393       1
   54285   54312   54345   54399       1   54285   54312   54348   54405       1
   54282   54303   54327   54363       1   54282   54303   54330   54369       1
   54282   54306   54333   54378       1   54282   54306   54336   54384       1
   54267   54297   54264   54294       1   54264   54294   54318   54351       4
   54264   54294   54318   54354       4   54264   54294   54321   54357       4
   54264   54294   54321   54360       4   54258   54228   54234   54267       5
   54258   54288   54252   54285       1   54252   54285   54309   54339       4
   54252   54285   54309   54342       4   54252   54285   54312   54345       4
   54252   54285   54312   54348       4   54246   54282   54303   54327       4
   54246   54282   54303   54330       4   54246   54282   54306   54333       4
   54246   54282   54306   54336       4   54240   54246   54282   54303       4
   54240   54246   54282   54306       4   54234   54213   54231   54264       1
   54234   54228   54258   54288       1   54234   54267  -54297   54264       1
   54231   54213   54234   54267       1   54231   54264   54294   54318       4
   54231   54264   54294   54321       4   54231   54264  -54297   54267       1
   54228   54210   54225   54252       1   54228   54234   54213   54231       1
   54228   54234   54267   54297       1   54228   54258  -54288   54252       1
   54225   54210   54228   54234       1   54225   54210   54228   54258       1
   54225   54252   54285   54309       4   54225   54252   54285   54312       4
   54225   54252  -54288   54258       1   54222   54246   54282   54303       4
   54222   54246   54282   54306       4   54219   54204   54207   54222       1
   54219   54240  -54246   54222       1   54219   54240   54246   54282       1
   54213   54189   54207   54222       6   54213   54189   54210   54225       6
   54213   54189  -54210   54228       7   54213   54231   54264   54294       1
   54213   54231   54264   54297       1   54213   54234   54228   54258       5
   54213   54234  -54267   54297       1   54210   54189   54207   54222       6
   54210   54189   54213   54231       6   54210   54189  -54213   54234       7
   54210   54225   54252   54285       1   54210   54225   54252   54288       1
   54210   54228  -54234   54213       5   54210   54228   54234   54267       5
   54210   54228  -54258   54288       1   54207   54189   54210   54225       6
   54207   54189   54210   54228       7   54207   54189   54213   54231       6
   54207   54189   54213   54234       7   54207   54204   54219   54240       1
   54207   54222  -54246   54240       1   54207   54222   54246   54282       1
   54204   54207   54189   54210       7   54204   54207   54189   54213       7
   54204   54207   54222   54246       1   54204   54219  -54240   54246       1
   54189   54162  -54186   54204       1   54189   54207   54204   54219       1
   54189   54207   54222   54246       1   54189   54210   54225   54252       1
   54189   54210  -54228   54234       1   54189   54210   54228   54258       1
   54189   54213   54231   54264       1   54189   54213  -54234   54228       1
   54189   54213   54234   54267       1   54186   54162  -54189   54207       7
   54186   54162   54189   54210       7   54186   54162   54189   54213       7
   54186   54204  -54207   54189       1   54186   54204   54207   54222       1
   54186   54204   54219   54240       1   54180   54195   54216   54237       3
   54174   54195   54216   54237       3   54168   54186   54162   54189       1
   54168   54186   54204   54207       5   54168   54186   54204   54219       5
   54162   54186  -54204   54207       5   54162   54186   54204   54219       5
   54162   54189  -54207   54204       7   54162   54189   54207   54222       6
   54162   54189   54210   54225       6   54162   54189   54210   54228       7
   54162   54189   54213   54231       6   54162   54189   54213   54234       7
   54159   54147   54156   54174       1   54159   54180  -54195   54174       1
   54159   54180   54195   54216       1   54156   54147   54159   54180       1
   54156   54174  -54195   54180       1   54156   54174   54195   54216       1
   54153   54144   54150   54162       1   54153   54168  -54186   54162       1
   54153   54168   54186   54204       1   54150   54144   54153   54168       1
   54150   54162  -54186   54168       1   54150   54162   54186   54204       1
   54150   54162   54189   54207       6   54150   54162   54189   54210       6
   54150   54162   54189   54213       6   54147   54141   54144   54150       4
   54147   54141   54144   54153       4   54147   54156   54174   54195       1
   54147   54159  -54180   54195       1   54144   54141   54147   54156       4
   54144   54141   54147   54159       4   54144   54150   54162   54186       1
   54144   54150   54162   54189       1   54144   54153  -54168   54186       1
   54141   54144   54150   54162       1   54141   54144   54153   54168       1
   54141   54147   54156   54174       1   54141   54147   54159   54180       1
   54132   54141   54144   54150       4   54132   54141   54144   54153       4
   54132   54141   54147   54156       4   54132   54141   54147   54159       4
   54126   54132   54141   54144       4   54126   54132   54141   54147       4
   54120   54132   54141   54144       4   54120   54132   54141   54147       4
   54108   54099   54105   54120       1   54108   54126  -54132   54120       1
   54108   54126   54132   54141       1   54105   54099   54108   54126       1
   54105   54120  -54132   54126       1   54105   54120   54132   54141       1
   54102   54096   54099   54105       3   54102   54096   54099   54108       3
   54099   54105   54120   54132       1   54099   54108  -54126   54132       1
   54096   54099   54105   54120       1   54096   54099   54108   54126       1
   54912   54963   54987   55005       3   54906   54963   54987   55005       3
   54900   54954   54984   55002       3   54894   54954   54984   55002       3
   54888   54945   54981   54999       3   54882   54945   54981   54999       3
   54876   54939   54978   54996       3   54870   54939   54978   54996       3
   54867   54927   54975   54993       3   54861   54927   54975   54993       3
   54852   54918   54972   54990       3   54846   54918   54972   54990       3
   54843   54804   54840   54906       1   54843   54912  -54963   54906       1
   54843   54912   54963   54987       1   54840   54804   54843   54912       1
   54840   54906  -54963   54912       1   54840   54906   54963   54987       1
   54837   54801   54834   54894       1   54837   54900  -54954   54894       1
   54837   54900   54954   54984       1   54834   54801   54837   54900       1
   54834   54894  -54954   54900       1   54834   54894   54954   54984       1
   54831   54795   54828   54882       1   54831   54888  -54945   54882       1
   54831   54888   54945   54981       1   54828   54795   54831   54888       1
   54828   54882  -54945   54888       1   54828   54882   54945   54981       1
   54825   54792   54822   54870       1   54825   54876  -54939   54870       1
   54825   54876   54939   54978       1   54822   54792   54825   54876       1
   54822   54870  -54939   54876       1   54822   54870   54939   54978       1
   54819   54789   54816   54861       1   54819   54867  -54927   54861       1
   54819   54867   54927   54975       1   54816   54789   54819   54867       1
   54816   54861  -54927   54867       1   54816   54861   54927   54975       1
   54813   54786   54810   54846       1   54813   54852  -54918   54846       1
   54813   54852   54918   54972       1   54810   54786   54813   54852       1
   54810   54846  -54918   54852       1   54810   54846   54918   54972       1
   54804   54777   54801   54834       4   54804   54777   54801   54837       4
   54804   54840   54906   54963       1   54804   54843  -54912   54963       1
   54801   54777   54804   54840       4   54801   54777   54804   54843       4
   54801   54834   54894   54954       1   54801   54837  -54900   54954       1
   54795   54768   54792   54822       4   54795   54768   54792   54825       4
   54795   54828   54882   54945       1   54795   54831  -54888   54945       1
   54792   54768   54795   54828       4   54792   54768   54795   54831       4
   54792   54822   54870   54939       1   54792   54825  -54876   54939       1
   54789   54765   54786   54810       4   54789   54765   54786   54813       4
   54789   54816   54861   54927       1   54789   54819  -54867   54927       1
   54786   54765   54789   54816       4   54786   54765   54789   54819       4
   54786   54810   54846   54918       1   54786   54813  -54852   54918       1
   54780   54747   54777   54801       4   54780   54747   54777   54804       4
   54777   54801   54834   54894       1   54777   54801   54837   54900       1
   54777   54804   54840   54906       1   54777   54804   54843   54912       1
   54771   54735   54768   54792       4   54771   54735   54768   54795       4
   54768   54792   54822   54870       1   54768   54792   54825   54876       1
   54768   54795   54828   54882       1   54768   54795   54831   54888       1
   54765   54786   54810   54846       1   54765   54786   54813   54852       1
   54765   54789   54816   54861       1   54765   54789   54819   54867       1
   54750   54780   54747   54777       1   54747   54777   54801   54834       4
   54747   54777   54801   54837       4   54747   54777   54804   54840       4
   54747   54777   54804   54843       4   54741   54711   54717   54750       5
   54741   54771   54735   54768       1   54735   54768   54792   54822       4
   54735   54768   54792   54825       4   54735   54768   54795   54828       4
   54735   54768   54795   54831       4   54729   54765   54786   54810       4
   54729   54765   54786   54813       4   54729   54765   54789   54816       4
   54729   54765   54789   54819       4   54723   54729   54765   54786       4
   54723   54729   54765   54789       4   54717   54696   54714   54747       1
   54717   54711   54741   54771       1   54717   54750  -54780   54747       1
   54714   54696   54717   54750       1   54714   54747   54777   54801       4
   54714   54747   54777   54804       4   54714   54747  -54780   54750       1
   54711   54693   54708   54735       1   54711   54717   54696   54714       1
   54711   54717   54750   54780       1   54711   54741  -54771   54735       1
   54708   54693   54711   54717       1   54708   54693   54711   54741       1
   54708   54735   54768   54792       4   54708   54735   54768   54795       4
   54708   54735  -54771   54741       1   54705   54729   54765   54786       4
   54705   54729   54765   54789       4   54702   54687   54690   54705       1
   54702   54723  -54729   54705       1   54702   54723   54729   54765       1
   54696   54672   54690   54705       6   54696   54672   54693   54708       6
   54696   54672  -54693   54711       7   54696   54714   54747   54777       1
   54696   54714   54747   54780       1   54696   54717   54711   54741       5
   54696   54717  -54750   54780       1   54693   54672   54690   54705       6
   54693   54672   54696   54714       6   54693   54672  -54696   54717       7
   54693   54708   54735   54768       1   54693   54708   54735   54771       1
   54693   54711  -54717   54696       5   54693   54711   54717   54750       5
   54693   54711  -54741   54771       1   54690   54672   54693   54708       6
   54690   54672   54693   54711       7   54690   54672   54696   54714       6
   54690   54672   54696   54717       7   54690   54687   54702   54723       1
   54690   54705  -54729   54723       1   54690   54705   54729   54765       1
   54687   54690   54672   54693       7   54687   54690   54672   54696       7
   54687   54690   54705   54729       1   54687   54702  -54723   54729       1
   54672   54645  -54669   54687       1   54672   54690   54687   54702       1
   54672   54690   54705   54729       1   54672   54693   54708   54735       1
   54672   54693  -54711   54717       1   54672   54693   54711   54741       1
   54672   54696   54714   54747       1   54672   54696  -54717   54711       1
   54672   54696   54717   54750       1   54669   54645  -54672   54690       7
   54669   54645   54672   54693       7   54669   54645   54672   54696       7
   54669   54687  -54690   54672       1   54669   54687   54690   54705       1
   54669   54687   54702   54723       1   54663   54678   54699   54720       3
   54657   54678   54699   54720       3   54651   54669   54645   54672       1
   54651   54669   54687   54690       5   54651   54669   54687   54702       5
   54645   54669  -54687   54690       5   54645   54669   54687   54702       5
   54645   54672  -54690   54687       7   54645   54672   54690   54705       6
   54645   54672   54693   54708       6   54645   54672   54693   54711       7
   54645   54672   54696   54714       6   54645   54672   54696   54717       7
   54642   54630   54639   54657       1   54642   54663  -54678   54657       1
   54642   54663   54678   54699       1   54639   54630   54642   54663       1
   54639   54657  -54678   54663       1   54639   54657   54678   54699       1
   54636   54627   54633   54645       1   54636   54651  -54669   54645       1
   54636   54651   54669   54687       1   54633   54627   54636   54651       1
   54633   54645  -54669   54651       1   54633   54645   54669   54687       1
   54633   54645   54672   54690       6   54633   54645   54672   54693       6
   54633   54645   54672   54696       6   54630   54624   54627   54633       4
   54630   54624   54627   54636       4   54630   54639   54657   54678       1
   54630   54642  -54663   54678       1   54627   54624   54630   54639       4
   54627   54624   54630   54642       4   54627   54633   54645   54669       1
   54627   54633   54645   54672       1   54627   54636  -54651   54669       1
   54624   54627   54633   54645       1   54624   54627   54636   54651       1
   54624   54630   54639   54657       1   54624   54630   54642   54663       1
   54615   54624   54627   54633       4   54615   54624   54627   54636       4
   54615   54624   54630   54639       4   54615   54624   54630   54642       4
   54609   54615   54624   54627       4   54609   54615   54624   54630       4
   54603   54615   54624   54627       4   54603   54615   54624   54630       4
   54591   54582   54588   54603       1   54591   54609  -54615   54603       1
   54591   54609   54615   54624       1   54588   54582   54591   54609       1
   54588   54603  -54615   54609       1   54588   54603   54615   54624       1
   54585   54579   54582   54588       3   54585   54579   54582   54591       3
   54582   54588   54603   54615       1   54582   54591  -54609   54615       1
   54579   54582   54588   54603       1   54579   54582   54591   54609       1
   55395   55446   55470   55488       3   55389   55446   55470   55488       3
   55383   55437   55467   55485       3   55377   55437   55467   55485       3
   55371   55428   55464   55482       3   55365   55428   55464   55482       3
   55359   55422   55461   55479       3   55353   55422   55461   55479       3
   55350   55410   55458   55476       3   55344   55410   55458   55476       3
   55335   55401   55455   55473       3   55329   55401   55455   55473       3
   55326   55287   55323   55389       1   55326   55395  -55446   55389       1
   55326   55395   55446   55470       1   55323   55287   55326   55395       1
   55323   55389  -55446   55395       1   55323   55389   55446   55470       1
   55320   55284   55317   55377       1   55320   55383  -55437   55377       1
   55320   55383   55437   55467       1   55317   55284   55320   55383       1
   55317   55377  -55437   55383       1   55317   55377   55437   55467       1
   55314   55278   55311   55365       1   55314   55371  -55428   55365       1
   55314   55371   55428   55464       1   55311   55278   55314   55371       1
   55311   55365  -55428   55371       1   55311   55365   55428   55464       1
   55308   55275   55305   55353       1   55308   55359  -55422   55353       1
   55308   55359   55422   55461       1   55305   55275   55308   55359       1
   55305   55353  -55422   55359       1   55305   55353   55422   55461       1
   55302   55272   55299   55344       1   55302   55350  -55410   55344       1
   55302   55350   55410   55458       1   55299   55272   55302   55350       1
   55299   55344  -55410   55350       1   55299   55344   55410   55458       1
   55296   55269   55293   55329       1   55296   55335  -55401   55329       1
   55296   55335   55401   55455       1   55293   55269   55296   55335       1
   55293   55329  -55401   55335       1   55293   55329   55401   55455       1
   55287   55260   55284   55317       4   55287   55260   55284   55320       4
   55287   55323   55389   55446       1   55287   55326  -55395   55446       1
   55284   55260   55287   55323       4   55284   55260   55287   55326       4
   55284   55317   55377   55437       1   55284   55320  -55383   55437       1
   55278   55251   55275   55305       4   55278   55251   55275   55308       4
   55278   55311   55365   55428       1   55278   55314  -55371   55428       1
   55275   55251   55278   55311       4   55275   55251   55278   55314       4
   55275   55305   55353   55422       1   55275   55308  -55359   55422       1
   55272   55248   55269   55293       4   55272   55248   55269   55296       4
   55272   55299   55344   55410       1   55272   55302  -55350   55410       1
   55269   55248   55272   55299       4   55269   55248   55272   55302       4
   55269   55293   55329   55401       1   55269   55296  -55335   55401       1
   55263   55230   55260   55284       4   55263   55230   55260   55287       4
   55260   55284   55317   55377       1   55260   55284   55320   55383       1
   55260   55287   55323   55389       1   55260   55287   55326   55395       1
   55254   55218   55251   55275       4   55254   55218   55251   55278       4
   55251   55275   55305   55353       1   55251   55275   55308   55359       1
   55251   55278   55311   55365       1   55251   55278   55314   55371       1
   55248   55269   55293   55329       1   55248   55269   55296   55335       1
   55248   55272   55299   55344       1   55248   55272   55302   55350       1
   55233   55263   55230   55260       1   55230   55260   55284   55317       4
   55230   55260   55284   55320       4   55230   55260   55287   55323       4
   55230   55260   55287   55326       4   55224   55194   55200   55233       5
   55224   55254   55218   55251       1   55218   55251   55275   55305       4
   55218   55251   55275   55308       4   55218   55251   55278   55311       4
   55218   55251   55278   55314       4   55212   55248   55269   55293       4
   55212   55248   55269   55296       4   55212   55248   55272   55299       4
   55212   55248   55272   55302       4   55206   55212   55248   55269       4
   55206   55212   55248   55272       4   55200   55179   55197   55230       1
   55200   55194   55224   55254       1   55200   55233  -55263   55230       1
   55197   55179   55200   55233       1   55197   55230   55260   55284       4
   55197   55230   55260   55287       4   55197   55230  -55263   55233       1
   55194   55176   55191   55218       1   55194   55200   55179   55197       1
   55194   55200   55233   55263       1   55194   55224  -55254   55218       1
   55191   55176   55194   55200       1   55191   55176   55194   55224       1
   55191   55218   55251   55275       4   55191   55218   55251   55278       4
   55191   55218  -55254   55224       1   55188   55212   55248   55269       4
   55188   55212   55248   55272       4   55185   55170   55173   55188       1
   55185   55206  -55212   55188       1   55185   55206   55212   55248       1
   55179   55155   55173   55188       6   55179   55155   55176   55191       6
   55179   55155  -55176   55194       7   55179   55197   55230   55260       1
   55179   55197   55230   55263       1   55179   55200   55194   55224       5
   55179   55200  -55233   55263       1   55176   55155   55173   55188       6
   55176   55155   55179   55197       6   55176   55155  -55179   55200       7
   55176   55191   55218   55251       1   55176   55191   55218   55254       1
   55176   55194  -55200   55179       5   55176   55194   55200   55233       5
   55176   55194  -55224   55254       1   55173   55155   55176   55191       6
   55173   55155   55176   55194       7   55173   55155   55179   55197       6
   55173   55155   55179   55200       7   55173   55170   55185   55206       1
   55173   55188  -55212   55206       1   55173   55188   55212   55248       1
   55170   55173   55155   55176       7   55170   55173   55155   55179       7
   55170   55173   55188   55212       1   55170   55185  -55206   55212       1
   55155   55128  -55152   55170       1   55155   55173   55170   55185       1
   55155   55173   55188   55212       1   55155   55176   55191   55218       1
   55155   55176  -55194   55200       1   55155   55176   55194   55224       1
   55155   55179   55197   55230       1   55155   55179  -55200   55194       1
   55155   55179   55200   55233       1   55152   55128  -55155   55173       7
   55152   55128   55155   55176       7   55152   55128   55155   55179       7
   55152   55170  -55173   55155       1   55152   55170   55173   55188       1
   55152   55170   55185   55206       1   55146   55161   55182   55203       3
   55140   55161   55182   55203       3   55134   55152   55128   55155       1
   55134   55152   55170   55173       5   55134   55152   55170   55185       5
   55128   55152  -55170   55173       5   55128   55152   55170   55185       5
   55128   55155  -55173   55170       7   55128   55155   55173   55188       6
   55128   55155   55176   55191       6   55128   55155   55176   55194       7
   55128   55155   55179   55197       6   55128   55155   55179   55200       7
   55125   55113   55122   55140       1   55125   55146  -55161   55140       1
   55125   55146   55161   55182       1   55122   55113   55125   55146       1
   55122   55140  -55161   55146       1   55122   55140   55161   55182       1
   55119   55110   55116   55128       1   55119   55134  -55152   55128       1
   55119   55134   55152   55170       1   55116   55110   55119   55134       1
   55116   55128  -55152   55134       1   55116   55128   55152   55170       1
   55116   55128   55155   55173       6   55116   55128   55155   55176       6
   55116   55128   55155   55179       6   55113   55107   55110   55116       4
   55113   55107   55110   55119       4   55113   55122   55140   55161       1
   55113   55125  -55146   55161       1   55110   55107   55113   55122       4
   55110   55107   55113   55125       4   55110   55116   55128   55152       1
   55110   55116   55128   55155       1   55110   55119  -55134   55152       1
   55107   55110   55116   55128       1   55107   55110   55119   55134       1
   55107   55113   55122   55140       1   55107   55113   55125   55146       1
   55098   55107   55110   55116       4   55098   55107   55110   55119       4
   55098   55107   55113   55122       4   55098   55107   55113   55125       4
   55092   55098   55107   55110       4   55092   55098   55107   55113       4
   55086   55098   55107   55110       4   55086   55098   55107   55113       4
   55074   55065   55071   55086       1   55074   55092  -55098   55086       1
   55074   55092   55098   55107       1   55071   55065   55074   55092       1
   55071   55086  -55098   55092       1   55071   55086   55098   55107       1
   55068   55062   55065   55071       3   55068   55062   55065   55074       3
   55065   55071   55086   55098       1   55065   55074  -55092   55098       1
   55062   55065   55071   55086       1   55062   55065   55074   55092       1
   55878   55929   55953   55971       3   55872   55929   55953   55971       3
   55866   55920   55950   55968       3   55860   55920   55950   55968       3
   55854   55911   55947   55965       3   55848   55911   55947   55965       3
   55842   55905   55944   55962       3   55836   55905   55944   55962       3
   55833   55893   55941   55959       3   55827   55893   55941   55959       3
   55818   55884   55938   55956       3   55812   55884   55938   55956       3
   55809   55770   55806   55872       1   55809   55878  -55929   55872       1
   55809   55878   55929   55953       1   55806   55770   55809   55878       1
   55806   55872  -55929   55878       1   55806   55872   55929   55953       1
   55803   55767   55800   55860       1   55803   55866  -55920   55860       1
   55803   55866   55920   55950       1   55800   55767   55803   55866       1
   55800   55860  -55920   55866       1   55800   55860   55920   55950       1
   55797   55761   55794   55848       1   55797   55854  -55911   55848       1
   55797   55854   55911   55947       1   55794   55761   55797   55854       1
   55794   55848  -55911   55854       1   55794   55848   55911   55947       1
   55791   55758   55788   55836       1   55791   55842  -55905   55836       1
   55791   55842   55905   55944       1   55788   55758   55791   55842       1
   55788   55836  -55905   55842       1   55788   55836   55905   55944       1
   55785   55755   55782   55827       1   55785   55833  -55893   55827       1
   55785   55833   55893   55941       1   55782   55755   55785   55833       1
   55782   55827  -55893   55833       1   55782   55827   55893   55941       1
   55779   55752   55776   55812       1   55779   55818  -55884   55812       1
   55779   55818   55884   55938       1   55776   55752   55779   55818       1
   55776   55812  -55884   55818       1   55776   55812   55884   55938       1
   55770   55743   55767   55800       4   55770   55743   55767   55803       4
   55770   55806   55872   55929       1   55770   55809  -55878   55929       1
   55767   55743   55770   55806       4   55767   55743   55770   55809       4
   55767   55800   55860   55920       1   55767   55803  -55866   55920       1
   55761   55734   55758   55788       4   55761   55734   55758   55791       4
   55761   55794   55848   55911       1   55761   55797  -55854   55911       1
   55758   55734   55761   55794       4   55758   55734   55761   55797       4
   55758   55788   55836   55905       1   55758   55791  -55842   55905       1
   55755   55731   55752   55776       4   55755   55731   55752   55779       4
   55755   55782   55827   55893       1   55755   55785  -55833   55893       1
   55752   55731   55755   55782       4   55752   55731   55755   55785       4
   55752   55776   55812   55884       1   55752   55779  -55818   55884       1
   55746   55713   55743   55767       4   55746   55713   55743   55770       4
   55743   55767   55800   55860       1   55743   55767   55803   55866       1
   55743   55770   55806   55872       1   55743   55770   55809   55878       1
   55737   55701   55734   55758       4   55737   55701   55734   55761       4
   55734   55758   55788   55836       1   55734   55758   55791   55842       1
   55734   55761   55794   55848       1   55734   55761   55797   55854       1
   55731   55752   55776   55812       1   55731   55752   55779   55818       1
   55731   55755   55782   55827       1   55731   55755   55785   55833       1
   55716   55746   55713   55743       1   55713   55743   55767   55800       4
   55713   55743   55767   55803       4   55713   55743   55770   55806       4
   55713   55743   55770   55809       4   55707   55677   55683   55716       5
   55707   55737   55701   55734       1   55701   55734   55758   55788       4
   55701   55734   55758   55791       4   55701   55734   55761   55794       4
   55701   55734   55761   55797       4   55695   55731   55752   55776       4
   55695   55731   55752   55779       4   55695   55731   55755   55782       4
   55695   55731   55755   55785       4   55689   55695   55731   55752       4
   55689   55695   55731   55755       4   55683   55662   55680   55713       1
   55683   55677   55707   55737       1   55683   55716  -55746   55713       1
   55680   55662   55683   55716       1   55680   55713   55743   55767       4
   55680   55713   55743   55770       4   55680   55713  -55746   55716       1
   55677   55659   55674   55701       1   55677   55683   55662   55680       1
   55677   55683   55716   55746       1   55677   55707  -55737   55701       1
   55674   55659   55677   55683       1   55674   55659   55677   55707       1
   55674   55701   55734   55758       4   55674   55701   55734   55761       4
   55674   55701  -55737   55707       1   55671   55695   55731   55752       4
   55671   55695   55731   55755       4   55668   55653   55656   55671       1
   55668   55689  -55695   55671       1   55668   55689   55695   55731       1
   55662   55638   55656   55671       6   55662   55638   55659   55674       6
   55662   55638  -55659   55677       7   55662   55680   55713   55743       1
   55662   55680   55713   55746       1   55662   55683   55677   55707       5
   55662   55683  -55716   55746       1   55659   55638   55656   55671       6
   55659   55638   55662   55680       6   55659   55638  -55662   55683       7
   55659   55674   55701   55734       1   55659   55674   55701   55737       1
   55659   55677  -55683   55662       5   55659   55677   55683   55716       5
   55659   55677  -55707   55737       1   55656   55638   55659   55674       6
   55656   55638   55659   55677       7   55656   55638   55662   55680       6
   55656   55638   55662   55683       7   55656   55653   55668   55689       1
   55656   55671  -55695   55689       1   55656   55671   55695   55731       1
   55653   55656   55638   55659       7   55653   55656   55638   55662       7
   55653   55656   55671   55695       1   55653   55668  -55689   55695       1
   55638   55611  -55635   55653       1   55638   55656   55653   55668       1
   55638   55656   55671   55695       1   55638   55659   55674   55701       1
   55638   55659  -55677   55683       1   55638   55659   55677   55707       1
   55638   55662   55680   55713       1   55638   55662  -55683   55677       1
   55638   55662   55683   55716       1   55635   55611  -55638   55656       7
   55635   55611   55638   55659       7   55635   55611   55638   55662       7
   55635   55653  -55656   55638       1   55635   55653   55656   55671       1
   55635   55653   55668   55689       1   55629   55644   55665   55686       3
   55623   55644   55665   55686       3   55617   55635   55611   55638       1
   55617   55635   55653   55656       5   55617   55635   55653   55668       5
   55611   55635  -55653   55656       5   55611   55635   55653   55668       5
   55611   55638  -55656   55653       7   55611   55638   55656   55671       6
   55611   55638   55659   55674       6   55611   55638   55659   55677       7
   55611   55638   55662   55680       6   55611   55638   55662   55683       7
   55608   55596   55605   55623       1   55608   55629  -55644   55623       1
   55608   55629   55644   55665       1   55605   55596   55608   55629       1
   55605   55623  -55644   55629       1   55605   55623   55644   55665       1
   55602   55593   55599   55611       1   55602   55617  -55635   55611       1
   55602   55617   55635   55653       1   55599   55593   55602   55617       1
   55599   55611  -55635   55617       1   55599   55611   55635   55653       1
   55599   55611   55638   55656       6   55599   55611   55638   55659       6
   55599   55611   55638   55662       6   55596   55590   55593   55599       4
   55596   55590   55593   55602       4   55596   55605   55623   55644       1
   55596   55608  -55629   55644       1   55593   55590   55596   55605       4
   55593   55590   55596   55608       4   55593   55599   55611   55635       1
   55593   55599   55611   55638       1   55593   55602  -55617   55635       1
   55590   55593   55599   55611       1   55590   55593   55602   55617       1
   55590   55596   55605   55623       1   55590   55596   55608   55629       1
   55581   55590   55593   55599       4   55581   55590   55593   55602       4
   55581   55590   55596   55605       4   55581   55590   55596   55608       4
   55575   55581   55590   55593       4   55575   55581   55590   55596       4
   55569   55581   55590   55593       4   55569   55581   55590   55596       4
   55557   55548   55554   55569       1   55557   55575  -55581   55569       1
   55557   55575   55581   55590       1   55554   55548   55557   55575       1
   55554   55569  -55581   55575       1   55554   55569   55581   55590       1
   55551   55545   55548   55554       3   55551   55545   55548   55557       3
   55548   55554   55569   55581       1   55548   55557  -55575   55581       1
   55545   55548   55554   55569       1   55545   55548   55557   55575       1
   56361   56412   56436   56454       3   56355   56412   56436   56454       3
   56349   56403   56433   56451       3   56343   56403   56433   56451       3
   56337   56394   56430   56448       3   56331   56394   56430   56448       3
   56325   56388   56427   56445       3   56319   56388   56427   56445       3
   56316   56376   56424   56442       3   56310   56376   56424   56442       3
   56301   56367   56421   56439       3   56295   56367   56421   56439       3
   56292   56253   56289   56355       1   56292   56361  -56412   56355       1
   56292   56361   56412   56436       1   56289   56253   56292   56361       1
   56289   56355  -56412   56361       1   56289   56355   56412   56436       1
   56286   56250   56283   56343       1   56286   56349  -56403   56343       1
   56286   56349   56403   56433       1   56283   56250   56286   56349       1
   56283   56343  -56403   56349       1   56283   56343   56403   56433       1
   56280   56244   56277   56331       1   56280   56337  -56394   56331       1
   56280   56337   56394   56430       1   56277   56244   56280   56337       1
   56277   56331  -56394   56337       1   56277   56331   56394   56430       1
   56274   56241   56271   56319       1   56274   56325  -56388   56319       1
   56274   56325   56388   56427       1   56271   56241   56274   56325       1
   56271   56319  -56388   56325       1   56271   56319   56388   56427       1
   56268   56238   56265   56310       1   56268   56316  -56376   56310       1
   56268   56316   56376   56424       1   56265   56238   56268   56316       1
   56265   56310  -56376   56316       1   56265   56310   56376   56424       1
   56262   56235   56259   56295       1   56262   56301  -56367   56295       1
   56262   56301   56367   56421       1   56259   56235   56262   56301       1
   56259   56295  -56367   56301       1   56259   56295   56367   56421       1
   56253   56226   56250   56283       4   56253   56226   56250   56286       4
   56253   56289   56355   56412       1   56253   56292  -56361   56412       1
   56250   56226   56253   56289       4   56250   56226   56253   56292       4
   56250   56283   56343   56403       1   56250   56286  -56349   56403       1
   56244   56217   56241   56271       4   56244   56217   56241   56274       4
   56244   56277   56331   56394       1   56244   56280  -56337   56394       1
   56241   56217   56244   56277       4   56241   56217   56244   56280       4
   56241   56271   56319   56388       1   56241   56274  -56325   56388       1
   56238   56214   56235   56259       4   56238   56214   56235   56262       4
   56238   56265   56310   56376       1   56238   56268  -56316   56376       1
   56235   56214   56238   56265       4   56235   56214   56238   56268       4
   56235   56259   56295   56367       1   56235   56262  -56301   56367       1
   56229   56196   56226   56250       4   56229   56196   56226   56253       4
   56226   56250   56283   56343       1   56226   56250   56286   56349       1
   56226   56253   56289   56355       1   56226   56253   56292   56361       1
   56220   56184   56217   56241       4   56220   56184   56217   56244       4
   56217   56241   56271   56319       1   56217   56241   56274   56325       1
   56217   56244   56277   56331       1   56217   56244   56280   56337       1
   56214   56235   56259   56295       1   56214   56235   56262   56301       1
   56214   56238   56265   56310       1   56214   56238   56268   56316       1
   56199   56229   56196   56226       1   56196   56226   56250   56283       4
   56196   56226   56250   56286       4   56196   56226   56253   56289       4
   56196   56226   56253   56292       4   56190   56160   56166   56199       5
   56190   56220   56184   56217       1   56184   56217   56241   56271       4
   56184   56217   56241   56274       4   56184   56217   56244   56277       4
   56184   56217   56244   56280       4   56178   56214   56235   56259       4
   56178   56214   56235   56262       4   56178   56214   56238   56265       4
   56178   56214   56238   56268       4   56172   56178   56214   56235       4
   56172   56178   56214   56238       4   56166   56145   56163   56196       1
   56166   56160   56190   56220       1   56166   56199  -56229   56196       1
   56163   56145   56166   56199       1   56163   56196   56226   56250       4
   56163   56196   56226   56253       4   56163   56196  -56229   56199       1
   56160   56142   56157   56184       1   56160   56166   56145   56163       1
   56160   56166   56199   56229       1   56160   56190  -56220   56184       1
   56157   56142   56160   56166       1   56157   56142   56160   56190       1
   56157   56184   56217   56241       4   56157   56184   56217   56244       4
   56157   56184  -56220   56190       1   56154   56178   56214   56235       4
   56154   56178   56214   56238       4   56151   56136   56139   56154       1
   56151   56172  -56178   56154       1   56151   56172   56178   56214       1
   56145   56121   56139   56154       6   56145   56121   56142   56157       6
   56145   56121  -56142   56160       7   56145   56163   56196   56226       1
   56145   56163   56196   56229       1   56145   56166   56160   56190       5
   56145   56166  -56199   56229       1   56142   56121   56139   56154       6
   56142   56121   56145   56163       6   56142   56121  -56145   56166       7
   56142   56157   56184   56217       1   56142   56157   56184   56220       1
   56142   56160  -56166   56145       5   56142   56160   56166   56199       5
   56142   56160  -56190   56220       1   56139   56121   56142   56157       6
   56139   56121   56142   56160       7   56139   56121   56145   56163       6
   56139   56121   56145   56166       7   56139   56136   56151   56172       1
   56139   56154  -56178   56172       1   56139   56154   56178   56214       1
   56136   56139   56121   56142       7   56136   56139   56121   56145       7
   56136   56139   56154   56178       1   56136   56151  -56172   56178       1
   56121   56094  -56118   56136       1   56121   56139   56136   56151       1
   56121   56139   56154   56178       1   56121   56142   56157   56184       1
   56121   56142  -56160   56166       1   56121   56142   56160   56190       1
   56121   56145   56163   56196       1   56121   56145  -56166   56160       1
   56121   56145   56166   56199       1   56118   56094  -56121   56139       7
   56118   56094   56121   56142       7   56118   56094   56121   56145       7
   56118   56136  -56139   56121       1   56118   56136   56139   56154       1
   56118   56136   56151   56172       1   56112   56127   56148   56169       3
   56106   56127   56148   56169       3   56100   56118   56094   56121       1
   56100   56118   56136   56139       5   56100   56118   56136   56151       5
   56094   56118  -56136   56139       5   56094   56118   56136   56151       5
   56094   56121  -56139   56136       7   56094   56121   56139   56154       6
   56094   56121   56142   56157       6   56094   56121   56142   56160       7
   56094   56121   56145   56163       6   56094   56121   56145   56166       7
   56091   56079   56088   56106       1   56091   56112  -56127   56106       1
   56091   56112   56127   56148       1   56088   56079   56091   56112       1
   56088   56106  -56127   56112       1   56088   56106   56127   56148       1
   56085   56076   56082   56094       1   56085   56100  -56118   56094       1
   56085   56100   56118   56136       1   56082   56076   56085   56100       1
   56082   56094  -56118   56100       1   56082   56094   56118   56136       1
   56082   56094   56121   56139       6   56082   56094   56121   56142       6
   56082   56094   56121   56145       6   56079   56073   56076   56082       4
   56079   56073   56076   56085       4   56079   56088   56106   56127       1
   56079   56091  -56112   56127       1   56076   56073   56079   56088       4
   56076   56073   56079   56091       4   56076   56082   56094   56118       1
   56076   56082   56094   56121       1   56076   56085  -56100   56118       1
   56073   56076   56082   56094       1   56073   56076   56085   56100       1
   56073   56079   56088   56106       1   56073   56079   56091   56112       1
   56064   56073   56076   56082       4   56064   56073   56076   56085       4
   56064   56073   56079   56088       4   56064   56073   56079   56091       4
   56058   56064   56073   56076       4   56058   56064   56073   56079       4
   56052   56064   56073   56076       4   56052   56064   56073   56079       4
   56040   56031   56037   56052       1   56040   56058  -56064   56052       1
   56040   56058   56064   56073       1   56037   56031   56040   56058       1
   56037   56052  -56064   56058       1   56037   56052   56064   56073       1
   56034   56028   56031   56037       3   56034   56028   56031   56040       3
   56031   56037   56052   56064       1   56031   56040  -56058   56064       1
   56028   56031   56037   56052       1   56028   56031   56040   56058       1
   56844   56895   56919   56937       3   56838   56895   56919   56937       3
   56832   56886   56916   56934       3   56826   56886   56916   56934       3
   56820   56877   56913   56931       3   56814   56877   56913   56931       3
   56808   56871   56910   56928       3   56802   56871   56910   56928       3
   56799   56859   56907   56925       3   56793   56859   56907   56925       3
   56784   56850   56904   56922       3   56778   56850   56904   56922       3
   56775   56736   56772   56838       1   56775   56844  -56895   56838       1
   56775   56844   56895   56919       1   56772   56736   56775   56844       1
   56772   56838  -56895   56844       1   56772   56838   56895   56919       1
   56769   56733   56766   56826       1   56769   56832  -56886   56826       1
   56769   56832   56886   56916       1   56766   56733   56769   56832       1
   56766   56826  -56886   56832       1   56766   56826   56886   56916       1
   56763   56727   56760   56814       1   56763   56820  -56877   56814       1
   56763   56820   56877   56913       1   56760   56727   56763   56820       1
   56760   56814  -56877   56820       1   56760   56814   56877   56913       1
   56757   56724   56754   56802       1   56757   56808  -56871   56802       1
   56757   56808   56871   56910       1   56754   56724   56757   56808       1
   56754   56802  -56871   56808       1   56754   56802   56871   56910       1
   56751   56721   56748   56793       1   56751   56799  -56859   56793       1
   56751   56799   56859   56907       1   56748   56721   56751   56799       1
   56748   56793  -56859   56799       1   56748   56793   56859   56907       1
   56745   56718   56742   56778       1   56745   56784  -56850   56778       1
   56745   56784   56850   56904       1   56742   56718   56745   56784       1
   56742   56778  -56850   56784       1   56742   56778   56850   56904       1
   56736   56709   56733   56766       4   56736   56709   56733   56769       4
   56736   56772   56838   56895       1   56736   56775  -56844   56895       1
   56733   56709   56736   56772       4   56733   56709   56736   56775       4
   56733   56766   56826   56886       1   56733   56769  -56832   56886       1
   56727   56700   56724   56754       4   56727   56700   56724   56757       4
   56727   56760   56814   56877       1   56727   56763  -56820   56877       1
   56724   56700   56727   56760       4   56724   56700   56727   56763       4
   56724   56754   56802   56871       1   56724   56757  -56808   56871       1
   56721   56697   56718   56742       4   56721   56697   56718   56745       4
   56721   56748   56793   56859       1   56721   56751  -56799   56859       1
   56718   56697   56721   56748       4   56718   56697   56721   56751       4
   56718   56742   56778   56850       1   56718   56745  -56784   56850       1
   56712   56679   56709   56733       4   56712   56679   56709   56736       4
   56709   56733   56766   56826       1   56709   56733   56769   56832       1
   56709   56736   56772   56838       1   56709   56736   56775   56844       1
   56703   56667   56700   56724       4   56703   56667   56700   56727       4
   56700   56724   56754   56802       1   56700   56724   56757   56808       1
   56700   56727   56760   56814       1   56700   56727   56763   56820       1
   56697   56718   56742   56778       1   56697   56718   56745   56784       1
   56697   56721   56748   56793       1   56697   56721   56751   56799       1
   56682   56712   56679   56709       1   56679   56709   56733   56766       4
   56679   56709   56733   56769       4   56679   56709   56736   56772       4
   56679   56709   56736   56775       4   56673   56643   56649   56682       5
   56673   56703   56667   56700       1   56667   56700   56724   56754       4
   56667   56700   56724   56757       4   56667   56700   56727   56760       4
   56667   56700   56727   56763       4   56661   56697   56718   56742       4
   56661   56697   56718   56745       4   56661   56697   56721   56748       4
   56661   56697   56721   56751       4   56655   56661   56697   56718       4
   56655   56661   56697   56721       4   56649   56628   56646   56679       1
   56649   56643   56673   56703       1   56649   56682  -56712   56679       1
   56646   56628   56649   56682       1   56646   56679   56709   56733       4
   56646   56679   56709   56736       4   56646   56679  -56712   56682       1
   56643   56625   56640   56667       1   56643   56649   56628   56646       1
   56643   56649   56682   56712       1   56643   56673  -56703   56667       1
   56640   56625   56643   56649       1   56640   56625   56643   56673       1
   56640   56667   56700   56724       4   56640   56667   56700   56727       4
   56640   56667  -56703   56673       1   56637   56661   56697   56718       4
   56637   56661   56697   56721       4   56634   56619   56622   56637       1
   56634   56655  -56661   56637       1   56634   56655   56661   56697       1
   56628   56604   56622   56637       6   56628   56604   56625   56640       6
   56628   56604  -56625   56643       7   56628   56646   56679   56709       1
   56628   56646   56679   56712       1   56628   56649   56643   56673       5
   56628   56649  -56682   56712       1   56625   56604   56622   56637       6
   56625   56604   56628   56646       6   56625   56604  -56628   56649       7
   56625   56640   56667   56700       1   56625   56640   56667   56703       1
   56625   56643  -56649   56628       5   56625   56643   56649   56682       5
   56625   56643  -56673   56703       1   56622   56604   56625   56640       6
   56622   56604   56625   56643       7   56622   56604   56628   56646       6
   56622   56604   56628   56649       7   56622   56619   56634   56655       1
   56622   56637  -56661   56655       1   56622   56637   56661   56697       1
   56619   56622   56604   56625       7   56619   56622   56604   56628       7
   56619   56622   56637   56661       1   56619   56634  -56655   56661       1
   56604   56577  -56601   56619       1   56604   56622   56619   56634       1
   56604   56622   56637   56661       1   56604   56625   56640   56667       1
   56604   56625  -56643   56649       1   56604   56625   56643   56673       1
   56604   56628   56646   56679       1   56604   56628  -56649   56643       1
   56604   56628   56649   56682       1   56601   56577  -56604   56622       7
   56601   56577   56604   56625       7   56601   56577   56604   56628       7
   56601   56619  -56622   56604       1   56601   56619   56622   56637       1
   56601   56619   56634   56655       1   56595   56610   56631   56652       3
   56589   56610   56631   56652       3   56583   56601   56577   56604       1
   56583   56601   56619   56622       5   56583   56601   56619   56634       5
   56577   56601  -56619   56622       5   56577   56601   56619   56634       5
   56577   56604  -56622   56619       7   56577   56604   56622   56637       6
   56577   56604   56625   56640       6   56577   56604   56625   56643       7
   56577   56604   56628   56646       6   56577   56604   56628   56649       7
   56574   56562   56571   56589       1   56574   56595  -56610   56589       1
   56574   56595   56610   56631       1   56571   56562   56574   56595       1
   56571   56589  -56610   56595       1   56571   56589   56610   56631       1
   56568   56559   56565   56577       1   56568   56583  -56601   56577       1
   56568   56583   56601   56619       1   56565   56559   56568   56583       1
   56565   56577  -56601   56583       1   56565   56577   56601   56619       1
   56565   56577   56604   56622       6   56565   56577   56604   56625       6
   56565   56577   56604   56628       6   56562   56556   56559   56565       4
   56562   56556   56559   56568       4   56562   56571   56589   56610       1
   56562   56574  -56595   56610       1   56559   56556   56562   56571       4
   56559   56556   56562   56574       4   56559   56565   56577   56601       1
   56559   56565   56577   56604       1   56559   56568  -56583   56601       1
   56556   56559   56565   56577       1   56556   56559   56568   56583       1
   56556   56562   56571   56589       1   56556   56562   56574   56595       1
   56547   56556   56559   56565       4   56547   56556   56559   56568       4
   56547   56556   56562   56571       4   56547   56556   56562   56574       4
   56541   56547   56556   56559       4   56541   56547   56556   56562       4
   56535   56547   56556   56559       4   56535   56547   56556   56562       4
   56523   56514   56520   56535       1   56523   56541  -56547   56535       1
   56523   56541   56547   56556       1   56520   56514   56523   56541       1
   56520   56535  -56547   56541       1   56520   56535   56547   56556       1
   56517   56511   56514   56520       3   56517   56511   56514   56523       3
   56514   56520   56535   56547       1   56514   56523  -56541   56547       1
   56511   56514   56520   56535       1   56511   56514   56523   56541       1
   57327   57378   57402   57420       3   57321   57378   57402   57420       3
   57315   57369   57399   57417       3   57309   57369   57399   57417       3
   57303   57360   57396   57414       3   57297   57360   57396   57414       3
   57291   57354   57393   57411       3   57285   57354   57393   57411       3
   57282   57342   57390   57408       3   57276   57342   57390   57408       3
   57267   57333   57387   57405       3   57261   57333   57387   57405       3
   57258   57219   57255   57321       1   57258   57327  -57378   57321       1
   57258   57327   57378   57402       1   57255   57219   57258   57327       1
   57255   57321  -57378   57327       1   57255   57321   57378   57402       1
   57252   57216   57249   57309       1   57252   57315  -57369   57309       1
   57252   57315   57369   57399       1   57249   57216   57252   57315       1
   57249   57309  -57369   57315       1   57249   57309   57369   57399       1
   57246   57210   57243   57297       1   57246   57303  -57360   57297       1
   57246   57303   57360   57396       1   57243   57210   57246   57303       1
   57243   57297  -57360   57303       1   57243   57297   57360   57396       1
   57240   57207   57237   57285       1   57240   57291  -57354   57285       1
   57240   57291   57354   57393       1   57237   57207   57240   57291       1
   57237   57285  -57354   57291       1   57237   57285   57354   57393       1
   57234   57204   57231   57276       1   57234   57282  -57342   57276       1
   57234   57282   57342   57390       1   57231   57204   57234   57282       1
   57231   57276  -57342   57282       1   57231   57276   57342   57390       1
   57228   57201   57225   57261       1   57228   57267  -57333   57261       1
   57228   57267   57333   57387       1   57225   57201   57228   57267       1
   57225   57261  -57333   57267       1   57225   57261   57333   57387       1
   57219   57192   57216   57249       4   57219   57192   57216   57252       4
   57219   57255   57321   57378       1   57219   57258  -57327   57378       1
   57216   57192   57219   57255       4   57216   57192   57219   57258       4
   57216   57249   57309   57369       1   57216   57252  -57315   57369       1
   57210   57183   57207   57237       4   57210   57183   57207   57240       4
   57210   57243   57297   57360       1   57210   57246  -57303   57360       1
   57207   57183   57210   57243       4   57207   57183   57210   57246       4
   57207   57237   57285   57354       1   57207   57240  -57291   57354       1
   57204   57180   57201   57225       4   57204   57180   57201   57228       4
   57204   57231   57276   57342       1   57204   57234  -57282   57342       1
   57201   57180   57204   57231       4   57201   57180   57204   57234       4
   57201   57225   57261   57333       1   57201   57228  -57267   57333       1
   57195   57162   57192   57216       4   57195   57162   57192   57219       4
   57192   57216   57249   57309       1   57192   57216   57252   57315       1
   57192   57219   57255   57321       1   57192   57219   57258   57327       1
   57186   57150   57183   57207       4   57186   57150   57183   57210       4
   57183   57207   57237   57285       1   57183   57207   57240   57291       1
   57183   57210   57243   57297       1   57183   57210   57246   57303       1
   57180   57201   57225   57261       1   57180   57201   57228   57267       1
   57180   57204   57231   57276       1   57180   57204   57234   57282       1
   57165   57195   57162   57192       1   57162   57192   57216   57249       4
   57162   57192   57216   57252       4   57162   57192   57219   57255       4
   57162   57192   57219   57258       4   57156   57126   57132   57165       5
   57156   57186   57150   57183       1   57150   57183   57207   57237       4
   57150   57183   57207   57240       4   57150   57183   57210   57243       4
   57150   57183   57210   57246       4   57144   57180   57201   57225       4
   57144   57180   57201   57228       4   57144   57180   57204   57231       4
   57144   57180   57204   57234       4   57138   57144   57180   57201       4
   57138   57144   57180   57204       4   57132   57111   57129   57162       1
   57132   57126   57156   57186       1   57132   57165  -57195   57162       1
   57129   57111   57132   57165       1   57129   57162   57192   57216       4
   57129   57162   57192   57219       4   57129   57162  -57195   57165       1
   57126   57108   57123   57150       1   57126   57132   57111   57129       1
   57126   57132   57165   57195       1   57126   57156  -57186   57150       1
   57123   57108   57126   57132       1   57123   57108   57126   57156       1
   57123   57150   57183   57207       4   57123   57150   57183   57210       4
   57123   57150  -57186   57156       1   57120   57144   57180   57201       4
   57120   57144   57180   57204       4   57117   57102   57105   57120       1
   57117   57138  -57144   57120       1   57117   57138   57144   57180       1
   57111   57087   57105   57120       6   57111   57087   57108   57123       6
   57111   57087  -57108   57126       7   57111   57129   57162   57192       1
   57111   57129   57162   57195       1   57111   57132   57126   57156       5
   57111   57132  -57165   57195       1   57108   57087   57105   57120       6
   57108   57087   57111   57129       6   57108   57087  -57111   57132       7
   57108   57123   57150   57183       1   57108   57123   57150   57186       1
   57108   57126  -57132   57111       5   57108   57126   57132   57165       5
   57108   57126  -57156   57186       1   57105   57087   57108   57123       6
   57105   57087   57108   57126       7   57105   57087   57111   57129       6
   57105   57087   57111   57132       7   57105   57102   57117   57138       1
   57105   57120  -57144   57138       1   57105   57120   57144   57180       1
   57102   57105   57087   57108       7   57102   57105   57087   57111       7
   57102   57105   57120   57144       1   57102   57117  -57138   57144       1
   57087   57060  -57084   57102       1   57087   57105   57102   57117       1
   57087   57105   57120   57144       1   57087   57108   57123   57150       1
   57087   57108  -57126   57132       1   57087   57108   57126   57156       1
   57087   57111   57129   57162       1   57087   57111  -57132   57126       1
   57087   57111   57132   57165       1   57084   57060  -57087   57105       7
   57084   57060   57087   57108       7   57084   57060   57087   57111       7
   57084   57102  -57105   57087       1   57084   57102   57105   57120       1
   57084   57102   57117   57138       1   57078   57093   57114   57135       3
   57072   57093   57114   57135       3   57066   57084   57060   57087       1
   57066   57084   57102   57105       5   57066   57084   57102   57117       5
   57060   57084  -57102   57105       5   57060   57084   57102   57117       5
   57060   57087  -57105   57102       7   57060   57087   57105   57120       6
   57060   57087   57108   57123       6   57060   57087   57108   57126       7
   57060   57087   57111   57129       6   57060   57087   57111   57132       7
   57057   57045   57054   57072       1   57057   57078  -57093   57072       1
   57057   57078   57093   57114       1   57054   57045   57057   57078       1
   57054   57072  -57093   57078       1   57054   57072   57093   57114       1
   57051   57042   57048   57060       1   57051   57066  -57084   57060       1
   57051   57066   57084   57102       1   57048   57042   57051   57066       1
   57048   57060  -57084   57066       1   57048   57060   57084   57102       1
   57048   57060   57087   57105       6   57048   57060   57087   57108       6
   57048   57060   57087   57111       6   57045   57039   57042   57048       4
   57045   57039   57042   57051       4   57045   57054   57072   57093       1
   57045   57057  -57078   57093       1   57042   57039   57045   57054       4
   57042   57039   57045   57057       4   57042   57048   57060   57084       1
   57042   57048   57060   57087       1   57042   57051  -57066   57084       1
   57039   57042   57048   57060       1   57039   57042   57051   57066       1
   57039   57045   57054   57072       1   57039   57045   57057   57078       1
   57030   57039   57042   57048       4   57030   57039   57042   57051       4
   57030   57039   57045   57054       4   57030   57039   57045   57057       4
   57024   57030   57039   57042       4   57024   57030   57039   57045       4
   57018   57030   57039   57042       4   57018   57030   57039   57045       4
   57006   56997   57003   57018       1   57006   57024  -57030   57018       1
   57006   57024   57030   57039       1   57003   56997   57006   57024       1
   57003   57018  -57030   57024       1   57003   57018   57030   57039       1
   57000   56994   56997   57003       3   57000   56994   56997   57006       3
   56997   57003   57018   57030       1   56997   57006  -57024   57030       1
   56994   56997   57003   57018       1   56994   56997   57006   57024       1
   57810   57861   57885   57903       3   57804   57861   57885   57903       3
   57798   57852   57882   57900       3   57792   57852   57882   57900       3
   57786   57843   57879   57897       3   57780   57843   57879   57897       3
   57774   57837   57876   57894       3   57768   57837   57876   57894       3
   57765   57825   57873   57891       3   57759   57825   57873   57891       3
   57750   57816   57870   57888       3   57744   57816   57870   57888       3
   57741   57702   57738   57804       1   57741   57810  -57861   57804       1
   57741   57810   57861   57885       1   57738   57702   57741   57810       1
   57738   57804  -57861   57810       1   57738   57804   57861   57885       1
   57735   57699   57732   57792       1   57735   57798  -57852   57792       1
   57735   57798   57852   57882       1   57732   57699   57735   57798       1
   57732   57792  -57852   57798       1   57732   57792   57852   57882       1
   57729   57693   57726   57780       1   57729   57786  -57843   57780       1
   57729   57786   57843   57879       1   57726   57693   57729   57786       1
   57726   57780  -57843   57786       1   57726   57780   57843   57879       1
   57723   57690   57720   57768       1   57723   57774  -57837   57768       1
   57723   57774   57837   57876       1   57720   57690   57723   57774       1
   57720   57768  -57837   57774       1   57720   57768   57837   57876       1
   57717   57687   57714   57759       1   57717   57765  -57825   57759       1
   57717   57765   57825   57873       1   57714   57687   57717   57765       1
   57714   57759  -57825   57765       1   57714   57759   57825   57873       1
   57711   57684   57708   57744       1   57711   57750  -57816   57744       1
   57711   57750   57816   57870       1   57708   57684   57711   57750       1
   57708   57744  -57816   57750       1   57708   57744   57816   57870       1
   57702   57675   57699   57732       4   57702   57675   57699   57735       4
   57702   57738   57804   57861       1   57702   57741  -57810   57861       1
   57699   57675   57702   57738       4   57699   57675   57702   57741       4
   57699   57732   57792   57852       1   57699   57735  -57798   57852       1
   57693   57666   57690   57720       4   57693   57666   57690   57723       4
   57693   57726   57780   57843       1   57693   57729  -57786   57843       1
   57690   57666   57693   57726       4   57690   57666   57693   57729       4
   57690   57720   57768   57837       1   57690   57723  -57774   57837       1
   57687   57663   57684   57708       4   57687   57663   57684   57711       4
   57687   57714   57759   57825       1   57687   57717  -57765   57825       1
   57684   57663   57687   57714       4   57684   57663   57687   57717       4
   57684   57708   57744   57816       1   57684   57711  -57750   57816       1
   57678   57645   57675   57699       4   57678   57645   57675   57702       4
   57675   57699   57732   57792       1   57675   57699   57735   57798       1
   57675   57702   57738   57804       1   57675   57702   57741   57810       1
   57669   57633   57666   57690       4   57669   57633   57666   57693       4
   57666   57690   57720   57768       1   57666   57690   57723   57774       1
   57666   57693   57726   57780       1   57666   57693   57729   57786       1
   57663   57684   57708   57744       1   57663   57684   57711   57750       1
   57663   57687   57714   57759       1   57663   57687   57717   57765       1
   57648   57678   57645   57675       1   57645   57675   57699   57732       4
   57645   57675   57699   57735       4   57645   57675   57702   57738       4
   57645   57675   57702   57741       4   57639   57609   57615   57648       5
   57639   57669   57633   57666       1   57633   57666   57690   57720       4
   57633   57666   57690   57723       4   57633   57666   57693   57726       4
   57633   57666   57693   57729       4   57627   57663   57684   57708       4
   57627   57663   57684   57711       4   57627   57663   57687   57714       4
   57627   57663   57687   57717       4   57621   57627   57663   57684       4
   57621   57627   57663   57687       4   57615   57594   57612   57645       1
   57615   57609   57639   57669       1   57615   57648  -57678   57645       1
   57612   57594   57615   57648       1   57612   57645   57675   57699       4
   57612   57645   57675   57702       4   57612   57645  -57678   57648       1
   57609   57591   57606   57633       1   57609   57615   57594   57612       1
   57609   57615   57648   57678       1   57609   57639  -57669   57633       1
   57606   57591   57609   57615       1   57606   57591   57609   57639       1
   57606   57633   57666   57690       4   57606   57633   57666   57693       4
   57606   57633  -57669   57639       1   57603   57627   57663   57684       4
   57603   57627   57663   57687       4   57600   57585   57588   57603       1
   57600   57621  -57627   57603       1   57600   57621   57627   57663       1
   57594   57570   57588   57603       6   57594   57570   57591   57606       6
   57594   57570  -57591   57609       7   57594   57612   57645   57675       1
   57594   57612   57645   57678       1   57594   57615   57609   57639       5
   57594   57615  -57648   57678       1   57591   57570   57588   57603       6
   57591   57570   57594   57612       6   57591   57570  -57594   57615       7
   57591   57606   57633   57666       1   57591   57606   57633   57669       1
   57591   57609  -57615   57594       5   57591   57609   57615   57648       5
   57591   57609  -57639   57669       1   57588   57570   57591   57606       6
   57588   57570   57591   57609       7   57588   57570   57594   57612       6
   57588   57570   57594   57615       7   57588   57585   57600   57621       1
   57588   57603  -57627   57621       1   57588   57603   57627   57663       1
   57585   57588   57570   57591       7   57585   57588   57570   57594       7
   57585   57588   57603   57627       1   57585   57600  -57621   57627       1
   57570   57543  -57567   57585       1   57570   57588   57585   57600       1
   57570   57588   57603   57627       1   57570   57591   57606   57633       1
   57570   57591  -57609   57615       1   57570   57591   57609   57639       1
   57570   57594   57612   57645       1   57570   57594  -57615   57609       1
   57570   57594   57615   57648       1   57567   57543  -57570   57588       7
   57567   57543   57570   57591       7   57567   57543   57570   57594       7
   57567   57585  -57588   57570       1   57567   57585   57588   57603       1
   57567   57585   57600   57621       1   57561   57576   57597   57618       3
   57555   57576   57597   57618       3   57549   57567   57543   57570       1
   57549   57567   57585   57588       5   57549   57567   57585   57600       5
   57543   57567  -57585   57588       5   57543   57567   57585   57600       5
   57543   57570  -57588   57585       7   57543   57570   57588   57603       6
   57543   57570   57591   57606       6   57543   57570   57591   57609       7
   57543   57570   57594   57612       6   57543   57570   57594   57615       7
   57540   57528   57537   57555       1   57540   57561  -57576   57555       1
   57540   57561   57576   57597       1   57537   57528   57540   57561       1
   57537   57555  -57576   57561       1   57537   57555   57576   57597       1
   57534   57525   57531   57543       1   57534   57549  -57567   57543       1
   57534   57549   57567   57585       1   57531   57525   57534   57549       1
   57531   57543  -57567   57549       1   57531   57543   57567   57585       1
   57531   57543   57570   57588       6   57531   57543   57570   57591       6
   57531   57543   57570   57594       6   57528   57522   57525   57531       4
   57528   57522   57525   57534       4   57528   57537   57555   57576       1
   57528   57540  -57561   57576       1   57525   57522   57528   57537       4
   57525   57522   57528   57540       4   57525   57531   57543   57567       1
   57525   57531   57543   57570       1   57525   57534  -57549   57567       1
   57522   57525   57531   57543       1   57522   57525   57534   57549       1
   57522   57528   57537   57555       1   57522   57528   57540   57561       1
   57513   57522   57525   57531       4   57513   57522   57525   57534       4
   57513   57522   57528   57537       4   57513   57522   57528   57540       4
   57507   57513   57522   57525       4   57507   57513   57522   57528       4
   57501   57513   57522   57525       4   57501   57513   57522   57528       4
   57489   57480   57486   57501       1   57489   57507  -57513   57501       1
   57489   57507   57513   57522       1   57486   57480   57489   57507       1
   57486   57501  -57513   57507       1   57486   57501   57513   57522       1
   57483   57477   57480   57486       3   57483   57477   57480   57489       3
   57480   57486   57501   57513       1   57480   57489  -57507   57513       1
   57477   57480   57486   57501       1   57477   57480   57489   57507       1
   58293   58344   58368   58386       3   58287   58344   58368   58386       3
   58281   58335   58365   58383       3   58275   58335   58365   58383       3
   58269   58326   58362   58380       3   58263   58326   58362   58380       3
   58257   58320   58359   58377       3   58251   58320   58359   58377       3
   58248   58308   58356   58374       3   58242   58308   58356   58374       3
   58233   58299   58353   58371       3   58227   58299   58353   58371       3
   58224   58185   58221   58287       1   58224   58293  -58344   58287       1
   58224   58293   58344   58368       1   58221   58185   58224   58293       1
   58221   58287  -58344   58293       1   58221   58287   58344   58368       1
   58218   58182   58215   58275       1   58218   58281  -58335   58275       1
   58218   58281   58335   58365       1   58215   58182   58218   58281       1
   58215   58275  -58335   58281       1   58215   58275   58335   58365       1
   58212   58176   58209   58263       1   58212   58269  -58326   58263       1
   58212   58269   58326   58362       1   58209   58176   58212   58269       1
   58209   58263  -58326   58269       1   58209   58263   58326   58362       1
   58206   58173   58203   58251       1   58206   58257  -58320   58251       1
   58206   58257   58320   58359       1   58203   58173   58206   58257       1
   58203   58251  -58320   58257       1   58203   58251   58320   58359       1
   58200   58170   58197   58242       1   58200   58248  -58308   58242       1
   58200   58248   58308   58356       1   58197   58170   58200   58248       1
   58197   58242  -58308   58248       1   58197   58242   58308   58356       1
   58194   58167   58191   58227       1   58194   58233  -58299   58227       1
   58194   58233   58299   58353       1   58191   58167   58194   58233       1
   58191   58227  -58299   58233       1   58191   58227   58299   58353       1
   58185   58158   58182   58215       4   58185   58158   58182   58218       4
   58185   58221   58287   58344       1   58185   58224  -58293   58344       1
   58182   58158   58185   58221       4   58182   58158   58185   58224       4
   58182   58215   58275   58335       1   58182   58218  -58281   58335       1
   58176   58149   58173   58203       4   58176   58149   58173   58206       4
   58176   58209   58263   58326       1   58176   58212  -58269   58326       1
   58173   58149   58176   58209       4   58173   58149   58176   58212       4
   58173   58203   58251   58320       1   58173   58206  -58257   58320       1
   58170   58146   58167   58191       4   58170   58146   58167   58194       4
   58170   58197   58242   58308       1   58170   58200  -58248   58308       1
   58167   58146   58170   58197       4   58167   58146   58170   58200       4
   58167   58191   58227   58299       1   58167   58194  -58233   58299       1
   58161   58128   58158   58182       4   58161   58128   58158   58185       4
   58158   58182   58215   58275       1   58158   58182   58218   58281       1
   58158   58185   58221   58287       1   58158   58185   58224   58293       1
   58152   58116   58149   58173       4   58152   58116   58149   58176       4
   58149   58173   58203   58251       1   58149   58173   58206   58257       1
   58149   58176   58209   58263       1   58149   58176   58212   58269       1
   58146   58167   58191   58227       1   58146   58167   58194   58233       1
   58146   58170   58197   58242       1   58146   58170   58200   58248       1
   58131   58161   58128   58158       1   58128   58158   58182   58215       4
   58128   58158   58182   58218       4   58128   58158   58185   58221       4
   58128   58158   58185   58224       4   58122   58092   58098   58131       5
   58122   58152   58116   58149       1   58116   58149   58173   58203       4
   58116   58149   58173   58206       4   58116   58149   58176   58209       4
   58116   58149   58176   58212       4   58110   58146   58167   58191       4
   58110   58146   58167   58194       4   58110   58146   58170   58197       4
   58110   58146   58170   58200       4   58104   58110   58146   58167       4
   58104   58110   58146   58170       4   58098   58077   58095   58128       1
   58098   58092   58122   58152       1   58098   58131  -58161   58128       1
   58095   58077   58098   58131       1   58095   58128   58158   58182       4
   58095   58128   58158   58185       4   58095   58128  -58161   58131       1
   58092   58074   58089   58116       1   58092   58098   58077   58095       1
   58092   58098   58131   58161       1   58092   58122  -58152   58116       1
   58089   58074   58092   58098       1   58089   58074   58092   58122       1
   58089   58116   58149   58173       4   58089   58116   58149   58176       4
   58089   58116  -58152   58122       1   58086   58110   58146   58167       4
   58086   58110   58146   58170       4   58083   58068   58071   58086       1
   58083   58104  -58110   58086       1   58083   58104   58110   58146       1
   58077   58053   58071   58086       6   58077   58053   58074   58089       6
   58077   58053  -58074   58092       7   58077   58095   58128   58158       1
   58077   58095   58128   58161       1   58077   58098   58092   58122       5
   58077   58098  -58131   58161       1   58074   58053   58071   58086       6
   58074   58053   58077   58095       6   58074   58053  -58077   58098       7
   58074   58089   58116   58149       1   58074   58089   58116   58152       1
   58074   58092  -58098   58077       5   58074   58092   58098   58131       5
   58074   58092  -58122   58152       1   58071   58053   58074   58089       6
   58071   58053   58074   58092       7   58071   58053   58077   58095       6
   58071   58053   58077   58098       7   58071   58068   58083   58104       1
   58071   58086  -58110   58104       1   58071   58086   58110   58146       1
   58068   58071   58053   58074       7   58068   58071   58053   58077       7
   58068   58071   58086   58110       1   58068   58083  -58104   58110       1
   58053   58026  -58050   58068       1   58053   58071   58068   58083       1
   58053   58071   58086   58110       1   58053   58074   58089   58116       1
   58053   58074  -58092   58098       1   58053   58074   58092   58122       1
   58053   58077   58095   58128       1   58053   58077  -58098   58092       1
   58053   58077   58098   58131       1   58050   58026  -58053   58071       7
   58050   58026   58053   58074       7   58050   58026   58053   58077       7
   58050   58068  -58071   58053       1   58050   58068   58071   58086       1
   58050   58068   58083   58104       1   58044   58059   58080   58101       3
   58038   58059   58080   58101       3   58032   58050   58026   58053       1
   58032   58050   58068   58071       5   58032   58050   58068   58083       5
   58026   58050  -58068   58071       5   58026   58050   58068   58083       5
   58026   58053  -58071   58068       7   58026   58053   58071   58086       6
   58026   58053   58074   58089       6   58026   58053   58074   58092       7
   58026   58053   58077   58095       6   58026   58053   58077   58098       7
   58023   58011   58020   58038       1   58023   58044  -58059   58038       1
   58023   58044   58059   58080       1   58020   58011   58023   58044       1
   58020   58038  -58059   58044       1   58020   58038   58059   58080       1
   58017   58008   58014   58026       1   58017   58032  -58050   58026       1
   58017   58032   58050   58068       1   58014   58008   58017   58032       1
   58014   58026  -58050   58032       1   58014   58026   58050   58068       1
   58014   58026   58053   58071       6   58014   58026   58053   58074       6
   58014   58026   58053   58077       6   58011   58005   58008   58014       4
   58011   58005   58008   58017       4   58011   58020   58038   58059       1
   58011   58023  -58044   58059       1   58008   58005   58011   58020       4
   58008   58005   58011   58023       4   58008   58014   58026   58050       1
   58008   58014   58026   58053       1   58008   58017  -58032   58050       1
   58005   58008   58014   58026       1   58005   58008   58017   58032       1
   58005   58011   58020   58038       1   58005   58011   58023   58044       1
   57996   58005   58008   58014       4   57996   58005   58008   58017       4
   57996   58005   58011   58020       4   57996   58005   58011   58023       4
   57990   57996   58005   58008       4   57990   57996   58005   58011       4
   57984   57996   58005   58008       4   57984   57996   58005   58011       4
   57972   57963   57969   57984       1   57972   57990  -57996   57984       1
   57972   57990   57996   58005       1   57969   57963   57972   57990       1
   57969   57984  -57996   57990       1   57969   57984   57996   58005       1
   57966   57960   57963   57969       3   57966   57960   57963   57972       3
   57963   57969   57984   57996       1   57963   57972  -57990   57996       1
   57960   57963   57969   57984       1   57960   57963   57972   57990       1
   58776   58827   58851   58869       3   58770   58827   58851   58869       3
   58764   58818   58848   58866       3   58758   58818   58848   58866       3
   58752   58809   58845   58863       3   58746   58809   58845   58863       3
   58740   58803   58842   58860       3   58734   58803   58842   58860       3
   58731   58791   58839   58857       3   58725   58791   58839   58857       3
   58716   58782   58836   58854       3   58710   58782   58836   58854       3
   58707   58668   58704   58770       1   58707   58776  -58827   58770       1
   58707   58776   58827   58851       1   58704   58668   58707   58776       1
   58704   58770  -58827   58776       1   58704   58770   58827   58851       1
   58701   58665   58698   58758       1   58701   58764  -58818   58758       1
   58701   58764   58818   58848       1   58698   58665   58701   58764       1
   58698   58758  -58818   58764       1   58698   58758   58818   58848       1
   58695   58659   58692   58746       1   58695   58752  -58809   58746       1
   58695   58752   58809   58845       1   58692   58659   58695   58752       1
   58692   58746  -58809   58752       1   58692   58746   58809   58845       1
   58689   58656   58686   58734       1   58689   58740  -58803   58734       1
   58689   58740   58803   58842       1   58686   58656   58689   58740       1
   58686   58734  -58803   58740       1   58686   58734   58803   58842       1
   58683   58653   58680   58725       1   58683   58731  -58791   58725       1
   58683   58731   58791   58839       1   58680   58653   58683   58731       1
   58680   58725  -58791   58731       1   58680   58725   58791   58839       1
   58677   58650   58674   58710       1   58677   58716  -58782   58710       1
   58677   58716   58782   58836       1   58674   58650   58677   58716       1
   58674   58710  -58782   58716       1   58674   58710   58782   58836       1
   58668   58641   58665   58698       4   58668   58641   58665   58701       4
   58668   58704   58770   58827       1   58668   58707  -58776   58827       1
   58665   58641   58668   58704       4   58665   58641   58668   58707       4
   58665   58698   58758   58818       1   58665   58701  -58764   58818       1
   58659   58632   58656   58686       4   58659   58632   58656   58689       4
   58659   58692   58746   58809       1   58659   58695  -58752   58809       1
   58656   58632   58659   58692       4   58656   58632   58659   58695       4
   58656   58686   58734   58803       1   58656   58689  -58740   58803       1
   58653   58629   58650   58674       4   58653   58629   58650   58677       4
   58653   58680   58725   58791       1   58653   58683  -58731   58791       1
   58650   58629   58653   58680       4   58650   58629   58653   58683       4
   58650   58674   58710   58782       1   58650   58677  -58716   58782       1
   58644   58611   58641   58665       4   58644   58611   58641   58668       4
   58641   58665   58698   58758       1   58641   58665   58701   58764       1
   58641   58668   58704   58770       1   58641   58668   58707   58776       1
   58635   58599   58632   58656       4   58635   58599   58632   58659       4
   58632   58656   58686   58734       1   58632   58656   58689   58740       1
   58632   58659   58692   58746       1   58632   58659   58695   58752       1
   58629   58650   58674   58710       1   58629   58650   58677   58716       1
   58629   58653   58680   58725       1   58629   58653   58683   58731       1
   58614   58644   58611   58641       1   58611   58641   58665   58698       4
   58611   58641   58665   58701       4   58611   58641   58668   58704       4
   58611   58641   58668   58707       4   58605   58575   58581   58614       5
   58605   58635   58599   58632       1   58599   58632   58656   58686       4
   58599   58632   58656   58689       4   58599   58632   58659   58692       4
   58599   58632   58659   58695       4   58593   58629   58650   58674       4
   58593   58629   58650   58677       4   58593   58629   58653   58680       4
   58593   58629   58653   58683       4   58587   58593   58629   58650       4
   58587   58593   58629   58653       4   58581   58560   58578   58611       1
   58581   58575   58605   58635       1   58581   58614  -58644   58611       1
   58578   58560   58581   58614       1   58578   58611   58641   58665       4
   58578   58611   58641   58668       4   58578   58611  -58644   58614       1
   58575   58557   58572   58599       1   58575   58581   58560   58578       1
   58575   58581   58614   58644       1   58575   58605  -58635   58599       1
   58572   58557   58575   58581       1   58572   58557   58575   58605       1
   58572   58599   58632   58656       4   58572   58599   58632   58659       4
   58572   58599  -58635   58605       1   58569   58593   58629   58650       4
   58569   58593   58629   58653       4   58566   58551   58554   58569       1
   58566   58587  -58593   58569       1   58566   58587   58593   58629       1
   58560   58536   58554   58569       6   58560   58536   58557   58572       6
   58560   58536  -58557   58575       7   58560   58578   58611   58641       1
   58560   58578   58611   58644       1   58560   58581   58575   58605       5
   58560   58581  -58614   58644       1   58557   58536   58554   58569       6
   58557   58536   58560   58578       6   58557   58536  -58560   58581       7
   58557   58572   58599   58632       1   58557   58572   58599   58635       1
   58557   58575  -58581   58560       5   58557   58575   58581   58614       5
   58557   58575  -58605   58635       1   58554   58536   58557   58572       6
   58554   58536   58557   58575       7   58554   58536   58560   58578       6
   58554   58536   58560   58581       7   58554   58551   58566   58587       1
   58554   58569  -58593   58587       1   58554   58569   58593   58629       1
   58551   58554   58536   58557       7   58551   58554   58536   58560       7
   58551   58554   58569   58593       1   58551   58566  -58587   58593       1
   58536   58509  -58533   58551       1   58536   58554   58551   58566       1
   58536   58554   58569   58593       1   58536   58557   58572   58599       1
   58536   58557  -58575   58581       1   58536   58557   58575   58605       1
   58536   58560   58578   58611       1   58536   58560  -58581   58575       1
   58536   58560   58581   58614       1   58533   58509  -58536   58554       7
   58533   58509   58536   58557       7   58533   58509   58536   58560       7
   58533   58551  -58554   58536       1   58533   58551   58554   58569       1
   58533   58551   58566   58587       1   58527   58542   58563   58584       3
   58521   58542   58563   58584       3   58515   58533   58509   58536       1
   58515   58533   58551   58554       5   58515   58533   58551   58566       5
   58509   58533  -58551   58554       5   58509   58533   58551   58566       5
   58509   58536  -58554   58551       7   58509   58536   58554   58569       6
   58509   58536   58557   58572       6   58509   58536   58557   58575       7
   58509   58536   58560   58578       6   58509   58536   58560   58581       7
   58506   58494   58503   58521       1   58506   58527  -58542   58521       1
   58506   58527   58542   58563       1   58503   58494   58506   58527       1
   58503   58521  -58542   58527       1   58503   58521   58542   58563       1
   58500   58491   58497   58509       1   58500   58515  -58533   58509       1
   58500   58515   58533   58551       1   58497   58491   58500   58515       1
   58497   58509  -58533   58515       1   58497   58509   58533   58551       1
   58497   58509   58536   58554       6   58497   58509   58536   58557       6
   58497   58509   58536   58560       6   58494   58488   58491   58497       4
   58494   58488   58491   58500       4   58494   58503   58521   58542       1
   58494   58506  -58527   58542       1   58491   58488   58494   58503       4
   58491   58488   58494   58506       4   58491   58497   58509   58533       1
   58491   58497   58509   58536       1   58491   58500  -58515   58533       1
   58488   58491   58497   58509       1   58488   58491   58500   58515       1
   58488   58494   58503   58521       1   58488   58494   58506   58527       1
   58479   58488   58491   58497       4   58479   58488   58491   58500       4
   58479   58488   58494   58503       4   58479   58488   58494   58506       4
   58473   58479   58488   58491       4   58473   58479   58488   58494       4
   58467   58479   58488   58491       4   58467   58479   58488   58494       4
   58455   58446   58452   58467       1   58455   58473  -58479   58467       1
   58455   58473   58479   58488       1   58452   58446   58455   58473       1
   58452   58467  -58479   58473       1   58452   58467   58479   58488       1
   58449   58443   58446   58452       3   58449   58443   58446   58455       3
   58446   58452   58467   58479       1   58446   58455  -58473   58479       1
   58443   58446   58452   58467       1   58443   58446   58455   58473       1
   59259   59310   59334   59352       3   59253   59310   59334   59352       3
   59247   59301   59331   59349       3   59241   59301   59331   59349       3
   59235   59292   59328   59346       3   59229   59292   59328   59346       3
   59223   59286   59325   59343       3   59217   59286   59325   59343       3
   59214   59274   59322   59340       3   59208   59274   59322   59340       3
   59199   59265   59319   59337       3   59193   59265   59319   59337       3
   59190   59151   59187   59253       1   59190   59259  -59310   59253       1
   59190   59259   59310   59334       1   59187   59151   59190   59259       1
   59187   59253  -59310   59259       1   59187   59253   59310   59334       1
   59184   59148   59181   59241       1   59184   59247  -59301   59241       1
   59184   59247   59301   59331       1   59181   59148   59184   59247       1
   59181   59241  -59301   59247       1   59181   59241   59301   59331       1
   59178   59142   59175   59229       1   59178   59235  -59292   59229       1
   59178   59235   59292   59328       1   59175   59142   59178   59235       1
   59175   59229  -59292   59235       1   59175   59229   59292   59328       1
   59172   59139   59169   59217       1   59172   59223  -59286   59217       1
   59172   59223   59286   59325       1   59169   59139   59172   59223       1
   59169   59217  -59286   59223       1   59169   59217   59286   59325       1
   59166   59136   59163   59208       1   59166   59214  -59274   59208       1
   59166   59214   59274   59322       1   59163   59136   59166   59214       1
   59163   59208  -59274   59214       1   59163   59208   59274   59322       1
   59160   59133   59157   59193       1   59160   59199  -59265   59193       1
   59160   59199   59265   59319       1   59157   59133   59160   59199       1
   59157   59193  -59265   59199       1   59157   59193   59265   59319       1
   59151   59124   59148   59181       4   59151   59124   59148   59184       4
   59151   59187   59253   59310       1   59151   59190  -59259   59310       1
   59148   59124   59151   59187       4   59148   59124   59151   59190       4
   59148   59181   59241   59301       1   59148   59184  -59247   59301       1
   59142   59115   59139   59169       4   59142   59115   59139   59172       4
   59142   59175   59229   59292       1   59142   59178  -59235   59292       1
   59139   59115   59142   59175       4   59139   59115   59142   59178       4
   59139   59169   59217   59286       1   59139   59172  -59223   59286       1
   59136   59112   59133   59157       4   59136   59112   59133   59160       4
   59136   59163   59208   59274       1   59136   59166  -59214   59274       1
   59133   59112   59136   59163       4   59133   59112   59136   59166       4
   59133   59157   59193   59265       1   59133   59160  -59199   59265       1
   59127   59094   59124   59148       4   59127   59094   59124   59151       4
   59124   59148   59181   59241       1   59124   59148   59184   59247       1
   59124   59151   59187   59253       1   59124   59151   59190   59259       1
   59118   59082   59115   59139       4   59118   59082   59115   59142       4
   59115   59139   59169   59217       1   59115   59139   59172   59223       1
   59115   59142   59175   59229       1   59115   59142   59178   59235       1
   59112   59133   59157   59193       1   59112   59133   59160   59199       1
   59112   59136   59163   59208       1   59112   59136   59166   59214       1
   59097   59127   59094   59124       1   59094   59124   59148   59181       4
   59094   59124   59148   59184       4   59094   59124   59151   59187       4
   59094   59124   59151   59190       4   59088   59058   59064   59097       5
   59088   59118   59082   59115       1   59082   59115   59139   59169       4
   59082   59115   59139   59172       4   59082   59115   59142   59175       4
   59082   59115   59142   59178       4   59076   59112   59133   59157       4
   59076   59112   59133   59160       4   59076   59112   59136   59163       4
   59076   59112   59136   59166       4   59070   59076   59112   59133       4
   59070   59076   59112   59136       4   59064   59043   59061   59094       1
   59064   59058   59088   59118       1   59064   59097  -59127   59094       1
   59061   59043   59064   59097       1   59061   59094   59124   59148       4
   59061   59094   59124   59151       4   59061   59094  -59127   59097       1
   59058   59040   59055   59082       1   59058   59064   59043   59061       1
   59058   59064   59097   59127       1   59058   59088  -59118   59082       1
   59055   59040   59058   59064       1   59055   59040   59058   59088       1
   59055   59082   59115   59139       4   59055   59082   59115   59142       4
   59055   59082  -59118   59088       1   59052   59076   59112   59133       4
   59052   59076   59112   59136       4   59049   59034   59037   59052       1
   59049   59070  -59076   59052       1   59049   59070   59076   59112       1
   59043   59019   59037   59052       6   59043   59019   59040   59055       6
   59043   59019  -59040   59058       7   59043   59061   59094   59124       1
   59043   59061   59094   59127       1   59043   59064   59058   59088       5
   59043   59064  -59097   59127       1   59040   59019   59037   59052       6
   59040   59019   59043   59061       6   59040   59019  -59043   59064       7
   59040   59055   59082   59115       1   59040   59055   59082   59118       1
   59040   59058  -59064   59043       5   59040   59058   59064   59097       5
   59040   59058  -59088   59118       1   59037   59019   59040   59055       6
   59037   59019   59040   59058       7   59037   59019   59043   59061       6
   59037   59019   59043   59064       7   59037   59034   59049   59070       1
   59037   59052  -59076   59070       1   59037   59052   59076   59112       1
   59034   59037   59019   59040       7   59034   59037   59019   59043       7
   59034   59037   59052   59076       1   59034   59049  -59070   59076       1
   59019   58992  -59016   59034       1   59019   59037   59034   59049       1
   59019   59037   59052   59076       1   59019   59040   59055   59082       1
   59019   59040  -59058   59064       1   59019   59040   59058   59088       1
   59019   59043   59061   59094       1   59019   59043  -59064   59058       1
   59019   59043   59064   59097       1   59016   58992  -59019   59037       7
   59016   58992   59019   59040       7   59016   58992   59019   59043       7
   59016   59034  -59037   59019       1   59016   59034   59037   59052       1
   59016   59034   59049   59070       1   59010   59025   59046   59067       3
   59004   59025   59046   59067       3   58998   59016   58992   59019       1
   58998   59016   59034   59037       5   58998   59016   59034   59049       5
   58992   59016  -59034   59037       5   58992   59016   59034   59049       5
   58992   59019  -59037   59034       7   58992   59019   59037   59052       6
   58992   59019   59040   59055       6   58992   59019   59040   59058       7
   58992   59019   59043   59061       6   58992   59019   59043   59064       7
   58989   58977   58986   59004       1   58989   59010  -59025   59004       1
   58989   59010   59025   59046       1   58986   58977   58989   59010       1
   58986   59004  -59025   59010       1   58986   59004   59025   59046       1
   58983   58974   58980   58992       1   58983   58998  -59016   58992       1
   58983   58998   59016   59034       1   58980   58974   58983   58998       1
   58980   58992  -59016   58998       1   58980   58992   59016   59034       1
   58980   58992   59019   59037       6   58980   58992   59019   59040       6
   58980   58992   59019   59043       6   58977   58971   58974   58980       4
   58977   58971   58974   58983       4   58977   58986   59004   59025       1
   58977   58989  -59010   59025       1   58974   58971   58977   58986       4
   58974   58971   58977   58989       4   58974   58980   58992   59016       1
   58974   58980   58992   59019       1   58974   58983  -58998   59016       1
   58971   58974   58980   58992       1   58971   58974   58983   58998       1
   58971   58977   58986   59004       1   58971   58977   58989   59010       1
   58962   58971   58974   58980       4   58962   58971   58974   58983       4
   58962   58971   58977   58986       4   58962   58971   58977   58989       4
   58956   58962   58971   58974       4   58956   58962   58971   58977       4
   58950   58962   58971   58974       4   58950   58962   58971   58977       4
   58938   58929   58935   58950       1   58938   58956  -58962   58950       1
   58938   58956   58962   58971       1   58935   58929   58938   58956       1
   58935   58950  -58962   58956       1   58935   58950   58962   58971       1
   58932   58926   58929   58935       3   58932   58926   58929   58938       3
   58929   58935   58950   58962       1   58929   58938  -58956   58962       1
   58926   58929   58935   58950       1   58926   58929   58938   58956       1
   59742   59793   59817   59835       3   59736   59793   59817   59835       3
   59730   59784   59814   59832       3   59724   59784   59814   59832       3
   59718   59775   59811   59829       3   59712   59775   59811   59829       3
   59706   59769   59808   59826       3   59700   59769   59808   59826       3
   59697   59757   59805   59823       3   59691   59757   59805   59823       3
   59682   59748   59802   59820       3   59676   59748   59802   59820       3
   59673   59634   59670   59736       1   59673   59742  -59793   59736       1
   59673   59742   59793   59817       1   59670   59634   59673   59742       1
   59670   59736  -59793   59742       1   59670   59736   59793   59817       1
   59667   59631   59664   59724       1   59667   59730  -59784   59724       1
   59667   59730   59784   59814       1   59664   59631   59667   59730       1
   59664   59724  -59784   59730       1   59664   59724   59784   59814       1
   59661   59625   59658   59712       1   59661   59718  -59775   59712       1
   59661   59718   59775   59811       1   59658   59625   59661   59718       1
   59658   59712  -59775   59718       1   59658   59712   59775   59811       1
   59655   59622   59652   59700       1   59655   59706  -59769   59700       1
   59655   59706   59769   59808       1   59652   59622   59655   59706       1
   59652   59700  -59769   59706       1   59652   59700   59769   59808       1
   59649   59619   59646   59691       1   59649   59697  -59757   59691       1
   59649   59697   59757   59805       1   59646   59619   59649   59697       1
   59646   59691  -59757   59697       1   59646   59691   59757   59805       1
   59643   59616   59640   59676       1   59643   59682  -59748   59676       1
   59643   59682   59748   59802       1   59640   59616   59643   59682       1
   59640   59676  -59748   59682       1   59640   59676   59748   59802       1
   59634   59607   59631   59664       4   59634   59607   59631   59667       4
   59634   59670   59736   59793       1   59634   59673  -59742   59793       1
   59631   59607   59634   59670       4   59631   59607   59634   59673       4
   59631   59664   59724   59784       1   59631   59667  -59730   59784       1
   59625   59598   59622   59652       4   59625   59598   59622   59655       4
   59625   59658   59712   59775       1   59625   59661  -59718   59775       1
   59622   59598   59625   59658       4   59622   59598   59625   59661       4
   59622   59652   59700   59769       1   59622   59655  -59706   59769       1
   59619   59595   59616   59640       4   59619   59595   59616   59643       4
   59619   59646   59691   59757       1   59619   59649  -59697   59757       1
   59616   59595   59619   59646       4   59616   59595   59619   59649       4
   59616   59640   59676   59748       1   59616   59643  -59682   59748       1
   59610   59577   59607   59631       4   59610   59577   59607   59634       4
   59607   59631   59664   59724       1   59607   59631   59667   59730       1
   59607   59634   59670   59736       1   59607   59634   59673   59742       1
   59601   59565   59598   59622       4   59601   59565   59598   59625       4
   59598   59622   59652   59700       1   59598   59622   59655   59706       1
   59598   59625   59658   59712       1   59598   59625   59661   59718       1
   59595   59616   59640   59676       1   59595   59616   59643   59682       1
   59595   59619   59646   59691       1   59595   59619   59649   59697       1
   59580   59610   59577   59607       1   59577   59607   59631   59664       4
   59577   59607   59631   59667       4   59577   59607   59634   59670       4
   59577   59607   59634   59673       4   59571   59541   59547   59580       5
   59571   59601   59565   59598       1   59565   59598   59622   59652       4
   59565   59598   59622   59655       4   59565   59598   59625   59658       4
   59565   59598   59625   59661       4   59559   59595   59616   59640       4
   59559   59595   59616   59643       4   59559   59595   59619   59646       4
   59559   59595   59619   59649       4   59553   59559   59595   59616       4
   59553   59559   59595   59619       4   59547   59526   59544   59577       1
   59547   59541   59571   59601       1   59547   59580  -59610   59577       1
   59544   59526   59547   59580       1   59544   59577   59607   59631       4
   59544   59577   59607   59634       4   59544   59577  -59610   59580       1
   59541   59523   59538   59565       1   59541   59547   59526   59544       1
   59541   59547   59580   59610       1   59541   59571  -59601   59565       1
   59538   59523   59541   59547       1   59538   59523   59541   59571       1
   59538   59565   59598   59622       4   59538   59565   59598   59625       4
   59538   59565  -59601   59571       1   59535   59559   59595   59616       4
   59535   59559   59595   59619       4   59532   59517   59520   59535       1
   59532   59553  -59559   59535       1   59532   59553   59559   59595       1
   59526   59502   59520   59535       6   59526   59502   59523   59538       6
   59526   59502  -59523   59541       7   59526   59544   59577   59607       1
   59526   59544   59577   59610       1   59526   59547   59541   59571       5
   59526   59547  -59580   59610       1   59523   59502   59520   59535       6
   59523   59502   59526   59544       6   59523   59502  -59526   59547       7
   59523   59538   59565   59598       1   59523   59538   59565   59601       1
   59523   59541  -59547   59526       5   59523   59541   59547   59580       5
   59523   59541  -59571   59601       1   59520   59502   59523   59538       6
   59520   59502   59523   59541       7   59520   59502   59526   59544       6
   59520   59502   59526   59547       7   59520   59517   59532   59553       1
   59520   59535  -59559   59553       1   59520   59535   59559   59595       1
   59517   59520   59502   59523       7   59517   59520   59502   59526       7
   59517   59520   59535   59559       1   59517   59532  -59553   59559       1
   59502   59475  -59499   59517       1   59502   59520   59517   59532       1
   59502   59520   59535   59559       1   59502   59523   59538   59565       1
   59502   59523  -59541   59547       1   59502   59523   59541   59571       1
   59502   59526   59544   59577       1   59502   59526  -59547   59541       1
   59502   59526   59547   59580       1   59499   59475  -59502   59520       7
   59499   59475   59502   59523       7   59499   59475   59502   59526       7
   59499   59517  -59520   59502       1   59499   59517   59520   59535       1
   59499   59517   59532   59553       1   59493   59508   59529   59550       3
   59487   59508   59529   59550       3   59481   59499   59475   59502       1
   59481   59499   59517   59520       5   59481   59499   59517   59532       5
   59475   59499  -59517   59520       5   59475   59499   59517   59532       5
   59475   59502  -59520   59517       7   59475   59502   59520   59535       6
   59475   59502   59523   59538       6   59475   59502   59523   59541       7
   59475   59502   59526   59544       6   59475   59502   59526   59547       7
   59472   59460   59469   59487       1   59472   59493  -59508   59487       1
   59472   59493   59508   59529       1   59469   59460   59472   59493       1
   59469   59487  -59508   59493       1   59469   59487   59508   59529       1
   59466   59457   59463   59475       1   59466   59481  -59499   59475       1
   59466   59481   59499   59517       1   59463   59457   59466   59481       1
   59463   59475  -59499   59481       1   59463   59475   59499   59517       1
   59463   59475   59502   59520       6   59463   59475   59502   59523       6
   59463   59475   59502   59526       6   59460   59454   59457   59463       4
   59460   59454   59457   59466       4   59460   59469   59487   59508       1
   59460   59472  -59493   59508       1   59457   59454   59460   59469       4
   59457   59454   59460   59472       4   59457   59463   59475   59499       1
   59457   59463   59475   59502       1   59457   59466  -59481   59499       1
   59454   59457   59463   59475       1   59454   59457   59466   59481       1
   59454   59460   59469   59487       1   59454   59460   59472   59493       1
   59445   59454   59457   59463       4   59445   59454   59457   59466       4
   59445   59454   59460   59469       4   59445   59454   59460   59472       4
   59439   59445   59454   59457       4   59439   59445   59454   59460       4
   59433   59445   59454   59457       4   59433   59445   59454   59460       4
   59421   59412   59418   59433       1   59421   59439  -59445   59433       1
   59421   59439   59445   59454       1   59418   59412   59421   59439       1
   59418   59433  -59445   59439       1   59418   59433   59445   59454       1
   59415   59409   59412   59418       3   59415   59409   59412   59421       3
   59412   59418   59433   59445       1   59412   59421  -59439   59445       1
   59409   59412   59418   59433       1   59409   59412   59421   59439       1
   60225   60276   60300   60318       3   60219   60276   60300   60318       3
   60213   60267   60297   60315       3   60207   60267   60297   60315       3
   60201   60258   60294   60312       3   60195   60258   60294   60312       3
   60189   60252   60291   60309       3   60183   60252   60291   60309       3
   60180   60240   60288   60306       3   60174   60240   60288   60306       3
   60165   60231   60285   60303       3   60159   60231   60285   60303       3
   60156   60117   60153   60219       1   60156   60225  -60276   60219       1
   60156   60225   60276   60300       1   60153   60117   60156   60225       1
   60153   60219  -60276   60225       1   60153   60219   60276   60300       1
   60150   60114   60147   60207       1   60150   60213  -60267   60207       1
   60150   60213   60267   60297       1   60147   60114   60150   60213       1
   60147   60207  -60267   60213       1   60147   60207   60267   60297       1
   60144   60108   60141   60195       1   60144   60201  -60258   60195       1
   60144   60201   60258   60294       1   60141   60108   60144   60201       1
   60141   60195  -60258   60201       1   60141   60195   60258   60294       1
   60138   60105   60135   60183       1   60138   60189  -60252   60183       1
   60138   60189   60252   60291       1   60135   60105   60138   60189       1
   60135   60183  -60252   60189       1   60135   60183   60252   60291       1
   60132   60102   60129   60174       1   60132   60180  -60240   60174       1
   60132   60180   60240   60288       1   60129   60102   60132   60180       1
   60129   60174  -60240   60180       1   60129   60174   60240   60288       1
   60126   60099   60123   60159       1   60126   60165  -60231   60159       1
   60126   60165   60231   60285       1   60123   60099   60126   60165       1
   60123   60159  -60231   60165       1   60123   60159   60231   60285       1
   60117   60090   60114   60147       4   60117   60090   60114   60150       4
   60117   60153   60219   60276       1   60117   60156  -60225   60276       1
   60114   60090   60117   60153       4   60114   60090   60117   60156       4
   60114   60147   60207   60267       1   60114   60150  -60213   60267       1
   60108   60081   60105   60135       4   60108   60081   60105   60138       4
   60108   60141   60195   60258       1   60108   60144  -60201   60258       1
   60105   60081   60108   60141       4   60105   60081   60108   60144       4
   60105   60135   60183   60252       1   60105   60138  -60189   60252       1
   60102   60078   60099   60123       4   60102   60078   60099   60126       4
   60102   60129   60174   60240       1   60102   60132  -60180   60240       1
   60099   60078   60102   60129       4   60099   60078   60102   60132       4
   60099   60123   60159   60231       1   60099   60126  -60165   60231       1
   60093   60060   60090   60114       4   60093   60060   60090   60117       4
   60090   60114   60147   60207       1   60090   60114   60150   60213       1
   60090   60117   60153   60219       1   60090   60117   60156   60225       1
   60084   60048   60081   60105       4   60084   60048   60081   60108       4
   60081   60105   60135   60183       1   60081   60105   60138   60189       1
   60081   60108   60141   60195       1   60081   60108   60144   60201       1
   60078   60099   60123   60159       1   60078   60099   60126   60165       1
   60078   60102   60129   60174       1   60078   60102   60132   60180       1
   60063   60093   60060   60090       1   60060   60090   60114   60147       4
   60060   60090   60114   60150       4   60060   60090   60117   60153       4
   60060   60090   60117   60156       4   60054   60024   60030   60063       5
   60054   60084   60048   60081       1   60048   60081   60105   60135       4
   60048   60081   60105   60138       4   60048   60081   60108   60141       4
   60048   60081   60108   60144       4   60042   60078   60099   60123       4
   60042   60078   60099   60126       4   60042   60078   60102   60129       4
   60042   60078   60102   60132       4   60036   60042   60078   60099       4
   60036   60042   60078   60102       4   60030   60009   60027   60060       1
   60030   60024   60054   60084       1   60030   60063  -60093   60060       1
   60027   60009   60030   60063       1   60027   60060   60090   60114       4
   60027   60060   60090   60117       4   60027   60060  -60093   60063       1
   60024   60006   60021   60048       1   60024   60030   60009   60027       1
   60024   60030   60063   60093       1   60024   60054  -60084   60048       1
   60021   60006   60024   60030       1   60021   60006   60024   60054       1
   60021   60048   60081   60105       4   60021   60048   60081   60108       4
   60021   60048  -60084   60054       1   60018   60042   60078   60099       4
   60018   60042   60078   60102       4   60015   60000   60003   60018       1
   60015   60036  -60042   60018       1   60015   60036   60042   60078       1
   60009   59985   60003   60018       6   60009   59985   60006   60021       6
   60009   59985  -60006   60024       7   60009   60027   60060   60090       1
   60009   60027   60060   60093       1   60009   60030   60024   60054       5
   60009   60030  -60063   60093       1   60006   59985   60003   60018       6
   60006   59985   60009   60027       6   60006   59985  -60009   60030       7
   60006   60021   60048   60081       1   60006   60021   60048   60084       1
   60006   60024  -60030   60009       5   60006   60024   60030   60063       5
   60006   60024  -60054   60084       1   60003   59985   60006   60021       6
   60003   59985   60006   60024       7   60003   59985   60009   60027       6
   60003   59985   60009   60030       7   60003   60000   60015   60036       1
   60003   60018  -60042   60036       1   60003   60018   60042   60078       1
   60000   60003   59985   60006       7   60000   60003   59985   60009       7
   60000   60003   60018   60042       1   60000   60015  -60036   60042       1
   59985   59958  -59982   60000       1   59985   60003   60000   60015       1
   59985   60003   60018   60042       1   59985   60006   60021   60048       1
   59985   60006  -60024   60030       1   59985   60006   60024   60054       1
   59985   60009   60027   60060       1   59985   60009  -60030   60024       1
   59985   60009   60030   60063       1   59982   59958  -59985   60003       7
   59982   59958   59985   60006       7   59982   59958   59985   60009       7
   59982   60000  -60003   59985       1   59982   60000   60003   60018       1
   59982   60000   60015   60036       1   59976   59991   60012   60033       3
   59970   59991   60012   60033       3   59964   59982   59958   59985       1
   59964   59982   60000   60003       5   59964   59982   60000   60015       5
   59958   59982  -60000   60003       5   59958   59982   60000   60015       5
   59958   59985  -60003   60000       7   59958   59985   60003   60018       6
   59958   59985   60006   60021       6   59958   59985   60006   60024       7
   59958   59985   60009   60027       6   59958   59985   60009   60030       7
   59955   59943   59952   59970       1   59955   59976  -59991   59970       1
   59955   59976   59991   60012       1   59952   59943   59955   59976       1
   59952   59970  -59991   59976       1   59952   59970   59991   60012       1
   59949   59940   59946   59958       1   59949   59964  -59982   59958       1
   59949   59964   59982   60000       1   59946   59940   59949   59964       1
   59946   59958  -59982   59964       1   59946   59958   59982   60000       1
   59946   59958   59985   60003       6   59946   59958   59985   60006       6
   59946   59958   59985   60009       6   59943   59937   59940   59946       4
   59943   59937   59940   59949       4   59943   59952   59970   59991       1
   59943   59955  -59976   59991       1   59940   59937   59943   59952       4
   59940   59937   59943   59955       4   59940   59946   59958   59982       1
   59940   59946   59958   59985       1   59940   59949  -59964   59982       1
   59937   59940   59946   59958       1   59937   59940   59949   59964       1
   59937   59943   59952   59970       1   59937   59943   59955   59976       1
   59928   59937   59940   59946       4   59928   59937   59940   59949       4
   59928   59937   59943   59952       4   59928   59937   59943   59955       4
   59922   59928   59937   59940       4   59922   59928   59937   59943       4
   59916   59928   59937   59940       4   59916   59928   59937   59943       4
   59904   59895   59901   59916       1   59904   59922  -59928   59916       1
   59904   59922   59928   59937       1   59901   59895   59904   59922       1
   59901   59916  -59928   59922       1   59901   59916   59928   59937       1
   59898   59892   59895   59901       3   59898   59892   59895   59904       3
   59895   59901   59916   59928       1   59895   59904  -59922   59928       1
   59892   59895   59901   59916       1   59892   59895   59904   59922       1
   60708   60759   60783   60801       3   60702   60759   60783   60801       3
   60696   60750   60780   60798       3   60690   60750   60780   60798       3
   60684   60741   60777   60795       3   60678   60741   60777   60795       3
   60672   60735   60774   60792       3   60666   60735   60774   60792       3
   60663   60723   60771   60789       3   60657   60723   60771   60789       3
   60648   60714   60768   60786       3   60642   60714   60768   60786       3
   60639   60600   60636   60702       1   60639   60708  -60759   60702       1
   60639   60708   60759   60783       1   60636   60600   60639   60708       1
   60636   60702  -60759   60708       1   60636   60702   60759   60783       1
   60633   60597   60630   60690       1   60633   60696  -60750   60690       1
   60633   60696   60750   60780       1   60630   60597   60633   60696       1
   60630   60690  -60750   60696       1   60630   60690   60750   60780       1
   60627   60591   60624   60678       1   60627   60684  -60741   60678       1
   60627   60684   60741   60777       1   60624   60591   60627   60684       1
   60624   60678  -60741   60684       1   60624   60678   60741   60777       1
   60621   60588   60618   60666       1   60621   60672  -60735   60666       1
   60621   60672   60735   60774       1   60618   60588   60621   60672       1
   60618   60666  -60735   60672       1   60618   60666   60735   60774       1
   60615   60585   60612   60657       1   60615   60663  -60723   60657       1
   60615   60663   60723   60771       1   60612   60585   60615   60663       1
   60612   60657  -60723   60663       1   60612   60657   60723   60771       1
   60609   60582   60606   60642       1   60609   60648  -60714   60642       1
   60609   60648   60714   60768       1   60606   60582   60609   60648       1
   60606   60642  -60714   60648       1   60606   60642   60714   60768       1
   60600   60573   60597   60630       4   60600   60573   60597   60633       4
   60600   60636   60702   60759       1   60600   60639  -60708   60759       1
   60597   60573   60600   60636       4   60597   60573   60600   60639       4
   60597   60630   60690   60750       1   60597   60633  -60696   60750       1
   60591   60564   60588   60618       4   60591   60564   60588   60621       4
   60591   60624   60678   60741       1   60591   60627  -60684   60741       1
   60588   60564   60591   60624       4   60588   60564   60591   60627       4
   60588   60618   60666   60735       1   60588   60621  -60672   60735       1
   60585   60561   60582   60606       4   60585   60561   60582   60609       4
   60585   60612   60657   60723       1   60585   60615  -60663   60723       1
   60582   60561   60585   60612       4   60582   60561   60585   60615       4
   60582   60606   60642   60714       1   60582   60609  -60648   60714       1
   60576   60543   60573   60597       4   60576   60543   60573   60600       4
   60573   60597   60630   60690       1   60573   60597   60633   60696       1
   60573   60600   60636   60702       1   60573   60600   60639   60708       1
   60567   60531   60564   60588       4   60567   60531   60564   60591       4
   60564   60588   60618   60666       1   60564   60588   60621   60672       1
   60564   60591   60624   60678       1   60564   60591   60627   60684       1
   60561   60582   60606   60642       1   60561   60582   60609   60648       1
   60561   60585   60612   60657       1   60561   60585   60615   60663       1
   60546   60576   60543   60573       1   60543   60573   60597   60630       4
   60543   60573   60597   60633       4   60543   60573   60600   60636       4
   60543   60573   60600   60639       4   60537   60507   60513   60546       5
   60537   60567   60531   60564       1   60531   60564   60588   60618       4
   60531   60564   60588   60621       4   60531   60564   60591   60624       4
   60531   60564   60591   60627       4   60525   60561   60582   60606       4
   60525   60561   60582   60609       4   60525   60561   60585   60612       4
   60525   60561   60585   60615       4   60519   60525   60561   60582       4
   60519   60525   60561   60585       4   60513   60492   60510   60543       1
   60513   60507   60537   60567       1   60513   60546  -60576   60543       1
   60510   60492   60513   60546       1   60510   60543   60573   60597       4
   60510   60543   60573   60600       4   60510   60543  -60576   60546       1
   60507   60489   60504   60531       1   60507   60513   60492   60510       1
   60507   60513   60546   60576       1   60507   60537  -60567   60531       1
   60504   60489   60507   60513       1   60504   60489   60507   60537       1
   60504   60531   60564   60588       4   60504   60531   60564   60591       4
   60504   60531  -60567   60537       1   60501   60525   60561   60582       4
   60501   60525   60561   60585       4   60498   60483   60486   60501       1
   60498   60519  -60525   60501       1   60498   60519   60525   60561       1
   60492   60468   60486   60501       6   60492   60468   60489   60504       6
   60492   60468  -60489   60507       7   60492   60510   60543   60573       1
   60492   60510   60543   60576       1   60492   60513   60507   60537       5
   60492   60513  -60546   60576       1   60489   60468   60486   60501       6
   60489   60468   60492   60510       6   60489   60468  -60492   60513       7
   60489   60504   60531   60564       1   60489   60504   60531   60567       1
   60489   60507  -60513   60492       5   60489   60507   60513   60546       5
   60489   60507  -60537   60567       1   60486   60468   60489   60504       6
   60486   60468   60489   60507       7   60486   60468   60492   60510       6
   60486   60468   60492   60513       7   60486   60483   60498   60519       1
   60486   60501  -60525   60519       1   60486   60501   60525   60561       1
   60483   60486   60468   60489       7   60483   60486   60468   60492       7
   60483   60486   60501   60525       1   60483   60498  -60519   60525       1
   60468   60441  -60465   60483       1   60468   60486   60483   60498       1
   60468   60486   60501   60525       1   60468   60489   60504   60531       1
   60468   60489  -60507   60513       1   60468   60489   60507   60537       1
   60468   60492   60510   60543       1   60468   60492  -60513   60507       1
   60468   60492   60513   60546       1   60465   60441  -60468   60486       7
   60465   60441   60468   60489       7   60465   60441   60468   60492       7
   60465   60483  -60486   60468       1   60465   60483   60486   60501       1
   60465   60483   60498   60519       1   60459   60474   60495   60516       3
   60453   60474   60495   60516       3   60447   60465   60441   60468       1
   60447   60465   60483   60486       5   60447   60465   60483   60498       5
   60441   60465  -60483   60486       5   60441   60465   60483   60498       5
   60441   60468  -60486   60483       7   60441   60468   60486   60501       6
   60441   60468   60489   60504       6   60441   60468   60489   60507       7
   60441   60468   60492   60510       6   60441   60468   60492   60513       7
   60438   60426   60435   60453       1   60438   60459  -60474   60453       1
   60438   60459   60474   60495       1   60435   60426   60438   60459       1
   60435   60453  -60474   60459       1   60435   60453   60474   60495       1
   60432   60423   60429   60441       1   60432   60447  -60465   60441       1
   60432   60447   60465   60483       1   60429   60423   60432   60447       1
   60429   60441  -60465   60447       1   60429   60441   60465   60483       1
   60429   60441   60468   60486       6   60429   60441   60468   60489       6
   60429   60441   60468   60492       6   60426   60420   60423   60429       4
   60426   60420   60423   60432       4   60426   60435   60453   60474       1
   60426   60438  -60459   60474       1   60423   60420   60426   60435       4
   60423   60420   60426   60438       4   60423   60429   60441   60465       1
   60423   60429   60441   60468       1   60423   60432  -60447   60465       1
   60420   60423   60429   60441       1   60420   60423   60432   60447       1
   60420   60426   60435   60453       1   60420   60426   60438   60459       1
   60411   60420   60423   60429       4   60411   60420   60423   60432       4
   60411   60420   60426   60435       4   60411   60420   60426   60438       4
   60405   60411   60420   60423       4   60405   60411   60420   60426       4
   60399   60411   60420   60423       4   60399   60411   60420   60426       4
   60387   60378   60384   60399       1   60387   60405  -60411   60399       1
   60387   60405   60411   60420       1   60384   60378   60387   60405       1
   60384   60399  -60411   60405       1   60384   60399   60411   60420       1
   60381   60375   60378   60384       3   60381   60375   60378   60387       3
   60378   60384   60399   60411       1   60378   60387  -60405   60411       1
   60375   60378   60384   60399       1   60375   60378   60387   60405       1
   61191   61242   61266   61284       3   61185   61242   61266   61284       3
   61179   61233   61263   61281       3   61173   61233   61263   61281       3
   61167   61224   61260   61278       3   61161   61224   61260   61278       3
   61155   61218   61257   61275       3   61149   61218   61257   61275       3
   61146   61206   61254   61272       3   61140   61206   61254   61272       3
   61131   61197   61251   61269       3   61125   61197   61251   61269       3
   61122   61083   61119   61185       1   61122   61191  -61242   61185       1
   61122   61191   61242   61266       1   61119   61083   61122   61191       1
   61119   61185  -61242   61191       1   61119   61185   61242   61266       1
   61116   61080   61113   61173       1   61116   61179  -61233   61173       1
   61116   61179   61233   61263       1   61113   61080   61116   61179       1
   61113   61173  -61233   61179       1   61113   61173   61233   61263       1
   61110   61074   61107   61161       1   61110   61167  -61224   61161       1
   61110   61167   61224   61260       1   61107   61074   61110   61167       1
   61107   61161  -61224   61167       1   61107   61161   61224   61260       1
   61104   61071   61101   61149       1   61104   61155  -61218   61149       1
   61104   61155   61218   61257       1   61101   61071   61104   61155       1
   61101   61149  -61218   61155       1   61101   61149   61218   61257       1
   61098   61068   61095   61140       1   61098   61146  -61206   61140       1
   61098   61146   61206   61254       1   61095   61068   61098   61146       1
   61095   61140  -61206   61146       1   61095   61140   61206   61254       1
   61092   61065   61089   61125       1   61092   61131  -61197   61125       1
   61092   61131   61197   61251       1   61089   61065   61092   61131       1
   61089   61125  -61197   61131       1   61089   61125   61197   61251       1
   61083   61056   61080   61113       4   61083   61056   61080   61116       4
   61083   61119   61185   61242       1   61083   61122  -61191   61242       1
   61080   61056   61083   61119       4   61080   61056   61083   61122       4
   61080   61113   61173   61233       1   61080   61116  -61179   61233       1
   61074   61047   61071   61101       4   61074   61047   61071   61104       4
   61074   61107   61161   61224       1   61074   61110  -61167   61224       1
   61071   61047   61074   61107       4   61071   61047   61074   61110       4
   61071   61101   61149   61218       1   61071   61104  -61155   61218       1
   61068   61044   61065   61089       4   61068   61044   61065   61092       4
   61068   61095   61140   61206       1   61068   61098  -61146   61206       1
   61065   61044   61068   61095       4   61065   61044   61068   61098       4
   61065   61089   61125   61197       1   61065   61092  -61131   61197       1
   61059   61026   61056   61080       4   61059   61026   61056   61083       4
   61056   61080   61113   61173       1   61056   61080   61116   61179       1
   61056   61083   61119   61185       1   61056   61083   61122   61191       1
   61050   61014   61047   61071       4   61050   61014   61047   61074       4
   61047   61071   61101   61149       1   61047   61071   61104   61155       1
   61047   61074   61107   61161       1   61047   61074   61110   61167       1
   61044   61065   61089   61125       1   61044   61065   61092   61131       1
   61044   61068   61095   61140       1   61044   61068   61098   61146       1
   61029   61059   61026   61056       1   61026   61056   61080   61113       4
   61026   61056   61080   61116       4   61026   61056   61083   61119       4
   61026   61056   61083   61122       4   61020   60990   60996   61029       5
   61020   61050   61014   61047       1   61014   61047   61071   61101       4
   61014   61047   61071   61104       4   61014   61047   61074   61107       4
   61014   61047   61074   61110       4   61008   61044   61065   61089       4
   61008   61044   61065   61092       4   61008   61044   61068   61095       4
   61008   61044   61068   61098       4   61002   61008   61044   61065       4
   61002   61008   61044   61068       4   60996   60975   60993   61026       1
   60996   60990   61020   61050       1   60996   61029  -61059   61026       1
   60993   60975   60996   61029       1   60993   61026   61056   61080       4
   60993   61026   61056   61083       4   60993   61026  -61059   61029       1
   60990   60972   60987   61014       1   60990   60996   60975   60993       1
   60990   60996   61029   61059       1   60990   61020  -61050   61014       1
   60987   60972   60990   60996       1   60987   60972   60990   61020       1
   60987   61014   61047   61071       4   60987   61014   61047   61074       4
   60987   61014  -61050   61020       1   60984   61008   61044   61065       4
   60984   61008   61044   61068       4   60981   60966   60969   60984       1
   60981   61002  -61008   60984       1   60981   61002   61008   61044       1
   60975   60951   60969   60984       6   60975   60951   60972   60987       6
   60975   60951  -60972   60990       7   60975   60993   61026   61056       1
   60975   60993   61026   61059       1   60975   60996   60990   61020       5
   60975   60996  -61029   61059       1   60972   60951   60969   60984       6
   60972   60951   60975   60993       6   60972   60951  -60975   60996       7
   60972   60987   61014   61047       1   60972   60987   61014   61050       1
   60972   60990  -60996   60975       5   60972   60990   60996   61029       5
   60972   60990  -61020   61050       1   60969   60951   60972   60987       6
   60969   60951   60972   60990       7   60969   60951   60975   60993       6
   60969   60951   60975   60996       7   60969   60966   60981   61002       1
   60969   60984  -61008   61002       1   60969   60984   61008   61044       1
   60966   60969   60951   60972       7   60966   60969   60951   60975       7
   60966   60969   60984   61008       1   60966   60981  -61002   61008       1
   60951   60924  -60948   60966       1   60951   60969   60966   60981       1
   60951   60969   60984   61008       1   60951   60972   60987   61014       1
   60951   60972  -60990   60996       1   60951   60972   60990   61020       1
   60951   60975   60993   61026       1   60951   60975  -60996   60990       1
   60951   60975   60996   61029       1   60948   60924  -60951   60969       7
   60948   60924   60951   60972       7   60948   60924   60951   60975       7
   60948   60966  -60969   60951       1   60948   60966   60969   60984       1
   60948   60966   60981   61002       1   60942   60957   60978   60999       3
   60936   60957   60978   60999       3   60930   60948   60924   60951       1
   60930   60948   60966   60969       5   60930   60948   60966   60981       5
   60924   60948  -60966   60969       5   60924   60948   60966   60981       5
   60924   60951  -60969   60966       7   60924   60951   60969   60984       6
   60924   60951   60972   60987       6   60924   60951   60972   60990       7
   60924   60951   60975   60993       6   60924   60951   60975   60996       7
   60921   60909   60918   60936       1   60921   60942  -60957   60936       1
   60921   60942   60957   60978       1   60918   60909   60921   60942       1
   60918   60936  -60957   60942       1   60918   60936   60957   60978       1
   60915   60906   60912   60924       1   60915   60930  -60948   60924       1
   60915   60930   60948   60966       1   60912   60906   60915   60930       1
   60912   60924  -60948   60930       1   60912   60924   60948   60966       1
   60912   60924   60951   60969       6   60912   60924   60951   60972       6
   60912   60924   60951   60975       6   60909   60903   60906   60912       4
   60909   60903   60906   60915       4   60909   60918   60936   60957       1
   60909   60921  -60942   60957       1   60906   60903   60909   60918       4
   60906   60903   60909   60921       4   60906   60912   60924   60948       1
   60906   60912   60924   60951       1   60906   60915  -60930   60948       1
   60903   60906   60912   60924       1   60903   60906   60915   60930       1
   60903   60909   60918   60936       1   60903   60909   60921   60942       1
   60894   60903   60906   60912       4   60894   60903   60906   60915       4
   60894   60903   60909   60918       4   60894   60903   60909   60921       4
   60888   60894   60903   60906       4   60888   60894   60903   60909       4
   60882   60894   60903   60906       4   60882   60894   60903   60909       4
   60870   60861   60867   60882       1   60870   60888  -60894   60882       1
   60870   60888   60894   60903       1   60867   60861   60870   60888       1
   60867   60882  -60894   60888       1   60867   60882   60894   60903       1
   60864   60858   60861   60867       3   60864   60858   60861   60870       3
   60861   60867   60882   60894       1   60861   60870  -60888   60894       1
   60858   60861   60867   60882       1   60858   60861   60870   60888       1
   61674   61725   61749   61767       3   61668   61725   61749   61767       3
   61662   61716   61746   61764       3   61656   61716   61746   61764       3
   61650   61707   61743   61761       3   61644   61707   61743   61761       3
   61638   61701   61740   61758       3   61632   61701   61740   61758       3
   61629   61689   61737   61755       3   61623   61689   61737   61755       3
   61614   61680   61734   61752       3   61608   61680   61734   61752       3
   61605   61566   61602   61668       1   61605   61674  -61725   61668       1
   61605   61674   61725   61749       1   61602   61566   61605   61674       1
   61602   61668  -61725   61674       1   61602   61668   61725   61749       1
   61599   61563   61596   61656       1   61599   61662  -61716   61656       1
   61599   61662   61716   61746       1   61596   61563   61599   61662       1
   61596   61656  -61716   61662       1   61596   61656   61716   61746       1
   61593   61557   61590   61644       1   61593   61650  -61707   61644       1
   61593   61650   61707   61743       1   61590   61557   61593   61650       1
   61590   61644  -61707   61650       1   61590   61644   61707   61743       1
   61587   61554   61584   61632       1   61587   61638  -61701   61632       1
   61587   61638   61701   61740       1   61584   61554   61587   61638       1
   61584   61632  -61701   61638       1   61584   61632   61701   61740       1
   61581   61551   61578   61623       1   61581   61629  -61689   61623       1
   61581   61629   61689   61737       1   61578   61551   61581   61629       1
   61578   61623  -61689   61629       1   61578   61623   61689   61737       1
   61575   61548   61572   61608       1   61575   61614  -61680   61608       1
   61575   61614   61680   61734       1   61572   61548   61575   61614       1
   61572   61608  -61680   61614       1   61572   61608   61680   61734       1
   61566   61539   61563   61596       4   61566   61539   61563   61599       4
   61566   61602   61668   61725       1   61566   61605  -61674   61725       1
   61563   61539   61566   61602       4   61563   61539   61566   61605       4
   61563   61596   61656   61716       1   61563   61599  -61662   61716       1
   61557   61530   61554   61584       4   61557   61530   61554   61587       4
   61557   61590   61644   61707       1   61557   61593  -61650   61707       1
   61554   61530   61557   61590       4   61554   61530   61557   61593       4
   61554   61584   61632   61701       1   61554   61587  -61638   61701       1
   61551   61527   61548   61572       4   61551   61527   61548   61575       4
   61551   61578   61623   61689       1   61551   61581  -61629   61689       1
   61548   61527   61551   61578       4   61548   61527   61551   61581       4
   61548   61572   61608   61680       1   61548   61575  -61614   61680       1
   61542   61509   61539   61563       4   61542   61509   61539   61566       4
   61539   61563   61596   61656       1   61539   61563   61599   61662       1
   61539   61566   61602   61668       1   61539   61566   61605   61674       1
   61533   61497   61530   61554       4   61533   61497   61530   61557       4
   61530   61554   61584   61632       1   61530   61554   61587   61638       1
   61530   61557   61590   61644       1   61530   61557   61593   61650       1
   61527   61548   61572   61608       1   61527   61548   61575   61614       1
   61527   61551   61578   61623       1   61527   61551   61581   61629       1
   61512   61542   61509   61539       1   61509   61539   61563   61596       4
   61509   61539   61563   61599       4   61509   61539   61566   61602       4
   61509   61539   61566   61605       4   61503   61473   61479   61512       5
   61503   61533   61497   61530       1   61497   61530   61554   61584       4
   61497   61530   61554   61587       4   61497   61530   61557   61590       4
   61497   61530   61557   61593       4   61491   61527   61548   61572       4
   61491   61527   61548   61575       4   61491   61527   61551   61578       4
   61491   61527   61551   61581       4   61485   61491   61527   61548       4
   61485   61491   61527   61551       4   61479   61458   61476   61509       1
   61479   61473   61503   61533       1   61479   61512  -61542   61509       1
   61476   61458   61479   61512       1   61476   61509   61539   61563       4
   61476   61509   61539   61566       4   61476   61509  -61542   61512       1
   61473   61455   61470   61497       1   61473   61479   61458   61476       1
   61473   61479   61512   61542       1   61473   61503  -61533   61497       1
   61470   61455   61473   61479       1   61470   61455   61473   61503       1
   61470   61497   61530   61554       4   61470   61497   61530   61557       4
   61470   61497  -61533   61503       1   61467   61491   61527   61548       4
   61467   61491   61527   61551       4   61464   61449   61452   61467       1
   61464   61485  -61491   61467       1   61464   61485   61491   61527       1
   61458   61434   61452   61467       6   61458   61434   61455   61470       6
   61458   61434  -61455   61473       7   61458   61476   61509   61539       1
   61458   61476   61509   61542       1   61458   61479   61473   61503       5
   61458   61479  -61512   61542       1   61455   61434   61452   61467       6
   61455   61434   61458   61476       6   61455   61434  -61458   61479       7
   61455   61470   61497   61530       1   61455   61470   61497   61533       1
   61455   61473  -61479   61458       5   61455   61473   61479   61512       5
   61455   61473  -61503   61533       1   61452   61434   61455   61470       6
   61452   61434   61455   61473       7   61452   61434   61458   61476       6
   61452   61434   61458   61479       7   61452   61449   61464   61485       1
   61452   61467  -61491   61485       1   61452   61467   61491   61527       1
   61449   61452   61434   61455       7   61449   61452   61434   61458       7
   61449   61452   61467   61491       1   61449   61464  -61485   61491       1
   61434   61407  -61431   61449       1   61434   61452   61449   61464       1
   61434   61452   61467   61491       1   61434   61455   61470   61497       1
   61434   61455  -61473   61479       1   61434   61455   61473   61503       1
   61434   61458   61476   61509       1   61434   61458  -61479   61473       1
   61434   61458   61479   61512       1   61431   61407  -61434   61452       7
   61431   61407   61434   61455       7   61431   61407   61434   61458       7
   61431   61449  -61452   61434       1   61431   61449   61452   61467       1
   61431   61449   61464   61485       1   61425   61440   61461   61482       3
   61419   61440   61461   61482       3   61413   61431   61407   61434       1
   61413   61431   61449   61452       5   61413   61431   61449   61464       5
   61407   61431  -61449   61452       5   61407   61431   61449   61464       5
   61407   61434  -61452   61449       7   61407   61434   61452   61467       6
   61407   61434   61455   61470       6   61407   61434   61455   61473       7
   61407   61434   61458   61476       6   61407   61434   61458   61479       7
   61404   61392   61401   61419       1   61404   61425  -61440   61419       1
   61404   61425   61440   61461       1   61401   61392   61404   61425       1
   61401   61419  -61440   61425       1   61401   61419   61440   61461       1
   61398   61389   61395   61407       1   61398   61413  -61431   61407       1
   61398   61413   61431   61449       1   61395   61389   61398   61413       1
   61395   61407  -61431   61413       1   61395   61407   61431   61449       1
   61395   61407   61434   61452       6   61395   61407   61434   61455       6
   61395   61407   61434   61458       6   61392   61386   61389   61395       4
   61392   61386   61389   61398       4   61392   61401   61419   61440       1
   61392   61404  -61425   61440       1   61389   61386   61392   61401       4
   61389   61386   61392   61404       4   61389   61395   61407   61431       1
   61389   61395   61407   61434       1   61389   61398  -61413   61431       1
   61386   61389   61395   61407       1   61386   61389   61398   61413       1
   61386   61392   61401   61419       1   61386   61392   61404   61425       1
   61377   61386   61389   61395       4   61377   61386   61389   61398       4
   61377   61386   61392   61401       4   61377   61386   61392   61404       4
   61371   61377   61386   61389       4   61371   61377   61386   61392       4
   61365   61377   61386   61389       4   61365   61377   61386   61392       4
   61353   61344   61350   61365       1   61353   61371  -61377   61365       1
   61353   61371   61377   61386       1   61350   61344   61353   61371       1
   61350   61365  -61377   61371       1   61350   61365   61377   61386       1
   61347   61341   61344   61350       3   61347   61341   61344   61353       3
   61344   61350   61365   61377       1   61344   61353  -61371   61377       1
   61341   61344   61350   61365       1   61341   61344   61353   61371       1
   62157   62208   62232   62250       3   62151   62208   62232   62250       3
   62145   62199   62229   62247       3   62139   62199   62229   62247       3
   62133   62190   62226   62244       3   62127   62190   62226   62244       3
   62121   62184   62223   62241       3   62115   62184   62223   62241       3
   62112   62172   62220   62238       3   62106   62172   62220   62238       3
   62097   62163   62217   62235       3   62091   62163   62217   62235       3
   62088   62049   62085   62151       1   62088   62157  -62208   62151       1
   62088   62157   62208   62232       1   62085   62049   62088   62157       1
   62085   62151  -62208   62157       1   62085   62151   62208   62232       1
   62082   62046   62079   62139       1   62082   62145  -62199   62139       1
   62082   62145   62199   62229       1   62079   62046   62082   62145       1
   62079   62139  -62199   62145       1   62079   62139   62199   62229       1
   62076   62040   62073   62127       1   62076   62133  -62190   62127       1
   62076   62133   62190   62226       1   62073   62040   62076   62133       1
   62073   62127  -62190   62133       1   62073   62127   62190   62226       1
   62070   62037   62067   62115       1   62070   62121  -62184   62115       1
   62070   62121   62184   62223       1   62067   62037   62070   62121       1
   62067   62115  -62184   62121       1   62067   62115   62184   62223       1
   62064   62034   62061   62106       1   62064   62112  -62172   62106       1
   62064   62112   62172   62220       1   62061   62034   62064   62112       1
   62061   62106  -62172   62112       1   62061   62106   62172   62220       1
   62058   62031   62055   62091       1   62058   62097  -62163   62091       1
   62058   62097   62163   62217       1   62055   62031   62058   62097       1
   62055   62091  -62163   62097       1   62055   62091   62163   62217       1
   62049   62022   62046   62079       4   62049   62022   62046   62082       4
   62049   62085   62151   62208       1   62049   62088  -62157   62208       1
   62046   62022   62049   62085       4   62046   62022   62049   62088       4
   62046   62079   62139   62199       1   62046   62082  -62145   62199       1
   62040   62013   62037   62067       4   62040   62013   62037   62070       4
   62040   62073   62127   62190       1   62040   62076  -62133   62190       1
   62037   62013   62040   62073       4   62037   62013   62040   62076       4
   62037   62067   62115   62184       1   62037   62070  -62121   62184       1
   62034   62010   62031   62055       4   62034   62010   62031   62058       4
   62034   62061   62106   62172       1   62034   62064  -62112   62172       1
   62031   62010   62034   62061       4   62031   62010   62034   62064       4
   62031   62055   62091   62163       1   62031   62058  -62097   62163       1
   62025   61992   62022   62046       4   62025   61992   62022   62049       4
   62022   62046   62079   62139       1   62022   62046   62082   62145       1
   62022   62049   62085   62151       1   62022   62049   62088   62157       1
   62016   61980   62013   62037       4   62016   61980   62013   62040       4
   62013   62037   62067   62115       1   62013   62037   62070   62121       1
   62013   62040   62073   62127       1   62013   62040   62076   62133       1
   62010   62031   62055   62091       1   62010   62031   62058   62097       1
   62010   62034   62061   62106       1   62010   62034   62064   62112       1
   61995   62025   61992   62022       1   61992   62022   62046   62079       4
   61992   62022   62046   62082       4   61992   62022   62049   62085       4
   61992   62022   62049   62088       4   61986   61956   61962   61995       5
   61986   62016   61980   62013       1   61980   62013   62037   62067       4
   61980   62013   62037   62070       4   61980   62013   62040   62073       4
   61980   62013   62040   62076       4   61974   62010   62031   62055       4
   61974   62010   62031   62058       4   61974   62010   62034   62061       4
   61974   62010   62034   62064       4   61968   61974   62010   62031       4
   61968   61974   62010   62034       4   61962   61941   61959   61992       1
   61962   61956   61986   62016       1   61962   61995  -62025   61992       1
   61959   61941   61962   61995       1   61959   61992   62022   62046       4
   61959   61992   62022   62049       4   61959   61992  -62025   61995       1
   61956   61938   61953   61980       1   61956   61962   61941   61959       1
   61956   61962   61995   62025       1   61956   61986  -62016   61980       1
   61953   61938   61956   61962       1   61953   61938   61956   61986       1
   61953   61980   62013   62037       4   61953   61980   62013   62040       4
   61953   61980  -62016   61986       1   61950   61974   62010   62031       4
   61950   61974   62010   62034       4   61947   61932   61935   61950       1
   61947   61968  -61974   61950       1   61947   61968   61974   62010       1
   61941   61917   61935   61950       6   61941   61917   61938   61953       6
   61941   61917  -61938   61956       7   61941   61959   61992   62022       1
   61941   61959   61992   62025       1   61941   61962   61956   61986       5
   61941   61962  -61995   62025       1   61938   61917   61935   61950       6
   61938   61917   61941   61959       6   61938   61917  -61941   61962       7
   61938   61953   61980   62013       1   61938   61953   61980   62016       1
   61938   61956  -61962   61941       5   61938   61956   61962   61995       5
   61938   61956  -61986   62016       1   61935   61917   61938   61953       6
   61935   61917   61938   61956       7   61935   61917   61941   61959       6
   61935   61917   61941   61962       7   61935   61932   61947   61968       1
   61935   61950  -61974   61968       1   61935   61950   61974   62010       1
   61932   61935   61917   61938       7   61932   61935   61917   61941       7
   61932   61935   61950   61974       1   61932   61947  -61968   61974       1
   61917   61890  -61914   61932       1   61917   61935   61932   61947       1
   61917   61935   61950   61974       1   61917   61938   61953   61980       1
   61917   61938  -61956   61962       1   61917   61938   61956   61986       1
   61917   61941   61959   61992       1   61917   61941  -61962   61956       1
   61917   61941   61962   61995       1   61914   61890  -61917   61935       7
   61914   61890   61917   61938       7   61914   61890   61917   61941       7
   61914   61932  -61935   61917       1   61914   61932   61935   61950       1
   61914   61932   61947   61968       1   61908   61923   61944   61965       3
   61902   61923   61944   61965       3   61896   61914   61890   61917       1
   61896   61914   61932   61935       5   61896   61914   61932   61947       5
   61890   61914  -61932   61935       5   61890   61914   61932   61947       5
   61890   61917  -61935   61932       7   61890   61917   61935   61950       6
   61890   61917   61938   61953       6   61890   61917   61938   61956       7
   61890   61917   61941   61959       6   61890   61917   61941   61962       7
   61887   61875   61884   61902       1   61887   61908  -61923   61902       1
   61887   61908   61923   61944       1   61884   61875   61887   61908       1
   61884   61902  -61923   61908       1   61884   61902   61923   61944       1
   61881   61872   61878   61890       1   61881   61896  -61914   61890       1
   61881   61896   61914   61932       1   61878   61872   61881   61896       1
   61878   61890  -61914   61896       1   61878   61890   61914   61932       1
   61878   61890   61917   61935       6   61878   61890   61917   61938       6
   61878   61890   61917   61941       6   61875   61869   61872   61878       4
   61875   61869   61872   61881       4   61875   61884   61902   61923       1
   61875   61887  -61908   61923       1   61872   61869   61875   61884       4
   61872   61869   61875   61887       4   61872   61878   61890   61914       1
   61872   61878   61890   61917       1   61872   61881  -61896   61914       1
   61869   61872   61878   61890       1   61869   61872   61881   61896       1
   61869   61875   61884   61902       1   61869   61875   61887   61908       1
   61860   61869   61872   61878       4   61860   61869   61872   61881       4
   61860   61869   61875   61884       4   61860   61869   61875   61887       4
   61854   61860   61869   61872       4   61854   61860   61869   61875       4
   61848   61860   61869   61872       4   61848   61860   61869   61875       4
   61836   61827   61833   61848       1   61836   61854  -61860   61848       1
   61836   61854   61860   61869       1   61833   61827   61836   61854       1
   61833   61848  -61860   61854       1   61833   61848   61860   61869       1
   61830   61824   61827   61833       3   61830   61824   61827   61836       3
   61827   61833   61848   61860       1   61827   61836  -61854   61860       1
   61824   61827   61833   61848       1   61824   61827   61836   61854       1
   62640   62691   62715   62733       3   62634   62691   62715   62733       3
   62628   62682   62712   62730       3   62622   62682   62712   62730       3
   62616   62673   62709   62727       3   62610   62673   62709   62727       3
   62604   62667   62706   62724       3   62598   62667   62706   62724       3
   62595   62655   62703   62721       3   62589   62655   62703   62721       3
   62580   62646   62700   62718       3   62574   62646   62700   62718       3
   62571   62532   62568   62634       1   62571   62640  -62691   62634       1
   62571   62640   62691   62715       1   62568   62532   62571   62640       1
   62568   62634  -62691   62640       1   62568   62634   62691   62715       1
   62565   62529   62562   62622       1   62565   62628  -62682   62622       1
   62565   62628   62682   62712       1   62562   62529   62565   62628       1
   62562   62622  -62682   62628       1   62562   62622   62682   62712       1
   62559   62523   62556   62610       1   62559   62616  -62673   62610       1
   62559   62616   62673   62709       1   62556   62523   62559   62616       1
   62556   62610  -62673   62616       1   62556   62610   62673   62709       1
   62553   62520   62550   62598       1   62553   62604  -62667   62598       1
   62553   62604   62667   62706       1   62550   62520   62553   62604       1
   62550   62598  -62667   62604       1   62550   62598   62667   62706       1
   62547   62517   62544   62589       1   62547   62595  -62655   62589       1
   62547   62595   62655   62703       1   62544   62517   62547   62595       1
   62544   62589  -62655   62595       1   62544   62589   62655   62703       1
   62541   62514   62538   62574       1   62541   62580  -62646   62574       1
   62541   62580   62646   62700       1   62538   62514   62541   62580       1
   62538   62574  -62646   62580       1   62538   62574   62646   62700       1
   62532   62505   62529   62562       4   62532   62505   62529   62565       4
   62532   62568   62634   62691       1   62532   62571  -62640   62691       1
   62529   62505   62532   62568       4   62529   62505   62532   62571       4
   62529   62562   62622   62682       1   62529   62565  -62628   62682       1
   62523   62496   62520   62550       4   62523   62496   62520   62553       4
   62523   62556   62610   62673       1   62523   62559  -62616   62673       1
   62520   62496   62523   62556       4   62520   62496   62523   62559       4
   62520   62550   62598   62667       1   62520   62553  -62604   62667       1
   62517   62493   62514   62538       4   62517   62493   62514   62541       4
   62517   62544   62589   62655       1   62517   62547  -62595   62655       1
   62514   62493   62517   62544       4   62514   62493   62517   62547       4
   62514   62538   62574   62646       1   62514   62541  -62580   62646       1
   62508   62475   62505   62529       4   62508   62475   62505   62532       4
   62505   62529   62562   62622       1   62505   62529   62565   62628       1
   62505   62532   62568   62634       1   62505   62532   62571   62640       1
   62499   62463   62496   62520       4   62499   62463   62496   62523       4
   62496   62520   62550   62598       1   62496   62520   62553   62604       1
   62496   62523   62556   62610       1   62496   62523   62559   62616       1
   62493   62514   62538   62574       1   62493   62514   62541   62580       1
   62493   62517   62544   62589       1   62493   62517   62547   62595       1
   62478   62508   62475   62505       1   62475   62505   62529   62562       4
   62475   62505   62529   62565       4   62475   62505   62532   62568       4
   62475   62505   62532   62571       4   62469   62439   62445   62478       5
   62469   62499   62463   62496       1   62463   62496   62520   62550       4
   62463   62496   62520   62553       4   62463   62496   62523   62556       4
   62463   62496   62523   62559       4   62457   62493   62514   62538       4
   62457   62493   62514   62541       4   62457   62493   62517   62544       4
   62457   62493   62517   62547       4   62451   62457   62493   62514       4
   62451   62457   62493   62517       4   62445   62424   62442   62475       1
   62445   62439   62469   62499       1   62445   62478  -62508   62475       1
   62442   62424   62445   62478       1   62442   62475   62505   62529       4
   62442   62475   62505   62532       4   62442   62475  -62508   62478       1
   62439   62421   62436   62463       1   62439   62445   62424   62442       1
   62439   62445   62478   62508       1   62439   62469  -62499   62463       1
   62436   62421   62439   62445       1   62436   62421   62439   62469       1
   62436   62463   62496   62520       4   62436   62463   62496   62523       4
   62436   62463  -62499   62469       1   62433   62457   62493   62514       4
   62433   62457   62493   62517       4   62430   62415   62418   62433       1
   62430   62451  -62457   62433       1   62430   62451   62457   62493       1
   62424   62400   62418   62433       6   62424   62400   62421   62436       6
   62424   62400  -62421   62439       7   62424   62442   62475   62505       1
   62424   62442   62475   62508       1   62424   62445   62439   62469       5
   62424   62445  -62478   62508       1   62421   62400   62418   62433       6
   62421   62400   62424   62442       6   62421   62400  -62424   62445       7
   62421   62436   62463   62496       1   62421   62436   62463   62499       1
   62421   62439  -62445   62424       5   62421   62439   62445   62478       5
   62421   62439  -62469   62499       1   62418   62400   62421   62436       6
   62418   62400   62421   62439       7   62418   62400   62424   62442       6
   62418   62400   62424   62445       7   62418   62415   62430   62451       1
   62418   62433  -62457   62451       1   62418   62433   62457   62493       1
   62415   62418   62400   62421       7   62415   62418   62400   62424       7
   62415   62418   62433   62457       1   62415   62430  -62451   62457       1
   62400   62373  -62397   62415       1   62400   62418   62415   62430       1
   62400   62418   62433   62457       1   62400   62421   62436   62463       1
   62400   62421  -62439   62445       1   62400   62421   62439   62469       1
   62400   62424   62442   62475       1   62400   62424  -62445   62439       1
   62400   62424   62445   62478       1   62397   62373  -62400   62418       7
   62397   62373   62400   62421       7   62397   62373   62400   62424       7
   62397   62415  -62418   62400       1   62397   62415   62418   62433       1
   62397   62415   62430   62451       1   62391   62406   62427   62448       3
   62385   62406   62427   62448       3   62379   62397   62373   62400       1
   62379   62397   62415   62418       5   62379   62397   62415   62430       5
   62373   62397  -62415   62418       5   62373   62397   62415   62430       5
   62373   62400  -62418   62415       7   62373   62400   62418   62433       6
   62373   62400   62421   62436       6   62373   62400   62421   62439       7
   62373   62400   62424   62442       6   62373   62400   62424   62445       7
   62370   62358   62367   62385       1   62370   62391  -62406   62385       1
   62370   62391   62406   62427       1   62367   62358   62370   62391       1
   62367   62385  -62406   62391       1   62367   62385   62406   62427       1
   62364   62355   62361   62373       1   62364   62379  -62397   62373       1
   62364   62379   62397   62415       1   62361   62355   62364   62379       1
   62361   62373  -62397   62379       1   62361   62373   62397   62415       1
   62361   62373   62400   62418       6   62361   62373   62400   62421       6
   62361   62373   62400   62424       6   62358   62352   62355   62361       4
   62358   62352   62355   62364       4   62358   62367   62385   62406       1
   62358   62370  -62391   62406       1   62355   62352   62358   62367       4
   62355   62352   62358   62370       4   62355   62361   62373   62397       1
   62355   62361   62373   62400       1   62355   62364  -62379   62397       1
   62352   62355   62361   62373       1   62352   62355   62364   62379       1
   62352   62358   62367   62385       1   62352   62358   62370   62391       1
   62343   62352   62355   62361       4   62343   62352   62355   62364       4
   62343   62352   62358   62367       4   62343   62352   62358   62370       4
   62337   62343   62352   62355       4   62337   62343   62352   62358       4
   62331   62343   62352   62355       4   62331   62343   62352   62358       4
   62319   62310   62316   62331       1   62319   62337  -62343   62331       1
   62319   62337   62343   62352       1   62316   62310   62319   62337       1
   62316   62331  -62343   62337       1   62316   62331   62343   62352       1
   62313   62307   62310   62316       3   62313   62307   62310   62319       3
   62310   62316   62331   62343       1   62310   62319  -62337   62343       1
   62307   62310   62316   62331       1   62307   62310   62319   62337       1
   63123   63174   63198   63216       3   63117   63174   63198   63216       3
   63111   63165   63195   63213       3   63105   63165   63195   63213       3
   63099   63156   63192   63210       3   63093   63156   63192   63210       3
   63087   63150   63189   63207       3   63081   63150   63189   63207       3
   63078   63138   63186   63204       3   63072   63138   63186   63204       3
   63063   63129   63183   63201       3   63057   63129   63183   63201       3
   63054   63015   63051   63117       1   63054   63123  -63174   63117       1
   63054   63123   63174   63198       1   63051   63015   63054   63123       1
   63051   63117  -63174   63123       1   63051   63117   63174   63198       1
   63048   63012   63045   63105       1   63048   63111  -63165   63105       1
   63048   63111   63165   63195       1   63045   63012   63048   63111       1
   63045   63105  -63165   63111       1   63045   63105   63165   63195       1
   63042   63006   63039   63093       1   63042   63099  -63156   63093       1
   63042   63099   63156   63192       1   63039   63006   63042   63099       1
   63039   63093  -63156   63099       1   63039   63093   63156   63192       1
   63036   63003   63033   63081       1   63036   63087  -63150   63081       1
   63036   63087   63150   63189       1   63033   63003   63036   63087       1
   63033   63081  -63150   63087       1   63033   63081   63150   63189       1
   63030   63000   63027   63072       1   63030   63078  -63138   63072       1
   63030   63078   63138   63186       1   63027   63000   63030   63078       1
   63027   63072  -63138   63078       1   63027   63072   63138   63186       1
   63024   62997   63021   63057       1   63024   63063  -63129   63057       1
   63024   63063   63129   63183       1   63021   62997   63024   63063       1
   63021   63057  -63129   63063       1   63021   63057   63129   63183       1
   63015   62988   63012   63045       4   63015   62988   63012   63048       4
   63015   63051   63117   63174       1   63015   63054  -63123   63174       1
   63012   62988   63015   63051       4   63012   62988   63015   63054       4
   63012   63045   63105   63165       1   63012   63048  -63111   63165       1
   63006   62979   63003   63033       4   63006   62979   63003   63036       4
   63006   63039   63093   63156       1   63006   63042  -63099   63156       1
   63003   62979   63006   63039       4   63003   62979   63006   63042       4
   63003   63033   63081   63150       1   63003   63036  -63087   63150       1
   63000   62976   62997   63021       4   63000   62976   62997   63024       4
   63000   63027   63072   63138       1   63000   63030  -63078   63138       1
   62997   62976   63000   63027       4   62997   62976   63000   63030       4
   62997   63021   63057   63129       1   62997   63024  -63063   63129       1
   62991   62958   62988   63012       4   62991   62958   62988   63015       4
   62988   63012   63045   63105       1   62988   63012   63048   63111       1
   62988   63015   63051   63117       1   62988   63015   63054   63123       1
   62982   62946   62979   63003       4   62982   62946   62979   63006       4
   62979   63003   63033   63081       1   62979   63003   63036   63087       1
   62979   63006   63039   63093       1   62979   63006   63042   63099       1
   62976   62997   63021   63057       1   62976   62997   63024   63063       1
   62976   63000   63027   63072       1   62976   63000   63030   63078       1
   62961   62991   62958   62988       1   62958   62988   63012   63045       4
   62958   62988   63012   63048       4   62958   62988   63015   63051       4
   62958   62988   63015   63054       4   62952   62922   62928   62961       5
   62952   62982   62946   62979       1   62946   62979   63003   63033       4
   62946   62979   63003   63036       4   62946   62979   63006   63039       4
   62946   62979   63006   63042       4   62940   62976   62997   63021       4
   62940   62976   62997   63024       4   62940   62976   63000   63027       4
   62940   62976   63000   63030       4   62934   62940   62976   62997       4
   62934   62940   62976   63000       4   62928   62907   62925   62958       1
   62928   62922   62952   62982       1   62928   62961  -62991   62958       1
   62925   62907   62928   62961       1   62925   62958   62988   63012       4
   62925   62958   62988   63015       4   62925   62958  -62991   62961       1
   62922   62904   62919   62946       1   62922   62928   62907   62925       1
   62922   62928   62961   62991       1   62922   62952  -62982   62946       1
   62919   62904   62922   62928       1   62919   62904   62922   62952       1
   62919   62946   62979   63003       4   62919   62946   62979   63006       4
   62919   62946  -62982   62952       1   62916   62940   62976   62997       4
   62916   62940   62976   63000       4   62913   62898   62901   62916       1
   62913   62934  -62940   62916       1   62913   62934   62940   62976       1
   62907   62883   62901   62916       6   62907   62883   62904   62919       6
   62907   62883  -62904   62922       7   62907   62925   62958   62988       1
   62907   62925   62958   62991       1   62907   62928   62922   62952       5
   62907   62928  -62961   62991       1   62904   62883   62901   62916       6
   62904   62883   62907   62925       6   62904   62883  -62907   62928       7
   62904   62919   62946   62979       1   62904   62919   62946   62982       1
   62904   62922  -62928   62907       5   62904   62922   62928   62961       5
   62904   62922  -62952   62982       1   62901   62883   62904   62919       6
   62901   62883   62904   62922       7   62901   62883   62907   62925       6
   62901   62883   62907   62928       7   62901   62898   62913   62934       1
   62901   62916  -62940   62934       1   62901   62916   62940   62976       1
   62898   62901   62883   62904       7   62898   62901   62883   62907       7
   62898   62901   62916   62940       1   62898   62913  -62934   62940       1
   62883   62856  -62880   62898       1   62883   62901   62898   62913       1
   62883   62901   62916   62940       1   62883   62904   62919   62946       1
   62883   62904  -62922   62928       1   62883   62904   62922   62952       1
   62883   62907   62925   62958       1   62883   62907  -62928   62922       1
   62883   62907   62928   62961       1   62880   62856  -62883   62901       7
   62880   62856   62883   62904       7   62880   62856   62883   62907       7
   62880   62898  -62901   62883       1   62880   62898   62901   62916       1
   62880   62898   62913   62934       1   62874   62889   62910   62931       3
   62868   62889   62910   62931       3   62862   62880   62856   62883       1
   62862   62880   62898   62901       5   62862   62880   62898   62913       5
   62856   62880  -62898   62901       5   62856   62880   62898   62913       5
   62856   62883  -62901   62898       7   62856   62883   62901   62916       6
   62856   62883   62904   62919       6   62856   62883   62904   62922       7
   62856   62883   62907   62925       6   62856   62883   62907   62928       7
   62853   62841   62850   62868       1   62853   62874  -62889   62868       1
   62853   62874   62889   62910       1   62850   62841   62853   62874       1
   62850   62868  -62889   62874       1   62850   62868   62889   62910       1
   62847   62838   62844   62856       1   62847   62862  -62880   62856       1
   62847   62862   62880   62898       1   62844   62838   62847   62862       1
   62844   62856  -62880   62862       1   62844   62856   62880   62898       1
   62844   62856   62883   62901       6   62844   62856   62883   62904       6
   62844   62856   62883   62907       6   62841   62835   62838   62844       4
   62841   62835   62838   62847       4   62841   62850   62868   62889       1
   62841   62853  -62874   62889       1   62838   62835   62841   62850       4
   62838   62835   62841   62853       4   62838   62844   62856   62880       1
   62838   62844   62856   62883       1   62838   62847  -62862   62880       1
   62835   62838   62844   62856       1   62835   62838   62847   62862       1
   62835   62841   62850   62868       1   62835   62841   62853   62874       1
   62826   62835   62838   62844       4   62826   62835   62838   62847       4
   62826   62835   62841   62850       4   62826   62835   62841   62853       4
   62820   62826   62835   62838       4   62820   62826   62835   62841       4
   62814   62826   62835   62838       4   62814   62826   62835   62841       4
   62802   62793   62799   62814       1   62802   62820  -62826   62814       1
   62802   62820   62826   62835       1   62799   62793   62802   62820       1
   62799   62814  -62826   62820       1   62799   62814   62826   62835       1
   62796   62790   62793   62799       3   62796   62790   62793   62802       3
   62793   62799   62814   62826       1   62793   62802  -62820   62826       1
   62790   62793   62799   62814       1   62790   62793   62802   62820       1
   63606   63657   63681   63699       3   63600   63657   63681   63699       3
   63594   63648   63678   63696       3   63588   63648   63678   63696       3
   63582   63639   63675   63693       3   63576   63639   63675   63693       3
   63570   63633   63672   63690       3   63564   63633   63672   63690       3
   63561   63621   63669   63687       3   63555   63621   63669   63687       3
   63546   63612   63666   63684       3   63540   63612   63666   63684       3
   63537   63498   63534   63600       1   63537   63606  -63657   63600       1
   63537   63606   63657   63681       1   63534   63498   63537   63606       1
   63534   63600  -63657   63606       1   63534   63600   63657   63681       1
   63531   63495   63528   63588       1   63531   63594  -63648   63588       1
   63531   63594   63648   63678       1   63528   63495   63531   63594       1
   63528   63588  -63648   63594       1   63528   63588   63648   63678       1
   63525   63489   63522   63576       1   63525   63582  -63639   63576       1
   63525   63582   63639   63675       1   63522   63489   63525   63582       1
   63522   63576  -63639   63582       1   63522   63576   63639   63675       1
   63519   63486   63516   63564       1   63519   63570  -63633   63564       1
   63519   63570   63633   63672       1   63516   63486   63519   63570       1
   63516   63564  -63633   63570       1   63516   63564   63633   63672       1
   63513   63483   63510   63555       1   63513   63561  -63621   63555       1
   63513   63561   63621   63669       1   63510   63483   63513   63561       1
   63510   63555  -63621   63561       1   63510   63555   63621   63669       1
   63507   63480   63504   63540       1   63507   63546  -63612   63540       1
   63507   63546   63612   63666       1   63504   63480   63507   63546       1
   63504   63540  -63612   63546       1   63504   63540   63612   63666       1
   63498   63471   63495   63528       4   63498   63471   63495   63531       4
   63498   63534   63600   63657       1   63498   63537  -63606   63657       1
   63495   63471   63498   63534       4   63495   63471   63498   63537       4
   63495   63528   63588   63648       1   63495   63531  -63594   63648       1
   63489   63462   63486   63516       4   63489   63462   63486   63519       4
   63489   63522   63576   63639       1   63489   63525  -63582   63639       1
   63486   63462   63489   63522       4   63486   63462   63489   63525       4
   63486   63516   63564   63633       1   63486   63519  -63570   63633       1
   63483   63459   63480   63504       4   63483   63459   63480   63507       4
   63483   63510   63555   63621       1   63483   63513  -63561   63621       1
   63480   63459   63483   63510       4   63480   63459   63483   63513       4
   63480   63504   63540   63612       1   63480   63507  -63546   63612       1
   63474   63441   63471   63495       4   63474   63441   63471   63498       4
   63471   63495   63528   63588       1   63471   63495   63531   63594       1
   63471   63498   63534   63600       1   63471   63498   63537   63606       1
   63465   63429   63462   63486       4   63465   63429   63462   63489       4
   63462   63486   63516   63564       1   63462   63486   63519   63570       1
   63462   63489   63522   63576       1   63462   63489   63525   63582       1
   63459   63480   63504   63540       1   63459   63480   63507   63546       1
   63459   63483   63510   63555       1   63459   63483   63513   63561       1
   63444   63474   63441   63471       1   63441   63471   63495   63528       4
   63441   63471   63495   63531       4   63441   63471   63498   63534       4
   63441   63471   63498   63537       4   63435   63405   63411   63444       5
   63435   63465   63429   63462       1   63429   63462   63486   63516       4
   63429   63462   63486   63519       4   63429   63462   63489   63522       4
   63429   63462   63489   63525       4   63423   63459   63480   63504       4
   63423   63459   63480   63507       4   63423   63459   63483   63510       4
   63423   63459   63483   63513       4   63417   63423   63459   63480       4
   63417   63423   63459   63483       4   63411   63390   63408   63441       1
   63411   63405   63435   63465       1   63411   63444  -63474   63441       1
   63408   63390   63411   63444       1   63408   63441   63471   63495       4
   63408   63441   63471   63498       4   63408   63441  -63474   63444       1
   63405   63387   63402   63429       1   63405   63411   63390   63408       1
   63405   63411   63444   63474       1   63405   63435  -63465   63429       1
   63402   63387   63405   63411       1   63402   63387   63405   63435       1
   63402   63429   63462   63486       4   63402   63429   63462   63489       4
   63402   63429  -63465   63435       1   63399   63423   63459   63480       4
   63399   63423   63459   63483       4   63396   63381   63384   63399       1
   63396   63417  -63423   63399       1   63396   63417   63423   63459       1
   63390   63366   63384   63399       6   63390   63366   63387   63402       6
   63390   63366  -63387   63405       7   63390   63408   63441   63471       1
   63390   63408   63441   63474       1   63390   63411   63405   63435       5
   63390   63411  -63444   63474       1   63387   63366   63384   63399       6
   63387   63366   63390   63408       6   63387   63366  -63390   63411       7
   63387   63402   63429   63462       1   63387   63402   63429   63465       1
   63387   63405  -63411   63390       5   63387   63405   63411   63444       5
   63387   63405  -63435   63465       1   63384   63366   63387   63402       6
   63384   63366   63387   63405       7   63384   63366   63390   63408       6
   63384   63366   63390   63411       7   63384   63381   63396   63417       1
   63384   63399  -63423   63417       1   63384   63399   63423   63459       1
   63381   63384   63366   63387       7   63381   63384   63366   63390       7
   63381   63384   63399   63423       1   63381   63396  -63417   63423       1
   63366   63339  -63363   63381       1   63366   63384   63381   63396       1
   63366   63384   63399   63423       1   63366   63387   63402   63429       1
   63366   63387  -63405   63411       1   63366   63387   63405   63435       1
   63366   63390   63408   63441       1   63366   63390  -63411   63405       1
   63366   63390   63411   63444       1   63363   63339  -63366   63384       7
   63363   63339   63366   63387       7   63363   63339   63366   63390       7
   63363   63381  -63384   63366       1   63363   63381   63384   63399       1
   63363   63381   63396   63417       1   63357   63372   63393   63414       3
   63351   63372   63393   63414       3   63345   63363   63339   63366       1
   63345   63363   63381   63384       5   63345   63363   63381   63396       5
   63339   63363  -63381   63384       5   63339   63363   63381   63396       5
   63339   63366  -63384   63381       7   63339   63366   63384   63399       6
   63339   63366   63387   63402       6   63339   63366   63387   63405       7
   63339   63366   63390   63408       6   63339   63366   63390   63411       7
   63336   63324   63333   63351       1   63336   63357  -63372   63351       1
   63336   63357   63372   63393       1   63333   63324   63336   63357       1
   63333   63351  -63372   63357       1   63333   63351   63372   63393       1
   63330   63321   63327   63339       1   63330   63345  -63363   63339       1
   63330   63345   63363   63381       1   63327   63321   63330   63345       1
   63327   63339  -63363   63345       1   63327   63339   63363   63381       1
   63327   63339   63366   63384       6   63327   63339   63366   63387       6
   63327   63339   63366   63390       6   63324   63318   63321   63327       4
   63324   63318   63321   63330       4   63324   63333   63351   63372       1
   63324   63336  -63357   63372       1   63321   63318   63324   63333       4
   63321   63318   63324   63336       4   63321   63327   63339   63363       1
   63321   63327   63339   63366       1   63321   63330  -63345   63363       1
   63318   63321   63327   63339       1   63318   63321   63330   63345       1
   63318   63324   63333   63351       1   63318   63324   63336   63357       1
   63309   63318   63321   63327       4   63309   63318   63321   63330       4
   63309   63318   63324   63333       4   63309   63318   63324   63336       4
   63303   63309   63318   63321       4   63303   63309   63318   63324       4
   63297   63309   63318   63321       4   63297   63309   63318   63324       4
   63285   63276   63282   63297       1   63285   63303  -63309   63297       1
   63285   63303   63309   63318       1   63282   63276   63285   63303       1
   63282   63297  -63309   63303       1   63282   63297   63309   63318       1
   63279   63273   63276   63282       3   63279   63273   63276   63285       3
   63276   63282   63297   63309       1   63276   63285  -63303   63309       1
   63273   63276   63282   63297       1   63273   63276   63285   63303       1
   64089   64140   64164   64182       3   64083   64140   64164   64182       3
   64077   64131   64161   64179       3   64071   64131   64161   64179       3
   64065   64122   64158   64176       3   64059   64122   64158   64176       3
   64053   64116   64155   64173       3   64047   64116   64155   64173       3
   64044   64104   64152   64170       3   64038   64104   64152   64170       3
   64029   64095   64149   64167       3   64023   64095   64149   64167       3
   64020   63981   64017   64083       1   64020   64089  -64140   64083       1
   64020   64089   64140   64164       1   64017   63981   64020   64089       1
   64017   64083  -64140   64089       1   64017   64083   64140   64164       1
   64014   63978   64011   64071       1   64014   64077  -64131   64071       1
   64014   64077   64131   64161       1   64011   63978   64014   64077       1
   64011   64071  -64131   64077       1   64011   64071   64131   64161       1
   64008   63972   64005   64059       1   64008   64065  -64122   64059       1
   64008   64065   64122   64158       1   64005   63972   64008   64065       1
   64005   64059  -64122   64065       1   64005   64059   64122   64158       1
   64002   63969   63999   64047       1   64002   64053  -64116   64047       1
   64002   64053   64116   64155       1   63999   63969   64002   64053       1
   63999   64047  -64116   64053       1   63999   64047   64116   64155       1
   63996   63966   63993   64038       1   63996   64044  -64104   64038       1
   63996   64044   64104   64152       1   63993   63966   63996   64044       1
   63993   64038  -64104   64044       1   63993   64038   64104   64152       1
   63990   63963   63987   64023       1   63990   64029  -64095   64023       1
   63990   64029   64095   64149       1   63987   63963   63990   64029       1
   63987   64023  -64095   64029       1   63987   64023   64095   64149       1
   63981   63954   63978   64011       4   63981   63954   63978   64014       4
   63981   64017   64083   64140       1   63981   64020  -64089   64140       1
   63978   63954   63981   64017       4   63978   63954   63981   64020       4
   63978   64011   64071   64131       1   63978   64014  -64077   64131       1
   63972   63945   63969   63999       4   63972   63945   63969   64002       4
   63972   64005   64059   64122       1   63972   64008  -64065   64122       1
   63969   63945   63972   64005       4   63969   63945   63972   64008       4
   63969   63999   64047   64116       1   63969   64002  -64053   64116       1
   63966   63942   63963   63987       4   63966   63942   63963   63990       4
   63966   63993   64038   64104       1   63966   63996  -64044   64104       1
   63963   63942   63966   63993       4   63963   63942   63966   63996       4
   63963   63987   64023   64095       1   63963   63990  -64029   64095       1
   63957   63924   63954   63978       4   63957   63924   63954   63981       4
   63954   63978   64011   64071       1   63954   63978   64014   64077       1
   63954   63981   64017   64083       1   63954   63981   64020   64089       1
   63948   63912   63945   63969       4   63948   63912   63945   63972       4
   63945   63969   63999   64047       1   63945   63969   64002   64053       1
   63945   63972   64005   64059       1   63945   63972   64008   64065       1
   63942   63963   63987   64023       1   63942   63963   63990   64029       1
   63942   63966   63993   64038       1   63942   63966   63996   64044       1
   63927   63957   63924   63954       1   63924   63954   63978   64011       4
   63924   63954   63978   64014       4   63924   63954   63981   64017       4
   63924   63954   63981   64020       4   63918   63888   63894   63927       5
   63918   63948   63912   63945       1   63912   63945   63969   63999       4
   63912   63945   63969   64002       4   63912   63945   63972   64005       4
   63912   63945   63972   64008       4   63906   63942   63963   63987       4
   63906   63942   63963   63990       4   63906   63942   63966   63993       4
   63906   63942   63966   63996       4   63900   63906   63942   63963       4
   63900   63906   63942   63966       4   63894   63873   63891   63924       1
   63894   63888   63918   63948       1   63894   63927  -63957   63924       1
   63891   63873   63894   63927       1   63891   63924   63954   63978       4
   63891   63924   63954   63981       4   63891   63924  -63957   63927       1
   63888   63870   63885   63912       1   63888   63894   63873   63891       1
   63888   63894   63927   63957       1   63888   63918  -63948   63912       1
   63885   63870   63888   63894       1   63885   63870   63888   63918       1
   63885   63912   63945   63969       4   63885   63912   63945   63972       4
   63885   63912  -63948   63918       1   63882   63906   63942   63963       4
   63882   63906   63942   63966       4   63879   63864   63867   63882       1
   63879   63900  -63906   63882       1   63879   63900   63906   63942       1
   63873   63849   63867   63882       6   63873   63849   63870   63885       6
   63873   63849  -63870   63888       7   63873   63891   63924   63954       1
   63873   63891   63924   63957       1   63873   63894   63888   63918       5
   63873   63894  -63927   63957       1   63870   63849   63867   63882       6
   63870   63849   63873   63891       6   63870   63849  -63873   63894       7
   63870   63885   63912   63945       1   63870   63885   63912   63948       1
   63870   63888  -63894   63873       5   63870   63888   63894   63927       5
   63870   63888  -63918   63948       1   63867   63849   63870   63885       6
   63867   63849   63870   63888       7   63867   63849   63873   63891       6
   63867   63849   63873   63894       7   63867   63864   63879   63900       1
   63867   63882  -63906   63900       1   63867   63882   63906   63942       1
   63864   63867   63849   63870       7   63864   63867   63849   63873       7
   63864   63867   63882   63906       1   63864   63879  -63900   63906       1
   63849   63822  -63846   63864       1   63849   63867   63864   63879       1
   63849   63867   63882   63906       1   63849   63870   63885   63912       1
   63849   63870  -63888   63894       1   63849   63870   63888   63918       1
   63849   63873   63891   63924       1   63849   63873  -63894   63888       1
   63849   63873   63894   63927       1   63846   63822  -63849   63867       7
   63846   63822   63849   63870       7   63846   63822   63849   63873       7
   63846   63864  -63867   63849       1   63846   63864   63867   63882       1
   63846   63864   63879   63900       1   63840   63855   63876   63897       3
   63834   63855   63876   63897       3   63828   63846   63822   63849       1
   63828   63846   63864   63867       5   63828   63846   63864   63879       5
   63822   63846  -63864   63867       5   63822   63846   63864   63879       5
   63822   63849  -63867   63864       7   63822   63849   63867   63882       6
   63822   63849   63870   63885       6   63822   63849   63870   63888       7
   63822   63849   63873   63891       6   63822   63849   63873   63894       7
   63819   63807   63816   63834       1   63819   63840  -63855   63834       1
   63819   63840   63855   63876       1   63816   63807   63819   63840       1
   63816   63834  -63855   63840       1   63816   63834   63855   63876       1
   63813   63804   63810   63822       1   63813   63828  -63846   63822       1
   63813   63828   63846   63864       1   63810   63804   63813   63828       1
   63810   63822  -63846   63828       1   63810   63822   63846   63864       1
   63810   63822   63849   63867       6   63810   63822   63849   63870       6
   63810   63822   63849   63873       6   63807   63801   63804   63810       4
   63807   63801   63804   63813       4   63807   63816   63834   63855       1
   63807   63819  -63840   63855       1   63804   63801   63807   63816       4
   63804   63801   63807   63819       4   63804   63810   63822   63846       1
   63804   63810   63822   63849       1   63804   63813  -63828   63846       1
   63801   63804   63810   63822       1   63801   63804   63813   63828       1
   63801   63807   63816   63834       1   63801   63807   63819   63840       1
   63792   63801   63804   63810       4   63792   63801   63804   63813       4
   63792   63801   63807   63816       4   63792   63801   63807   63819       4
   63786   63792   63801   63804       4   63786   63792   63801   63807       4
   63780   63792   63801   63804       4   63780   63792   63801   63807       4
   63768   63759   63765   63780       1   63768   63786  -63792   63780       1
   63768   63786   63792   63801       1   63765   63759   63768   63786       1
   63765   63780  -63792   63786       1   63765   63780   63792   63801       1
   63762   63756   63759   63765       3   63762   63756   63759   63768       3
   63759   63765   63780   63792       1   63759   63768  -63786   63792       1
   63756   63759   63765   63780       1   63756   63759   63768   63786       1
   64572   64623   64647   64665       3   64566   64623   64647   64665       3
   64560   64614   64644   64662       3   64554   64614   64644   64662       3
   64548   64605   64641   64659       3   64542   64605   64641   64659       3
   64536   64599   64638   64656       3   64530   64599   64638   64656       3
   64527   64587   64635   64653       3   64521   64587   64635   64653       3
   64512   64578   64632   64650       3   64506   64578   64632   64650       3
   64503   64464   64500   64566       1   64503   64572  -64623   64566       1
   64503   64572   64623   64647       1   64500   64464   64503   64572       1
   64500   64566  -64623   64572       1   64500   64566   64623   64647       1
   64497   64461   64494   64554       1   64497   64560  -64614   64554       1
   64497   64560   64614   64644       1   64494   64461   64497   64560       1
   64494   64554  -64614   64560       1   64494   64554   64614   64644       1
   64491   64455   64488   64542       1   64491   64548  -64605   64542       1
   64491   64548   64605   64641       1   64488   64455   64491   64548       1
   64488   64542  -64605   64548       1   64488   64542   64605   64641       1
   64485   64452   64482   64530       1   64485   64536  -64599   64530       1
   64485   64536   64599   64638       1   64482   64452   64485   64536       1
   64482   64530  -64599   64536       1   64482   64530   64599   64638       1
   64479   64449   64476   64521       1   64479   64527  -64587   64521       1
   64479   64527   64587   64635       1   64476   64449   64479   64527       1
   64476   64521  -64587   64527       1   64476   64521   64587   64635       1
   64473   64446   64470   64506       1   64473   64512  -64578   64506       1
   64473   64512   64578   64632       1   64470   64446   64473   64512       1
   64470   64506  -64578   64512       1   64470   64506   64578   64632       1
   64464   64437   64461   64494       4   64464   64437   64461   64497       4
   64464   64500   64566   64623       1   64464   64503  -64572   64623       1
   64461   64437   64464   64500       4   64461   64437   64464   64503       4
   64461   64494   64554   64614       1   64461   64497  -64560   64614       1
   64455   64428   64452   64482       4   64455   64428   64452   64485       4
   64455   64488   64542   64605       1   64455   64491  -64548   64605       1
   64452   64428   64455   64488       4   64452   64428   64455   64491       4
   64452   64482   64530   64599       1   64452   64485  -64536   64599       1
   64449   64425   64446   64470       4   64449   64425   64446   64473       4
   64449   64476   64521   64587       1   64449   64479  -64527   64587       1
   64446   64425   64449   64476       4   64446   64425   64449   64479       4
   64446   64470   64506   64578       1   64446   64473  -64512   64578       1
   64440   64407   64437   64461       4   64440   64407   64437   64464       4
   64437   64461   64494   64554       1   64437   64461   64497   64560       1
   64437   64464   64500   64566       1   64437   64464   64503   64572       1
   64431   64395   64428   64452       4   64431   64395   64428   64455       4
   64428   64452   64482   64530       1   64428   64452   64485   64536       1
   64428   64455   64488   64542       1   64428   64455   64491   64548       1
   64425   64446   64470   64506       1   64425   64446   64473   64512       1
   64425   64449   64476   64521       1   64425   64449   64479   64527       1
   64410   64440   64407   64437       1   64407   64437   64461   64494       4
   64407   64437   64461   64497       4   64407   64437   64464   64500       4
   64407   64437   64464   64503       4   64401   64371   64377   64410       5
   64401   64431   64395   64428       1   64395   64428   64452   64482       4
   64395   64428   64452   64485       4   64395   64428   64455   64488       4
   64395   64428   64455   64491       4   64389   64425   64446   64470       4
   64389   64425   64446   64473       4   64389   64425   64449   64476       4
   64389   64425   64449   64479       4   64383   64389   64425   64446       4
   64383   64389   64425   64449       4   64377   64356   64374   64407       1
   64377   64371   64401   64431       1   64377   64410  -64440   64407       1
   64374   64356   64377   64410       1   64374   64407   64437   64461       4
   64374   64407   64437   64464       4   64374   64407  -64440   64410       1
   64371   64353   64368   64395       1   64371   64377   64356   64374       1
   64371   64377   64410   64440       1   64371   64401  -64431   64395       1
   64368   64353   64371   64377       1   64368   64353   64371   64401       1
   64368   64395   64428   64452       4   64368   64395   64428   64455       4
   64368   64395  -64431   64401       1   64365   64389   64425   64446       4
   64365   64389   64425   64449       4   64362   64347   64350   64365       1
   64362   64383  -64389   64365       1   64362   64383   64389   64425       1
   64356   64332   64350   64365       6   64356   64332   64353   64368       6
   64356   64332  -64353   64371       7   64356   64374   64407   64437       1
   64356   64374   64407   64440       1   64356   64377   64371   64401       5
   64356   64377  -64410   64440       1   64353   64332   64350   64365       6
   64353   64332   64356   64374       6   64353   64332  -64356   64377       7
   64353   64368   64395   64428       1   64353   64368   64395   64431       1
   64353   64371  -64377   64356       5   64353   64371   64377   64410       5
   64353   64371  -64401   64431       1   64350   64332   64353   64368       6
   64350   64332   64353   64371       7   64350   64332   64356   64374       6
   64350   64332   64356   64377       7   64350   64347   64362   64383       1
   64350   64365  -64389   64383       1   64350   64365   64389   64425       1
   64347   64350   64332   64353       7   64347   64350   64332   64356       7
   64347   64350   64365   64389       1   64347   64362  -64383   64389       1
   64332   64305  -64329   64347       1   64332   64350   64347   64362       1
   64332   64350   64365   64389       1   64332   64353   64368   64395       1
   64332   64353  -64371   64377       1   64332   64353   64371   64401       1
   64332   64356   64374   64407       1   64332   64356  -64377   64371       1
   64332   64356   64377   64410       1   64329   64305  -64332   64350       7
   64329   64305   64332   64353       7   64329   64305   64332   64356       7
   64329   64347  -64350   64332       1   64329   64347   64350   64365       1
   64329   64347   64362   64383       1   64323   64338   64359   64380       3
   64317   64338   64359   64380       3   64311   64329   64305   64332       1
   64311   64329   64347   64350       5   64311   64329   64347   64362       5
   64305   64329  -64347   64350       5   64305   64329   64347   64362       5
   64305   64332  -64350   64347       7   64305   64332   64350   64365       6
   64305   64332   64353   64368       6   64305   64332   64353   64371       7
   64305   64332   64356   64374       6   64305   64332   64356   64377       7
   64302   64290   64299   64317       1   64302   64323  -64338   64317       1
   64302   64323   64338   64359       1   64299   64290   64302   64323       1
   64299   64317  -64338   64323       1   64299   64317   64338   64359       1
   64296   64287   64293   64305       1   64296   64311  -64329   64305       1
   64296   64311   64329   64347       1   64293   64287   64296   64311       1
   64293   64305  -64329   64311       1   64293   64305   64329   64347       1
   64293   64305   64332   64350       6   64293   64305   64332   64353       6
   64293   64305   64332   64356       6   64290   64284   64287   64293       4
   64290   64284   64287   64296       4   64290   64299   64317   64338       1
   64290   64302  -64323   64338       1   64287   64284   64290   64299       4
   64287   64284   64290   64302       4   64287   64293   64305   64329       1
   64287   64293   64305   64332       1   64287   64296  -64311   64329       1
   64284   64287   64293   64305       1   64284   64287   64296   64311       1
   64284   64290   64299   64317       1   64284   64290   64302   64323       1
   64275   64284   64287   64293       4   64275   64284   64287   64296       4
   64275   64284   64290   64299       4   64275   64284   64290   64302       4
   64269   64275   64284   64287       4   64269   64275   64284   64290       4
   64263   64275   64284   64287       4   64263   64275   64284   64290       4
   64251   64242   64248   64263       1   64251   64269  -64275   64263       1
   64251   64269   64275   64284       1   64248   64242   64251   64269       1
   64248   64263  -64275   64269       1   64248   64263   64275   64284       1
   64245   64239   64242   64248       3   64245   64239   64242   64251       3
   64242   64248   64263   64275       1   64242   64251  -64269   64275       1
   64239   64242   64248   64263       1   64239   64242   64251   64269       1
   65055   65106   65130   65148       3   65049   65106   65130   65148       3
   65043   65097   65127   65145       3   65037   65097   65127   65145       3
   65031   65088   65124   65142       3   65025   65088   65124   65142       3
   65019   65082   65121   65139       3   65013   65082   65121   65139       3
   65010   65070   65118   65136       3   65004   65070   65118   65136       3
   64995   65061   65115   65133       3   64989   65061   65115   65133       3
   64986   64947   64983   65049       1   64986   65055  -65106   65049       1
   64986   65055   65106   65130       1   64983   64947   64986   65055       1
   64983   65049  -65106   65055       1   64983   65049   65106   65130       1
   64980   64944   64977   65037       1   64980   65043  -65097   65037       1
   64980   65043   65097   65127       1   64977   64944   64980   65043       1
   64977   65037  -65097   65043       1   64977   65037   65097   65127       1
   64974   64938   64971   65025       1   64974   65031  -65088   65025       1
   64974   65031   65088   65124       1   64971   64938   64974   65031       1
   64971   65025  -65088   65031       1   64971   65025   65088   65124       1
   64968   64935   64965   65013       1   64968   65019  -65082   65013       1
   64968   65019   65082   65121       1   64965   64935   64968   65019       1
   64965   65013  -65082   65019       1   64965   65013   65082   65121       1
   64962   64932   64959   65004       1   64962   65010  -65070   65004       1
   64962   65010   65070   65118       1   64959   64932   64962   65010       1
   64959   65004  -65070   65010       1   64959   65004   65070   65118       1
   64956   64929   64953   64989       1   64956   64995  -65061   64989       1
   64956   64995   65061   65115       1   64953   64929   64956   64995       1
   64953   64989  -65061   64995       1   64953   64989   65061   65115       1
   64947   64920   64944   64977       4   64947   64920   64944   64980       4
   64947   64983   65049   65106       1   64947   64986  -65055   65106       1
   64944   64920   64947   64983       4   64944   64920   64947   64986       4
   64944   64977   65037   65097       1   64944   64980  -65043   65097       1
   64938   64911   64935   64965       4   64938   64911   64935   64968       4
   64938   64971   65025   65088       1   64938   64974  -65031   65088       1
   64935   64911   64938   64971       4   64935   64911   64938   64974       4
   64935   64965   65013   65082       1   64935   64968  -65019   65082       1
   64932   64908   64929   64953       4   64932   64908   64929   64956       4
   64932   64959   65004   65070       1   64932   64962  -65010   65070       1
   64929   64908   64932   64959       4   64929   64908   64932   64962       4
   64929   64953   64989   65061       1   64929   64956  -64995   65061       1
   64923   64890   64920   64944       4   64923   64890   64920   64947       4
   64920   64944   64977   65037       1   64920   64944   64980   65043       1
   64920   64947   64983   65049       1   64920   64947   64986   65055       1
   64914   64878   64911   64935       4   64914   64878   64911   64938       4
   64911   64935   64965   65013       1   64911   64935   64968   65019       1
   64911   64938   64971   65025       1   64911   64938   64974   65031       1
   64908   64929   64953   64989       1   64908   64929   64956   64995       1
   64908   64932   64959   65004       1   64908   64932   64962   65010       1
   64893   64923   64890   64920       1   64890   64920   64944   64977       4
   64890   64920   64944   64980       4   64890   64920   64947   64983       4
   64890   64920   64947   64986       4   64884   64854   64860   64893       5
   64884   64914   64878   64911       1   64878   64911   64935   64965       4
   64878   64911   64935   64968       4   64878   64911   64938   64971       4
   64878   64911   64938   64974       4   64872   64908   64929   64953       4
   64872   64908   64929   64956       4   64872   64908   64932   64959       4
   64872   64908   64932   64962       4   64866   64872   64908   64929       4
   64866   64872   64908   64932       4   64860   64839   64857   64890       1
   64860   64854   64884   64914       1   64860   64893  -64923   64890       1
   64857   64839   64860   64893       1   64857   64890   64920   64944       4
   64857   64890   64920   64947       4   64857   64890  -64923   64893       1
   64854   64836   64851   64878       1   64854   64860   64839   64857       1
   64854   64860   64893   64923       1   64854   64884  -64914   64878       1
   64851   64836   64854   64860       1   64851   64836   64854   64884       1
   64851   64878   64911   64935       4   64851   64878   64911   64938       4
   64851   64878  -64914   64884       1   64848   64872   64908   64929       4
   64848   64872   64908   64932       4   64845   64830   64833   64848       1
   64845   64866  -64872   64848       1   64845   64866   64872   64908       1
   64839   64815   64833   64848       6   64839   64815   64836   64851       6
   64839   64815  -64836   64854       7   64839   64857   64890   64920       1
   64839   64857   64890   64923       1   64839   64860   64854   64884       5
   64839   64860  -64893   64923       1   64836   64815   64833   64848       6
   64836   64815   64839   64857       6   64836   64815  -64839   64860       7
   64836   64851   64878   64911       1   64836   64851   64878   64914       1
   64836   64854  -64860   64839       5   64836   64854   64860   64893       5
   64836   64854  -64884   64914       1   64833   64815   64836   64851       6
   64833   64815   64836   64854       7   64833   64815   64839   64857       6
   64833   64815   64839   64860       7   64833   64830   64845   64866       1
   64833   64848  -64872   64866       1   64833   64848   64872   64908       1
   64830   64833   64815   64836       7   64830   64833   64815   64839       7
   64830   64833   64848   64872       1   64830   64845  -64866   64872       1
   64815   64788  -64812   64830       1   64815   64833   64830   64845       1
   64815   64833   64848   64872       1   64815   64836   64851   64878       1
   64815   64836  -64854   64860       1   64815   64836   64854   64884       1
   64815   64839   64857   64890       1   64815   64839  -64860   64854       1
   64815   64839   64860   64893       1   64812   64788  -64815   64833       7
   64812   64788   64815   64836       7   64812   64788   64815   64839       7
   64812   64830  -64833   64815       1   64812   64830   64833   64848       1
   64812   64830   64845   64866       1   64806   64821   64842   64863       3
   64800   64821   64842   64863       3   64794   64812   64788   64815       1
   64794   64812   64830   64833       5   64794   64812   64830   64845       5
   64788   64812  -64830   64833       5   64788   64812   64830   64845       5
   64788   64815  -64833   64830       7   64788   64815   64833   64848       6
   64788   64815   64836   64851       6   64788   64815   64836   64854       7
   64788   64815   64839   64857       6   64788   64815   64839   64860       7
   64785   64773   64782   64800       1   64785   64806  -64821   64800       1
   64785   64806   64821   64842       1   64782   64773   64785   64806       1
   64782   64800  -64821   64806       1   64782   64800   64821   64842       1
   64779   64770   64776   64788       1   64779   64794  -64812   64788       1
   64779   64794   64812   64830       1   64776   64770   64779   64794       1
   64776   64788  -64812   64794       1   64776   64788   64812   64830       1
   64776   64788   64815   64833       6   64776   64788   64815   64836       6
   64776   64788   64815   64839       6   64773   64767   64770   64776       4
   64773   64767   64770   64779       4   64773   64782   64800   64821       1
   64773   64785  -64806   64821       1   64770   64767   64773   64782       4
   64770   64767   64773   64785       4   64770   64776   64788   64812       1
   64770   64776   64788   64815       1   64770   64779  -64794   64812       1
   64767   64770   64776   64788       1   64767   64770   64779   64794       1
   64767   64773   64782   64800       1   64767   64773   64785   64806       1
   64758   64767   64770   64776       4   64758   64767   64770   64779       4
   64758   64767   64773   64782       4   64758   64767   64773   64785       4
   64752   64758   64767   64770       4   64752   64758   64767   64773       4
   64746   64758   64767   64770       4   64746   64758   64767   64773       4
   64734   64725   64731   64746       1   64734   64752  -64758   64746       1
   64734   64752   64758   64767       1   64731   64725   64734   64752       1
   64731   64746  -64758   64752       1   64731   64746   64758   64767       1
   64728   64722   64725   64731       3   64728   64722   64725   64734       3
   64725   64731   64746   64758       1   64725   64734  -64752   64758       1
   64722   64725   64731   64746       1   64722   64725   64734   64752       1
   65538   65589   65613   65631       3   65532   65589   65613   65631       3
   65526   65580   65610   65628       3   65520   65580   65610   65628       3
   65514   65571   65607   65625       3   65508   65571   65607   65625       3
   65502   65565   65604   65622       3   65496   65565   65604   65622       3
   65493   65553   65601   65619       3   65487   65553   65601   65619       3
   65478   65544   65598   65616       3   65472   65544   65598   65616       3
   65469   65430   65466   65532       1   65469   65538  -65589   65532       1
   65469   65538   65589   65613       1   65466   65430   65469   65538       1
   65466   65532  -65589   65538       1   65466   65532   65589   65613       1
   65463   65427   65460   65520       1   65463   65526  -65580   65520       1
   65463   65526   65580   65610       1   65460   65427   65463   65526       1
   65460   65520  -65580   65526       1   65460   65520   65580   65610       1
   65457   65421   65454   65508       1   65457   65514  -65571   65508       1
   65457   65514   65571   65607       1   65454   65421   65457   65514       1
   65454   65508  -65571   65514       1   65454   65508   65571   65607       1
   65451   65418   65448   65496       1   65451   65502  -65565   65496       1
   65451   65502   65565   65604       1   65448   65418   65451   65502       1
   65448   65496  -65565   65502       1   65448   65496   65565   65604       1
   65445   65415   65442   65487       1   65445   65493  -65553   65487       1
   65445   65493   65553   65601       1   65442   65415   65445   65493       1
   65442   65487  -65553   65493       1   65442   65487   65553   65601       1
   65439   65412   65436   65472       1   65439   65478  -65544   65472       1
   65439   65478   65544   65598       1   65436   65412   65439   65478       1
   65436   65472  -65544   65478       1   65436   65472   65544   65598       1
   65430   65403   65427   65460       4   65430   65403   65427   65463       4
   65430   65466   65532   65589       1   65430   65469  -65538   65589       1
   65427   65403   65430   65466       4   65427   65403   65430   65469       4
   65427   65460   65520   65580       1   65427   65463  -65526   65580       1
   65421   65394   65418   65448       4   65421   65394   65418   65451       4
   65421   65454   65508   65571       1   65421   65457  -65514   65571       1
   65418   65394   65421   65454       4   65418   65394   65421   65457       4
   65418   65448   65496   65565       1   65418   65451  -65502   65565       1
   65415   65391   65412   65436       4   65415   65391   65412   65439       4
   65415   65442   65487   65553       1   65415   65445  -65493   65553       1
   65412   65391   65415   65442       4   65412   65391   65415   65445       4
   65412   65436   65472   65544       1   65412   65439  -65478   65544       1
   65406   65373   65403   65427       4   65406   65373   65403   65430       4
   65403   65427   65460   65520       1   65403   65427   65463   65526       1
   65403   65430   65466   65532       1   65403   65430   65469   65538       1
   65397   65361   65394   65418       4   65397   65361   65394   65421       4
   65394   65418   65448   65496       1   65394   65418   65451   65502       1
   65394   65421   65454   65508       1   65394   65421   65457   65514       1
   65391   65412   65436   65472       1   65391   65412   65439   65478       1
   65391   65415   65442   65487       1   65391   65415   65445   65493       1
   65376   65406   65373   65403       1   65373   65403   65427   65460       4
   65373   65403   65427   65463       4   65373   65403   65430   65466       4
   65373   65403   65430   65469       4   65367   65337   65343   65376       5
   65367   65397   65361   65394       1   65361   65394   65418   65448       4
   65361   65394   65418   65451       4   65361   65394   65421   65454       4
   65361   65394   65421   65457       4   65355   65391   65412   65436       4
   65355   65391   65412   65439       4   65355   65391   65415   65442       4
   65355   65391   65415   65445       4   65349   65355   65391   65412       4
   65349   65355   65391   65415       4   65343   65322   65340   65373       1
   65343   65337   65367   65397       1   65343   65376  -65406   65373       1
   65340   65322   65343   65376       1   65340   65373   65403   65427       4
   65340   65373   65403   65430       4   65340   65373  -65406   65376       1
   65337   65319   65334   65361       1   65337   65343   65322   65340       1
   65337   65343   65376   65406       1   65337   65367  -65397   65361       1
   65334   65319   65337   65343       1   65334   65319   65337   65367       1
   65334   65361   65394   65418       4   65334   65361   65394   65421       4
   65334   65361  -65397   65367       1   65331   65355   65391   65412       4
   65331   65355   65391   65415       4   65328   65313   65316   65331       1
   65328   65349  -65355   65331       1   65328   65349   65355   65391       1
   65322   65298   65316   65331       6   65322   65298   65319   65334       6
   65322   65298  -65319   65337       7   65322   65340   65373   65403       1
   65322   65340   65373   65406       1   65322   65343   65337   65367       5
   65322   65343  -65376   65406       1   65319   65298   65316   65331       6
   65319   65298   65322   65340       6   65319   65298  -65322   65343       7
   65319   65334   65361   65394       1   65319   65334   65361   65397       1
   65319   65337  -65343   65322       5   65319   65337   65343   65376       5
   65319   65337  -65367   65397       1   65316   65298   65319   65334       6
   65316   65298   65319   65337       7   65316   65298   65322   65340       6
   65316   65298   65322   65343       7   65316   65313   65328   65349       1
   65316   65331  -65355   65349       1   65316   65331   65355   65391       1
   65313   65316   65298   65319       7   65313   65316   65298   65322       7
   65313   65316   65331   65355       1   65313   65328  -65349   65355       1
   65298   65271  -65295   65313       1   65298   65316   65313   65328       1
   65298   65316   65331   65355       1   65298   65319   65334   65361       1
   65298   65319  -65337   65343       1   65298   65319   65337   65367       1
   65298   65322   65340   65373       1   65298   65322  -65343   65337       1
   65298   65322   65343   65376       1   65295   65271  -65298   65316       7
   65295   65271   65298   65319       7   65295   65271   65298   65322       7
   65295   65313  -65316   65298       1   65295   65313   65316   65331       1
   65295   65313   65328   65349       1   65289   65304   65325   65346       3
   65283   65304   65325   65346       3   65277   65295   65271   65298       1
   65277   65295   65313   65316       5   65277   65295   65313   65328       5
   65271   65295  -65313   65316       5   65271   65295   65313   65328       5
   65271   65298  -65316   65313       7   65271   65298   65316   65331       6
   65271   65298   65319   65334       6   65271   65298   65319   65337       7
   65271   65298   65322   65340       6   65271   65298   65322   65343       7
   65268   65256   65265   65283       1   65268   65289  -65304   65283       1
   65268   65289   65304   65325       1   65265   65256   65268   65289       1
   65265   65283  -65304   65289       1   65265   65283   65304   65325       1
   65262   65253   65259   65271       1   65262   65277  -65295   65271       1
   65262   65277   65295   65313       1   65259   65253   65262   65277       1
   65259   65271  -65295   65277       1   65259   65271   65295   65313       1
   65259   65271   65298   65316       6   65259   65271   65298   65319       6
   65259   65271   65298   65322       6   65256   65250   65253   65259       4
   65256   65250   65253   65262       4   65256   65265   65283   65304       1
   65256   65268  -65289   65304       1   65253   65250   65256   65265       4
   65253   65250   65256   65268       4   65253   65259   65271   65295       1
   65253   65259   65271   65298       1   65253   65262  -65277   65295       1
   65250   65253   65259   65271       1   65250   65253   65262   65277       1
   65250   65256   65265   65283       1   65250   65256   65268   65289       1
   65241   65250   65253   65259       4   65241   65250   65253   65262       4
   65241   65250   65256   65265       4   65241   65250   65256   65268       4
   65235   65241   65250   65253       4   65235   65241   65250   65256       4
   65229   65241   65250   65253       4   65229   65241   65250   65256       4
   65217   65208   65214   65229       1   65217   65235  -65241   65229       1
   65217   65235   65241   65250       1   65214   65208   65217   65235       1
   65214   65229  -65241   65235       1   65214   65229   65241   65250       1
   65211   65205   65208   65214       3   65211   65205   65208   65217       3
   65208   65214   65229   65241       1   65208   65217  -65235   65241       1
   65205   65208   65214   65229       1   65205   65208   65217   65235       1
   66021   66072   66096   66114       3   66015   66072   66096   66114       3
   66009   66063   66093   66111       3   66003   66063   66093   66111       3
   65997   66054   66090   66108       3   65991   66054   66090   66108       3
   65985   66048   66087   66105       3   65979   66048   66087   66105       3
   65976   66036   66084   66102       3   65970   66036   66084   66102       3
   65961   66027   66081   66099       3   65955   66027   66081   66099       3
   65952   65913   65949   66015       1   65952   66021  -66072   66015       1
   65952   66021   66072   66096       1   65949   65913   65952   66021       1
   65949   66015  -66072   66021       1   65949   66015   66072   66096       1
   65946   65910   65943   66003       1   65946   66009  -66063   66003       1
   65946   66009   66063   66093       1   65943   65910   65946   66009       1
   65943   66003  -66063   66009       1   65943   66003   66063   66093       1
   65940   65904   65937   65991       1   65940   65997  -66054   65991       1
   65940   65997   66054   66090       1   65937   65904   65940   65997       1
   65937   65991  -66054   65997       1   65937   65991   66054   66090       1
   65934   65901   65931   65979       1   65934   65985  -66048   65979       1
   65934   65985   66048   66087       1   65931   65901   65934   65985       1
   65931   65979  -66048   65985       1   65931   65979   66048   66087       1
   65928   65898   65925   65970       1   65928   65976  -66036   65970       1
   65928   65976   66036   66084       1   65925   65898   65928   65976       1
   65925   65970  -66036   65976       1   65925   65970   66036   66084       1
   65922   65895   65919   65955       1   65922   65961  -66027   65955       1
   65922   65961   66027   66081       1   65919   65895   65922   65961       1
   65919   65955  -66027   65961       1   65919   65955   66027   66081       1
   65913   65886   65910   65943       4   65913   65886   65910   65946       4
   65913   65949   66015   66072       1   65913   65952  -66021   66072       1
   65910   65886   65913   65949       4   65910   65886   65913   65952       4
   65910   65943   66003   66063       1   65910   65946  -66009   66063       1
   65904   65877   65901   65931       4   65904   65877   65901   65934       4
   65904   65937   65991   66054       1   65904   65940  -65997   66054       1
   65901   65877   65904   65937       4   65901   65877   65904   65940       4
   65901   65931   65979   66048       1   65901   65934  -65985   66048       1
   65898   65874   65895   65919       4   65898   65874   65895   65922       4
   65898   65925   65970   66036       1   65898   65928  -65976   66036       1
   65895   65874   65898   65925       4   65895   65874   65898   65928       4
   65895   65919   65955   66027       1   65895   65922  -65961   66027       1
   65889   65856   65886   65910       4   65889   65856   65886   65913       4
   65886   65910   65943   66003       1   65886   65910   65946   66009       1
   65886   65913   65949   66015       1   65886   65913   65952   66021       1
   65880   65844   65877   65901       4   65880   65844   65877   65904       4
   65877   65901   65931   65979       1   65877   65901   65934   65985       1
   65877   65904   65937   65991       1   65877   65904   65940   65997       1
   65874   65895   65919   65955       1   65874   65895   65922   65961       1
   65874   65898   65925   65970       1   65874   65898   65928   65976       1
   65859   65889   65856   65886       1   65856   65886   65910   65943       4
   65856   65886   65910   65946       4   65856   65886   65913   65949       4
   65856   65886   65913   65952       4   65850   65820   65826   65859       5
   65850   65880   65844   65877       1   65844   65877   65901   65931       4
   65844   65877   65901   65934       4   65844   65877   65904   65937       4
   65844   65877   65904   65940       4   65838   65874   65895   65919       4
   65838   65874   65895   65922       4   65838   65874   65898   65925       4
   65838   65874   65898   65928       4   65832   65838   65874   65895       4
   65832   65838   65874   65898       4   65826   65805   65823   65856       1
   65826   65820   65850   65880       1   65826   65859  -65889   65856       1
   65823   65805   65826   65859       1   65823   65856   65886   65910       4
   65823   65856   65886   65913       4   65823   65856  -65889   65859       1
   65820   65802   65817   65844       1   65820   65826   65805   65823       1
   65820   65826   65859   65889       1   65820   65850  -65880   65844       1
   65817   65802   65820   65826       1   65817   65802   65820   65850       1
   65817   65844   65877   65901       4   65817   65844   65877   65904       4
   65817   65844  -65880   65850       1   65814   65838   65874   65895       4
   65814   65838   65874   65898       4   65811   65796   65799   65814       1
   65811   65832  -65838   65814       1   65811   65832   65838   65874       1
   65805   65781   65799   65814       6   65805   65781   65802   65817       6
   65805   65781  -65802   65820       7   65805   65823   65856   65886       1
   65805   65823   65856   65889       1   65805   65826   65820   65850       5
   65805   65826  -65859   65889       1   65802   65781   65799   65814       6
   65802   65781   65805   65823       6   65802   65781  -65805   65826       7
   65802   65817   65844   65877       1   65802   65817   65844   65880       1
   65802   65820  -65826   65805       5   65802   65820   65826   65859       5
   65802   65820  -65850   65880       1   65799   65781   65802   65817       6
   65799   65781   65802   65820       7   65799   65781   65805   65823       6
   65799   65781   65805   65826       7   65799   65796   65811   65832       1
   65799   65814  -65838   65832       1   65799   65814   65838   65874       1
   65796   65799   65781   65802       7   65796   65799   65781   65805       7
   65796   65799   65814   65838       1   65796   65811  -65832   65838       1
   65781   65754  -65778   65796       1   65781   65799   65796   65811       1
   65781   65799   65814   65838       1   65781   65802   65817   65844       1
   65781   65802  -65820   65826       1   65781   65802   65820   65850       1
   65781   65805   65823   65856       1   65781   65805  -65826   65820       1
   65781   65805   65826   65859       1   65778   65754  -65781   65799       7
   65778   65754   65781   65802       7   65778   65754   65781   65805       7
   65778   65796  -65799   65781       1   65778   65796   65799   65814       1
   65778   65796   65811   65832       1   65772   65787   65808   65829       3
   65766   65787   65808   65829       3   65760   65778   65754   65781       1
   65760   65778   65796   65799       5   65760   65778   65796   65811       5
   65754   65778  -65796   65799       5   65754   65778   65796   65811       5
   65754   65781  -65799   65796       7   65754   65781   65799   65814       6
   65754   65781   65802   65817       6   65754   65781   65802   65820       7
   65754   65781   65805   65823       6   65754   65781   65805   65826       7
   65751   65739   65748   65766       1   65751   65772  -65787   65766       1
   65751   65772   65787   65808       1   65748   65739   65751   65772       1
   65748   65766  -65787   65772       1   65748   65766   65787   65808       1
   65745   65736   65742   65754       1   65745   65760  -65778   65754       1
   65745   65760   65778   65796       1   65742   65736   65745   65760       1
   65742   65754  -65778   65760       1   65742   65754   65778   65796       1
   65742   65754   65781   65799       6   65742   65754   65781   65802       6
   65742   65754   65781   65805       6   65739   65733   65736   65742       4
   65739   65733   65736   65745       4   65739   65748   65766   65787       1
   65739   65751  -65772   65787       1   65736   65733   65739   65748       4
   65736   65733   65739   65751       4   65736   65742   65754   65778       1
   65736   65742   65754   65781       1   65736   65745  -65760   65778       1
   65733   65736   65742   65754       1   65733   65736   65745   65760       1
   65733   65739   65748   65766       1   65733   65739   65751   65772       1
   65724   65733   65736   65742       4   65724   65733   65736   65745       4
   65724   65733   65739   65748       4   65724   65733   65739   65751       4
   65718   65724   65733   65736       4   65718   65724   65733   65739       4
   65712   65724   65733   65736       4   65712   65724   65733   65739       4
   65700   65691   65697   65712       1   65700   65718  -65724   65712       1
   65700   65718   65724   65733       1   65697   65691   65700   65718       1
   65697   65712  -65724   65718       1   65697   65712   65724   65733       1
   65694   65688   65691   65697       3   65694   65688   65691   65700       3
   65691   65697   65712   65724       1   65691   65700  -65718   65724       1
   65688   65691   65697   65712       1   65688   65691   65700   65718       1
   66504   66555   66579   66597       3   66498   66555   66579   66597       3
   66492   66546   66576   66594       3   66486   66546   66576   66594       3
   66480   66537   66573   66591       3   66474   66537   66573   66591       3
   66468   66531   66570   66588       3   66462   66531   66570   66588       3
   66459   66519   66567   66585       3   66453   66519   66567   66585       3
   66444   66510   66564   66582       3   66438   66510   66564   66582       3
   66435   66396   66432   66498       1   66435   66504  -66555   66498       1
   66435   66504   66555   66579       1   66432   66396   66435   66504       1
   66432   66498  -66555   66504       1   66432   66498   66555   66579       1
   66429   66393   66426   66486       1   66429   66492  -66546   66486       1
   66429   66492   66546   66576       1   66426   66393   66429   66492       1
   66426   66486  -66546   66492       1   66426   66486   66546   66576       1
   66423   66387   66420   66474       1   66423   66480  -66537   66474       1
   66423   66480   66537   66573       1   66420   66387   66423   66480       1
   66420   66474  -66537   66480       1   66420   66474   66537   66573       1
   66417   66384   66414   66462       1   66417   66468  -66531   66462       1
   66417   66468   66531   66570       1   66414   66384   66417   66468       1
   66414   66462  -66531   66468       1   66414   66462   66531   66570       1
   66411   66381   66408   66453       1   66411   66459  -66519   66453       1
   66411   66459   66519   66567       1   66408   66381   66411   66459       1
   66408   66453  -66519   66459       1   66408   66453   66519   66567       1
   66405   66378   66402   66438       1   66405   66444  -66510   66438       1
   66405   66444   66510   66564       1   66402   66378   66405   66444       1
   66402   66438  -66510   66444       1   66402   66438   66510   66564       1
   66396   66369   66393   66426       4   66396   66369   66393   66429       4
   66396   66432   66498   66555       1   66396   66435  -66504   66555       1
   66393   66369   66396   66432       4   66393   66369   66396   66435       4
   66393   66426   66486   66546       1   66393   66429  -66492   66546       1
   66387   66360   66384   66414       4   66387   66360   66384   66417       4
   66387   66420   66474   66537       1   66387   66423  -66480   66537       1
   66384   66360   66387   66420       4   66384   66360   66387   66423       4
   66384   66414   66462   66531       1   66384   66417  -66468   66531       1
   66381   66357   66378   66402       4   66381   66357   66378   66405       4
   66381   66408   66453   66519       1   66381   66411  -66459   66519       1
   66378   66357   66381   66408       4   66378   66357   66381   66411       4
   66378   66402   66438   66510       1   66378   66405  -66444   66510       1
   66372   66339   66369   66393       4   66372   66339   66369   66396       4
   66369   66393   66426   66486       1   66369   66393   66429   66492       1
   66369   66396   66432   66498       1   66369   66396   66435   66504       1
   66363   66327   66360   66384       4   66363   66327   66360   66387       4
   66360   66384   66414   66462       1   66360   66384   66417   66468       1
   66360   66387   66420   66474       1   66360   66387   66423   66480       1
   66357   66378   66402   66438       1   66357   66378   66405   66444       1
   66357   66381   66408   66453       1   66357   66381   66411   66459       1
   66342   66372   66339   66369       1   66339   66369   66393   66426       4
   66339   66369   66393   66429       4   66339   66369   66396   66432       4
   66339   66369   66396   66435       4   66333   66303   66309   66342       5
   66333   66363   66327   66360       1   66327   66360   66384   66414       4
   66327   66360   66384   66417       4   66327   66360   66387   66420       4
   66327   66360   66387   66423       4   66321   66357   66378   66402       4
   66321   66357   66378   66405       4   66321   66357   66381   66408       4
   66321   66357   66381   66411       4   66315   66321   66357   66378       4
   66315   66321   66357   66381       4   66309   66288   66306   66339       1
   66309   66303   66333   66363       1   66309   66342  -66372   66339       1
   66306   66288   66309   66342       1   66306   66339   66369   66393       4
   66306   66339   66369   66396       4   66306   66339  -66372   66342       1
   66303   66285   66300   66327       1   66303   66309   66288   66306       1
   66303   66309   66342   66372       1   66303   66333  -66363   66327       1
   66300   66285   66303   66309       1   66300   66285   66303   66333       1
   66300   66327   66360   66384       4   66300   66327   66360   66387       4
   66300   66327  -66363   66333       1   66297   66321   66357   66378       4
   66297   66321   66357   66381       4   66294   66279   66282   66297       1
   66294   66315  -66321   66297       1   66294   66315   66321   66357       1
   66288   66264   66282   66297       6   66288   66264   66285   66300       6
   66288   66264  -66285   66303       7   66288   66306   66339   66369       1
   66288   66306   66339   66372       1   66288   66309   66303   66333       5
   66288   66309  -66342   66372       1   66285   66264   66282   66297       6
   66285   66264   66288   66306       6   66285   66264  -66288   66309       7
   66285   66300   66327   66360       1   66285   66300   66327   66363       1
   66285   66303  -66309   66288       5   66285   66303   66309   66342       5
   66285   66303  -66333   66363       1   66282   66264   66285   66300       6
   66282   66264   66285   66303       7   66282   66264   66288   66306       6
   66282   66264   66288   66309       7   66282   66279   66294   66315       1
   66282   66297  -66321   66315       1   66282   66297   66321   66357       1
   66279   66282   66264   66285       7   66279   66282   66264   66288       7
   66279   66282   66297   66321       1   66279   66294  -66315   66321       1
   66264   66237  -66261   66279       1   66264   66282   66279   66294       1
   66264   66282   66297   66321       1   66264   66285   66300   66327       1
   66264   66285  -66303   66309       1   66264   66285   66303   66333       1
   66264   66288   66306   66339       1   66264   66288  -66309   66303       1
   66264   66288   66309   66342       1   66261   66237  -66264   66282       7
   66261   66237   66264   66285       7   66261   66237   66264   66288       7
   66261   66279  -66282   66264       1   66261   66279   66282   66297       1
   66261   66279   66294   66315       1   66255   66270   66291   66312       3
   66249   66270   66291   66312       3   66243   66261   66237   66264       1
   66243   66261   66279   66282       5   66243   66261   66279   66294       5
   66237   66261  -66279   66282       5   66237   66261   66279   66294       5
   66237   66264  -66282   66279       7   66237   66264   66282   66297       6
   66237   66264   66285   66300       6   66237   66264   66285   66303       7
   66237   66264   66288   66306       6   66237   66264   66288   66309       7
   66234   66222   66231   66249       1   66234   66255  -66270   66249       1
   66234   66255   66270   66291       1   66231   66222   66234   66255       1
   66231   66249  -66270   66255       1   66231   66249   66270   66291       1
   66228   66219   66225   66237       1   66228   66243  -66261   66237       1
   66228   66243   66261   66279       1   66225   66219   66228   66243       1
   66225   66237  -66261   66243       1   66225   66237   66261   66279       1
   66225   66237   66264   66282       6   66225   66237   66264   66285       6
   66225   66237   66264   66288       6   66222   66216   66219   66225       4
   66222   66216   66219   66228       4   66222   66231   66249   66270       1
   66222   66234  -66255   66270       1   66219   66216   66222   66231       4
   66219   66216   66222   66234       4   66219   66225   66237   66261       1
   66219   66225   66237   66264       1   66219   66228  -66243   66261       1
   66216   66219   66225   66237       1   66216   66219   66228   66243       1
   66216   66222   66231   66249       1   66216   66222   66234   66255       1
   66207   66216   66219   66225       4   66207   66216   66219   66228       4
   66207   66216   66222   66231       4   66207   66216   66222   66234       4
   66201   66207   66216   66219       4   66201   66207   66216   66222       4
   66195   66207   66216   66219       4   66195   66207   66216   66222       4
   66183   66174   66180   66195       1   66183   66201  -66207   66195       1
   66183   66201   66207   66216       1   66180   66174   66183   66201       1
   66180   66195  -66207   66201       1   66180   66195   66207   66216       1
   66177   66171   66174   66180       3   66177   66171   66174   66183       3
   66174   66180   66195   66207       1   66174   66183  -66201   66207       1
   66171   66174   66180   66195       1   66171   66174   66183   66201       1
   66987   67038   67062   67080       3   66981   67038   67062   67080       3
   66975   67029   67059   67077       3   66969   67029   67059   67077       3
   66963   67020   67056   67074       3   66957   67020   67056   67074       3
   66951   67014   67053   67071       3   66945   67014   67053   67071       3
   66942   67002   67050   67068       3   66936   67002   67050   67068       3
   66927   66993   67047   67065       3   66921   66993   67047   67065       3
   66918   66879   66915   66981       1   66918   66987  -67038   66981       1
   66918   66987   67038   67062       1   66915   66879   66918   66987       1
   66915   66981  -67038   66987       1   66915   66981   67038   67062       1
   66912   66876   66909   66969       1   66912   66975  -67029   66969       1
   66912   66975   67029   67059       1   66909   66876   66912   66975       1
   66909   66969  -67029   66975       1   66909   66969   67029   67059       1
   66906   66870   66903   66957       1   66906   66963  -67020   66957       1
   66906   66963   67020   67056       1   66903   66870   66906   66963       1
   66903   66957  -67020   66963       1   66903   66957   67020   67056       1
   66900   66867   66897   66945       1   66900   66951  -67014   66945       1
   66900   66951   67014   67053       1   66897   66867   66900   66951       1
   66897   66945  -67014   66951       1   66897   66945   67014   67053       1
   66894   66864   66891   66936       1   66894   66942  -67002   66936       1
   66894   66942   67002   67050       1   66891   66864   66894   66942       1
   66891   66936  -67002   66942       1   66891   66936   67002   67050       1
   66888   66861   66885   66921       1   66888   66927  -66993   66921       1
   66888   66927   66993   67047       1   66885   66861   66888   66927       1
   66885   66921  -66993   66927       1   66885   66921   66993   67047       1
   66879   66852   66876   66909       4   66879   66852   66876   66912       4
   66879   66915   66981   67038       1   66879   66918  -66987   67038       1
   66876   66852   66879   66915       4   66876   66852   66879   66918       4
   66876   66909   66969   67029       1   66876   66912  -66975   67029       1
   66870   66843   66867   66897       4   66870   66843   66867   66900       4
   66870   66903   66957   67020       1   66870   66906  -66963   67020       1
   66867   66843   66870   66903       4   66867   66843   66870   66906       4
   66867   66897   66945   67014       1   66867   66900  -66951   67014       1
   66864   66840   66861   66885       4   66864   66840   66861   66888       4
   66864   66891   66936   67002       1   66864   66894  -66942   67002       1
   66861   66840   66864   66891       4   66861   66840   66864   66894       4
   66861   66885   66921   66993       1   66861   66888  -66927   66993       1
   66855   66822   66852   66876       4   66855   66822   66852   66879       4
   66852   66876   66909   66969       1   66852   66876   66912   66975       1
   66852   66879   66915   66981       1   66852   66879   66918   66987       1
   66846   66810   66843   66867       4   66846   66810   66843   66870       4
   66843   66867   66897   66945       1   66843   66867   66900   66951       1
   66843   66870   66903   66957       1   66843   66870   66906   66963       1
   66840   66861   66885   66921       1   66840   66861   66888   66927       1
   66840   66864   66891   66936       1   66840   66864   66894   66942       1
   66825   66855   66822   66852       1   66822   66852   66876   66909       4
   66822   66852   66876   66912       4   66822   66852   66879   66915       4
   66822   66852   66879   66918       4   66816   66786   66792   66825       5
   66816   66846   66810   66843       1   66810   66843   66867   66897       4
   66810   66843   66867   66900       4   66810   66843   66870   66903       4
   66810   66843   66870   66906       4   66804   66840   66861   66885       4
   66804   66840   66861   66888       4   66804   66840   66864   66891       4
   66804   66840   66864   66894       4   66798   66804   66840   66861       4
   66798   66804   66840   66864       4   66792   66771   66789   66822       1
   66792   66786   66816   66846       1   66792   66825  -66855   66822       1
   66789   66771   66792   66825       1   66789   66822   66852   66876       4
   66789   66822   66852   66879       4   66789   66822  -66855   66825       1
   66786   66768   66783   66810       1   66786   66792   66771   66789       1
   66786   66792   66825   66855       1   66786   66816  -66846   66810       1
   66783   66768   66786   66792       1   66783   66768   66786   66816       1
   66783   66810   66843   66867       4   66783   66810   66843   66870       4
   66783   66810  -66846   66816       1   66780   66804   66840   66861       4
   66780   66804   66840   66864       4   66777   66762   66765   66780       1
   66777   66798  -66804   66780       1   66777   66798   66804   66840       1
   66771   66747   66765   66780       6   66771   66747   66768   66783       6
   66771   66747  -66768   66786       7   66771   66789   66822   66852       1
   66771   66789   66822   66855       1   66771   66792   66786   66816       5
   66771   66792  -66825   66855       1   66768   66747   66765   66780       6
   66768   66747   66771   66789       6   66768   66747  -66771   66792       7
   66768   66783   66810   66843       1   66768   66783   66810   66846       1
   66768   66786  -66792   66771       5   66768   66786   66792   66825       5
   66768   66786  -66816   66846       1   66765   66747   66768   66783       6
   66765   66747   66768   66786       7   66765   66747   66771   66789       6
   66765   66747   66771   66792       7   66765   66762   66777   66798       1
   66765   66780  -66804   66798       1   66765   66780   66804   66840       1
   66762   66765   66747   66768       7   66762   66765   66747   66771       7
   66762   66765   66780   66804       1   66762   66777  -66798   66804       1
   66747   66720  -66744   66762       1   66747   66765   66762   66777       1
   66747   66765   66780   66804       1   66747   66768   66783   66810       1
   66747   66768  -66786   66792       1   66747   66768   66786   66816       1
   66747   66771   66789   66822       1   66747   66771  -66792   66786       1
   66747   66771   66792   66825       1   66744   66720  -66747   66765       7
   66744   66720   66747   66768       7   66744   66720   66747   66771       7
   66744   66762  -66765   66747       1   66744   66762   66765   66780       1
   66744   66762   66777   66798       1   66738   66753   66774   66795       3
   66732   66753   66774   66795       3   66726   66744   66720   66747       1
   66726   66744   66762   66765       5   66726   66744   66762   66777       5
   66720   66744  -66762   66765       5   66720   66744   66762   66777       5
   66720   66747  -66765   66762       7   66720   66747   66765   66780       6
   66720   66747   66768   66783       6   66720   66747   66768   66786       7
   66720   66747   66771   66789       6   66720   66747   66771   66792       7
   66717   66705   66714   66732       1   66717   66738  -66753   66732       1
   66717   66738   66753   66774       1   66714   66705   66717   66738       1
   66714   66732  -66753   66738       1   66714   66732   66753   66774       1
   66711   66702   66708   66720       1   66711   66726  -66744   66720       1
   66711   66726   66744   66762       1   66708   66702   66711   66726       1
   66708   66720  -66744   66726       1   66708   66720   66744   66762       1
   66708   66720   66747   66765       6   66708   66720   66747   66768       6
   66708   66720   66747   66771       6   66705   66699   66702   66708       4
   66705   66699   66702   66711       4   66705   66714   66732   66753       1
   66705   66717  -66738   66753       1   66702   66699   66705   66714       4
   66702   66699   66705   66717       4   66702   66708   66720   66744       1
   66702   66708   66720   66747       1   66702   66711  -66726   66744       1
   66699   66702   66708   66720       1   66699   66702   66711   66726       1
   66699   66705   66714   66732       1   66699   66705   66717   66738       1
   66690   66699   66702   66708       4   66690   66699   66702   66711       4
   66690   66699   66705   66714       4   66690   66699   66705   66717       4
   66684   66690   66699   66702       4   66684   66690   66699   66705       4
   66678   66690   66699   66702       4   66678   66690   66699   66705       4
   66666   66657   66663   66678       1   66666   66684  -66690   66678       1
   66666   66684   66690   66699       1   66663   66657   66666   66684       1
   66663   66678  -66690   66684       1   66663   66678   66690   66699       1
   66660   66654   66657   66663       3   66660   66654   66657   66666       3
   66657   66663   66678   66690       1   66657   66666  -66684   66690       1
   66654   66657   66663   66678       1   66654   66657   66666   66684       1
   67470   67521   67545   67563       3   67464   67521   67545   67563       3
   67458   67512   67542   67560       3   67452   67512   67542   67560       3
   67446   67503   67539   67557       3   67440   67503   67539   67557       3
   67434   67497   67536   67554       3   67428   67497   67536   67554       3
   67425   67485   67533   67551       3   67419   67485   67533   67551       3
   67410   67476   67530   67548       3   67404   67476   67530   67548       3
   67401   67362   67398   67464       1   67401   67470  -67521   67464       1
   67401   67470   67521   67545       1   67398   67362   67401   67470       1
   67398   67464  -67521   67470       1   67398   67464   67521   67545       1
   67395   67359   67392   67452       1   67395   67458  -67512   67452       1
   67395   67458   67512   67542       1   67392   67359   67395   67458       1
   67392   67452  -67512   67458       1   67392   67452   67512   67542       1
   67389   67353   67386   67440       1   67389   67446  -67503   67440       1
   67389   67446   67503   67539       1   67386   67353   67389   67446       1
   67386   67440  -67503   67446       1   67386   67440   67503   67539       1
   67383   67350   67380   67428       1   67383   67434  -67497   67428       1
   67383   67434   67497   67536       1   67380   67350   67383   67434       1
   67380   67428  -67497   67434       1   67380   67428   67497   67536       1
   67377   67347   67374   67419       1   67377   67425  -67485   67419       1
   67377   67425   67485   67533       1   67374   67347   67377   67425       1
   67374   67419  -67485   67425       1   67374   67419   67485   67533       1
   67371   67344   67368   67404       1   67371   67410  -67476   67404       1
   67371   67410   67476   67530       1   67368   67344   67371   67410       1
   67368   67404  -67476   67410       1   67368   67404   67476   67530       1
   67362   67335   67359   67392       4   67362   67335   67359   67395       4
   67362   67398   67464   67521       1   67362   67401  -67470   67521       1
   67359   67335   67362   67398       4   67359   67335   67362   67401       4
   67359   67392   67452   67512       1   67359   67395  -67458   67512       1
   67353   67326   67350   67380       4   67353   67326   67350   67383       4
   67353   67386   67440   67503       1   67353   67389  -67446   67503       1
   67350   67326   67353   67386       4   67350   67326   67353   67389       4
   67350   67380   67428   67497       1   67350   67383  -67434   67497       1
   67347   67323   67344   67368       4   67347   67323   67344   67371       4
   67347   67374   67419   67485       1   67347   67377  -67425   67485       1
   67344   67323   67347   67374       4   67344   67323   67347   67377       4
   67344   67368   67404   67476       1   67344   67371  -67410   67476       1
   67338   67305   67335   67359       4   67338   67305   67335   67362       4
   67335   67359   67392   67452       1   67335   67359   67395   67458       1
   67335   67362   67398   67464       1   67335   67362   67401   67470       1
   67329   67293   67326   67350       4   67329   67293   67326   67353       4
   67326   67350   67380   67428       1   67326   67350   67383   67434       1
   67326   67353   67386   67440       1   67326   67353   67389   67446       1
   67323   67344   67368   67404       1   67323   67344   67371   67410       1
   67323   67347   67374   67419       1   67323   67347   67377   67425       1
   67308   67338   67305   67335       1   67305   67335   67359   67392       4
   67305   67335   67359   67395       4   67305   67335   67362   67398       4
   67305   67335   67362   67401       4   67299   67269   67275   67308       5
   67299   67329   67293   67326       1   67293   67326   67350   67380       4
   67293   67326   67350   67383       4   67293   67326   67353   67386       4
   67293   67326   67353   67389       4   67287   67323   67344   67368       4
   67287   67323   67344   67371       4   67287   67323   67347   67374       4
   67287   67323   67347   67377       4   67281   67287   67323   67344       4
   67281   67287   67323   67347       4   67275   67254   67272   67305       1
   67275   67269   67299   67329       1   67275   67308  -67338   67305       1
   67272   67254   67275   67308       1   67272   67305   67335   67359       4
   67272   67305   67335   67362       4   67272   67305  -67338   67308       1
   67269   67251   67266   67293       1   67269   67275   67254   67272       1
   67269   67275   67308   67338       1   67269   67299  -67329   67293       1
   67266   67251   67269   67275       1   67266   67251   67269   67299       1
   67266   67293   67326   67350       4   67266   67293   67326   67353       4
   67266   67293  -67329   67299       1   67263   67287   67323   67344       4
   67263   67287   67323   67347       4   67260   67245   67248   67263       1
   67260   67281  -67287   67263       1   67260   67281   67287   67323       1
   67254   67230   67248   67263       6   67254   67230   67251   67266       6
   67254   67230  -67251   67269       7   67254   67272   67305   67335       1
   67254   67272   67305   67338       1   67254   67275   67269   67299       5
   67254   67275  -67308   67338       1   67251   67230   67248   67263       6
   67251   67230   67254   67272       6   67251   67230  -67254   67275       7
   67251   67266   67293   67326       1   67251   67266   67293   67329       1
   67251   67269  -67275   67254       5   67251   67269   67275   67308       5
   67251   67269  -67299   67329       1   67248   67230   67251   67266       6
   67248   67230   67251   67269       7   67248   67230   67254   67272       6
   67248   67230   67254   67275       7   67248   67245   67260   67281       1
   67248   67263  -67287   67281       1   67248   67263   67287   67323       1
   67245   67248   67230   67251       7   67245   67248   67230   67254       7
   67245   67248   67263   67287       1   67245   67260  -67281   67287       1
   67230   67203  -67227   67245       1   67230   67248   67245   67260       1
   67230   67248   67263   67287       1   67230   67251   67266   67293       1
   67230   67251  -67269   67275       1   67230   67251   67269   67299       1
   67230   67254   67272   67305       1   67230   67254  -67275   67269       1
   67230   67254   67275   67308       1   67227   67203  -67230   67248       7
   67227   67203   67230   67251       7   67227   67203   67230   67254       7
   67227   67245  -67248   67230       1   67227   67245   67248   67263       1
   67227   67245   67260   67281       1   67221   67236   67257   67278       3
   67215   67236   67257   67278       3   67209   67227   67203   67230       1
   67209   67227   67245   67248       5   67209   67227   67245   67260       5
   67203   67227  -67245   67248       5   67203   67227   67245   67260       5
   67203   67230  -67248   67245       7   67203   67230   67248   67263       6
   67203   67230   67251   67266       6   67203   67230   67251   67269       7
   67203   67230   67254   67272       6   67203   67230   67254   67275       7
   67200   67188   67197   67215       1   67200   67221  -67236   67215       1
   67200   67221   67236   67257       1   67197   67188   67200   67221       1
   67197   67215  -67236   67221       1   67197   67215   67236   67257       1
   67194   67185   67191   67203       1   67194   67209  -67227   67203       1
   67194   67209   67227   67245       1   67191   67185   67194   67209       1
   67191   67203  -67227   67209       1   67191   67203   67227   67245       1
   67191   67203   67230   67248       6   67191   67203   67230   67251       6
   67191   67203   67230   67254       6   67188   67182   67185   67191       4
   67188   67182   67185   67194       4   67188   67197   67215   67236       1
   67188   67200  -67221   67236       1   67185   67182   67188   67197       4
   67185   67182   67188   67200       4   67185   67191   67203   67227       1
   67185   67191   67203   67230       1   67185   67194  -67209   67227       1
   67182   67185   67191   67203       1   67182   67185   67194   67209       1
   67182   67188   67197   67215       1   67182   67188   67200   67221       1
   67173   67182   67185   67191       4   67173   67182   67185   67194       4
   67173   67182   67188   67197       4   67173   67182   67188   67200       4
   67167   67173   67182   67185       4   67167   67173   67182   67188       4
   67161   67173   67182   67185       4   67161   67173   67182   67188       4
   67149   67140   67146   67161       1   67149   67167  -67173   67161       1
   67149   67167   67173   67182       1   67146   67140   67149   67167       1
   67146   67161  -67173   67167       1   67146   67161   67173   67182       1
   67143   67137   67140   67146       3   67143   67137   67140   67149       3
   67140   67146   67161   67173       1   67140   67149  -67167   67173       1
   67137   67140   67146   67161       1   67137   67140   67149   67167       1
   67953   68004   68028   68046       3   67947   68004   68028   68046       3
   67941   67995   68025   68043       3   67935   67995   68025   68043       3
   67929   67986   68022   68040       3   67923   67986   68022   68040       3
   67917   67980   68019   68037       3   67911   67980   68019   68037       3
   67908   67968   68016   68034       3   67902   67968   68016   68034       3
   67893   67959   68013   68031       3   67887   67959   68013   68031       3
   67884   67845   67881   67947       1   67884   67953  -68004   67947       1
   67884   67953   68004   68028       1   67881   67845   67884   67953       1
   67881   67947  -68004   67953       1   67881   67947   68004   68028       1
   67878   67842   67875   67935       1   67878   67941  -67995   67935       1
   67878   67941   67995   68025       1   67875   67842   67878   67941       1
   67875   67935  -67995   67941       1   67875   67935   67995   68025       1
   67872   67836   67869   67923       1   67872   67929  -67986   67923       1
   67872   67929   67986   68022       1   67869   67836   67872   67929       1
   67869   67923  -67986   67929       1   67869   67923   67986   68022       1
   67866   67833   67863   67911       1   67866   67917  -67980   67911       1
   67866   67917   67980   68019       1   67863   67833   67866   67917       1
   67863   67911  -67980   67917       1   67863   67911   67980   68019       1
   67860   67830   67857   67902       1   67860   67908  -67968   67902       1
   67860   67908   67968   68016       1   67857   67830   67860   67908       1
   67857   67902  -67968   67908       1   67857   67902   67968   68016       1
   67854   67827   67851   67887       1   67854   67893  -67959   67887       1
   67854   67893   67959   68013       1   67851   67827   67854   67893       1
   67851   67887  -67959   67893       1   67851   67887   67959   68013       1
   67845   67818   67842   67875       4   67845   67818   67842   67878       4
   67845   67881   67947   68004       1   67845   67884  -67953   68004       1
   67842   67818   67845   67881       4   67842   67818   67845   67884       4
   67842   67875   67935   67995       1   67842   67878  -67941   67995       1
   67836   67809   67833   67863       4   67836   67809   67833   67866       4
   67836   67869   67923   67986       1   67836   67872  -67929   67986       1
   67833   67809   67836   67869       4   67833   67809   67836   67872       4
   67833   67863   67911   67980       1   67833   67866  -67917   67980       1
   67830   67806   67827   67851       4   67830   67806   67827   67854       4
   67830   67857   67902   67968       1   67830   67860  -67908   67968       1
   67827   67806   67830   67857       4   67827   67806   67830   67860       4
   67827   67851   67887   67959       1   67827   67854  -67893   67959       1
   67821   67788   67818   67842       4   67821   67788   67818   67845       4
   67818   67842   67875   67935       1   67818   67842   67878   67941       1
   67818   67845   67881   67947       1   67818   67845   67884   67953       1
   67812   67776   67809   67833       4   67812   67776   67809   67836       4
   67809   67833   67863   67911       1   67809   67833   67866   67917       1
   67809   67836   67869   67923       1   67809   67836   67872   67929       1
   67806   67827   67851   67887       1   67806   67827   67854   67893       1
   67806   67830   67857   67902       1   67806   67830   67860   67908       1
   67791   67821   67788   67818       1   67788   67818   67842   67875       4
   67788   67818   67842   67878       4   67788   67818   67845   67881       4
   67788   67818   67845   67884       4   67782   67752   67758   67791       5
   67782   67812   67776   67809       1   67776   67809   67833   67863       4
   67776   67809   67833   67866       4   67776   67809   67836   67869       4
   67776   67809   67836   67872       4   67770   67806   67827   67851       4
   67770   67806   67827   67854       4   67770   67806   67830   67857       4
   67770   67806   67830   67860       4   67764   67770   67806   67827       4
   67764   67770   67806   67830       4   67758   67737   67755   67788       1
   67758   67752   67782   67812       1   67758   67791  -67821   67788       1
   67755   67737   67758   67791       1   67755   67788   67818   67842       4
   67755   67788   67818   67845       4   67755   67788  -67821   67791       1
   67752   67734   67749   67776       1   67752   67758   67737   67755       1
   67752   67758   67791   67821       1   67752   67782  -67812   67776       1
   67749   67734   67752   67758       1   67749   67734   67752   67782       1
   67749   67776   67809   67833       4   67749   67776   67809   67836       4
   67749   67776  -67812   67782       1   67746   67770   67806   67827       4
   67746   67770   67806   67830       4   67743   67728   67731   67746       1
   67743   67764  -67770   67746       1   67743   67764   67770   67806       1
   67737   67713   67731   67746       6   67737   67713   67734   67749       6
   67737   67713  -67734   67752       7   67737   67755   67788   67818       1
   67737   67755   67788   67821       1   67737   67758   67752   67782       5
   67737   67758  -67791   67821       1   67734   67713   67731   67746       6
   67734   67713   67737   67755       6   67734   67713  -67737   67758       7
   67734   67749   67776   67809       1   67734   67749   67776   67812       1
   67734   67752  -67758   67737       5   67734   67752   67758   67791       5
   67734   67752  -67782   67812       1   67731   67713   67734   67749       6
   67731   67713   67734   67752       7   67731   67713   67737   67755       6
   67731   67713   67737   67758       7   67731   67728   67743   67764       1
   67731   67746  -67770   67764       1   67731   67746   67770   67806       1
   67728   67731   67713   67734       7   67728   67731   67713   67737       7
   67728   67731   67746   67770       1   67728   67743  -67764   67770       1
   67713   67686  -67710   67728       1   67713   67731   67728   67743       1
   67713   67731   67746   67770       1   67713   67734   67749   67776       1
   67713   67734  -67752   67758       1   67713   67734   67752   67782       1
   67713   67737   67755   67788       1   67713   67737  -67758   67752       1
   67713   67737   67758   67791       1   67710   67686  -67713   67731       7
   67710   67686   67713   67734       7   67710   67686   67713   67737       7
   67710   67728  -67731   67713       1   67710   67728   67731   67746       1
   67710   67728   67743   67764       1   67704   67719   67740   67761       3
   67698   67719   67740   67761       3   67692   67710   67686   67713       1
   67692   67710   67728   67731       5   67692   67710   67728   67743       5
   67686   67710  -67728   67731       5   67686   67710   67728   67743       5
   67686   67713  -67731   67728       7   67686   67713   67731   67746       6
   67686   67713   67734   67749       6   67686   67713   67734   67752       7
   67686   67713   67737   67755       6   67686   67713   67737   67758       7
   67683   67671   67680   67698       1   67683   67704  -67719   67698       1
   67683   67704   67719   67740       1   67680   67671   67683   67704       1
   67680   67698  -67719   67704       1   67680   67698   67719   67740       1
   67677   67668   67674   67686       1   67677   67692  -67710   67686       1
   67677   67692   67710   67728       1   67674   67668   67677   67692       1
   67674   67686  -67710   67692       1   67674   67686   67710   67728       1
   67674   67686   67713   67731       6   67674   67686   67713   67734       6
   67674   67686   67713   67737       6   67671   67665   67668   67674       4
   67671   67665   67668   67677       4   67671   67680   67698   67719       1
   67671   67683  -67704   67719       1   67668   67665   67671   67680       4
   67668   67665   67671   67683       4   67668   67674   67686   67710       1
   67668   67674   67686   67713       1   67668   67677  -67692   67710       1
   67665   67668   67674   67686       1   67665   67668   67677   67692       1
   67665   67671   67680   67698       1   67665   67671   67683   67704       1
   67656   67665   67668   67674       4   67656   67665   67668   67677       4
   67656   67665   67671   67680       4   67656   67665   67671   67683       4
   67650   67656   67665   67668       4   67650   67656   67665   67671       4
   67644   67656   67665   67668       4   67644   67656   67665   67671       4
   67632   67623   67629   67644       1   67632   67650  -67656   67644       1
   67632   67650   67656   67665       1   67629   67623   67632   67650       1
   67629   67644  -67656   67650       1   67629   67644   67656   67665       1
   67626   67620   67623   67629       3   67626   67620   67623   67632       3
   67623   67629   67644   67656       1   67623   67632  -67650   67656       1
   67620   67623   67629   67644       1   67620   67623   67632   67650       1
   68436   68487   68511   68529       3   68430   68487   68511   68529       3
   68424   68478   68508   68526       3   68418   68478   68508   68526       3
   68412   68469   68505   68523       3   68406   68469   68505   68523       3
   68400   68463   68502   68520       3   68394   68463   68502   68520       3
   68391   68451   68499   68517       3   68385   68451   68499   68517       3
   68376   68442   68496   68514       3   68370   68442   68496   68514       3
   68367   68328   68364   68430       1   68367   68436  -68487   68430       1
   68367   68436   68487   68511       1   68364   68328   68367   68436       1
   68364   68430  -68487   68436       1   68364   68430   68487   68511       1
   68361   68325   68358   68418       1   68361   68424  -68478   68418       1
   68361   68424   68478   68508       1   68358   68325   68361   68424       1
   68358   68418  -68478   68424       1   68358   68418   68478   68508       1
   68355   68319   68352   68406       1   68355   68412  -68469   68406       1
   68355   68412   68469   68505       1   68352   68319   68355   68412       1
   68352   68406  -68469   68412       1   68352   68406   68469   68505       1
   68349   68316   68346   68394       1   68349   68400  -68463   68394       1
   68349   68400   68463   68502       1   68346   68316   68349   68400       1
   68346   68394  -68463   68400       1   68346   68394   68463   68502       1
   68343   68313   68340   68385       1   68343   68391  -68451   68385       1
   68343   68391   68451   68499       1   68340   68313   68343   68391       1
   68340   68385  -68451   68391       1   68340   68385   68451   68499       1
   68337   68310   68334   68370       1   68337   68376  -68442   68370       1
   68337   68376   68442   68496       1   68334   68310   68337   68376       1
   68334   68370  -68442   68376       1   68334   68370   68442   68496       1
   68328   68301   68325   68358       4   68328   68301   68325   68361       4
   68328   68364   68430   68487       1   68328   68367  -68436   68487       1
   68325   68301   68328   68364       4   68325   68301   68328   68367       4
   68325   68358   68418   68478       1   68325   68361  -68424   68478       1
   68319   68292   68316   68346       4   68319   68292   68316   68349       4
   68319   68352   68406   68469       1   68319   68355  -68412   68469       1
   68316   68292   68319   68352       4   68316   68292   68319   68355       4
   68316   68346   68394   68463       1   68316   68349  -68400   68463       1
   68313   68289   68310   68334       4   68313   68289   68310   68337       4
   68313   68340   68385   68451       1   68313   68343  -68391   68451       1
   68310   68289   68313   68340       4   68310   68289   68313   68343       4
   68310   68334   68370   68442       1   68310   68337  -68376   68442       1
   68304   68271   68301   68325       4   68304   68271   68301   68328       4
   68301   68325   68358   68418       1   68301   68325   68361   68424       1
   68301   68328   68364   68430       1   68301   68328   68367   68436       1
   68295   68259   68292   68316       4   68295   68259   68292   68319       4
   68292   68316   68346   68394       1   68292   68316   68349   68400       1
   68292   68319   68352   68406       1   68292   68319   68355   68412       1
   68289   68310   68334   68370       1   68289   68310   68337   68376       1
   68289   68313   68340   68385       1   68289   68313   68343   68391       1
   68274   68304   68271   68301       1   68271   68301   68325   68358       4
   68271   68301   68325   68361       4   68271   68301   68328   68364       4
   68271   68301   68328   68367       4   68265   68235   68241   68274       5
   68265   68295   68259   68292       1   68259   68292   68316   68346       4
   68259   68292   68316   68349       4   68259   68292   68319   68352       4
   68259   68292   68319   68355       4   68253   68289   68310   68334       4
   68253   68289   68310   68337       4   68253   68289   68313   68340       4
   68253   68289   68313   68343       4   68247   68253   68289   68310       4
   68247   68253   68289   68313       4   68241   68220   68238   68271       1
   68241   68235   68265   68295       1   68241   68274  -68304   68271       1
   68238   68220   68241   68274       1   68238   68271   68301   68325       4
   68238   68271   68301   68328       4   68238   68271  -68304   68274       1
   68235   68217   68232   68259       1   68235   68241   68220   68238       1
   68235   68241   68274   68304       1   68235   68265  -68295   68259       1
   68232   68217   68235   68241       1   68232   68217   68235   68265       1
   68232   68259   68292   68316       4   68232   68259   68292   68319       4
   68232   68259  -68295   68265       1   68229   68253   68289   68310       4
   68229   68253   68289   68313       4   68226   68211   68214   68229       1
   68226   68247  -68253   68229       1   68226   68247   68253   68289       1
   68220   68196   68214   68229       6   68220   68196   68217   68232       6
   68220   68196  -68217   68235       7   68220   68238   68271   68301       1
   68220   68238   68271   68304       1   68220   68241   68235   68265       5
   68220   68241  -68274   68304       1   68217   68196   68214   68229       6
   68217   68196   68220   68238       6   68217   68196  -68220   68241       7
   68217   68232   68259   68292       1   68217   68232   68259   68295       1
   68217   68235  -68241   68220       5   68217   68235   68241   68274       5
   68217   68235  -68265   68295       1   68214   68196   68217   68232       6
   68214   68196   68217   68235       7   68214   68196   68220   68238       6
   68214   68196   68220   68241       7   68214   68211   68226   68247       1
   68214   68229  -68253   68247       1   68214   68229   68253   68289       1
   68211   68214   68196   68217       7   68211   68214   68196   68220       7
   68211   68214   68229   68253       1   68211   68226  -68247   68253       1
   68196   68169  -68193   68211       1   68196   68214   68211   68226       1
   68196   68214   68229   68253       1   68196   68217   68232   68259       1
   68196   68217  -68235   68241       1   68196   68217   68235   68265       1
   68196   68220   68238   68271       1   68196   68220  -68241   68235       1
   68196   68220   68241   68274       1   68193   68169  -68196   68214       7
   68193   68169   68196   68217       7   68193   68169   68196   68220       7
   68193   68211  -68214   68196       1   68193   68211   68214   68229       1
   68193   68211   68226   68247       1   68187   68202   68223   68244       3
   68181   68202   68223   68244       3   68175   68193   68169   68196       1
   68175   68193   68211   68214       5   68175   68193   68211   68226       5
   68169   68193  -68211   68214       5   68169   68193   68211   68226       5
   68169   68196  -68214   68211       7   68169   68196   68214   68229       6
   68169   68196   68217   68232       6   68169   68196   68217   68235       7
   68169   68196   68220   68238       6   68169   68196   68220   68241       7
   68166   68154   68163   68181       1   68166   68187  -68202   68181       1
   68166   68187   68202   68223       1   68163   68154   68166   68187       1
   68163   68181  -68202   68187       1   68163   68181   68202   68223       1
   68160   68151   68157   68169       1   68160   68175  -68193   68169       1
   68160   68175   68193   68211       1   68157   68151   68160   68175       1
   68157   68169  -68193   68175       1   68157   68169   68193   68211       1
   68157   68169   68196   68214       6   68157   68169   68196   68217       6
   68157   68169   68196   68220       6   68154   68148   68151   68157       4
   68154   68148   68151   68160       4   68154   68163   68181   68202       1
   68154   68166  -68187   68202       1   68151   68148   68154   68163       4
   68151   68148   68154   68166       4   68151   68157   68169   68193       1
   68151   68157   68169   68196       1   68151   68160  -68175   68193       1
   68148   68151   68157   68169       1   68148   68151   68160   68175       1
   68148   68154   68163   68181       1   68148   68154   68166   68187       1
   68139   68148   68151   68157       4   68139   68148   68151   68160       4
   68139   68148   68154   68163       4   68139   68148   68154   68166       4
   68133   68139   68148   68151       4   68133   68139   68148   68154       4
   68127   68139   68148   68151       4   68127   68139   68148   68154       4
   68115   68106   68112   68127       1   68115   68133  -68139   68127       1
   68115   68133   68139   68148       1   68112   68106   68115   68133       1
   68112   68127  -68139   68133       1   68112   68127   68139   68148       1
   68109   68103   68106   68112       3   68109   68103   68106   68115       3
   68106   68112   68127   68139       1   68106   68115  -68133   68139       1
   68103   68106   68112   68127       1   68103   68106   68115   68133       1
   68919   68970   68994   69012       3   68913   68970   68994   69012       3
   68907   68961   68991   69009       3   68901   68961   68991   69009       3
   68895   68952   68988   69006       3   68889   68952   68988   69006       3
   68883   68946   68985   69003       3   68877   68946   68985   69003       3
   68874   68934   68982   69000       3   68868   68934   68982   69000       3
   68859   68925   68979   68997       3   68853   68925   68979   68997       3
   68850   68811   68847   68913       1   68850   68919  -68970   68913       1
   68850   68919   68970   68994       1   68847   68811   68850   68919       1
   68847   68913  -68970   68919       1   68847   68913   68970   68994       1
   68844   68808   68841   68901       1   68844   68907  -68961   68901       1
   68844   68907   68961   68991       1   68841   68808   68844   68907       1
   68841   68901  -68961   68907       1   68841   68901   68961   68991       1
   68838   68802   68835   68889       1   68838   68895  -68952   68889       1
   68838   68895   68952   68988       1   68835   68802   68838   68895       1
   68835   68889  -68952   68895       1   68835   68889   68952   68988       1
   68832   68799   68829   68877       1   68832   68883  -68946   68877       1
   68832   68883   68946   68985       1   68829   68799   68832   68883       1
   68829   68877  -68946   68883       1   68829   68877   68946   68985       1
   68826   68796   68823   68868       1   68826   68874  -68934   68868       1
   68826   68874   68934   68982       1   68823   68796   68826   68874       1
   68823   68868  -68934   68874       1   68823   68868   68934   68982       1
   68820   68793   68817   68853       1   68820   68859  -68925   68853       1
   68820   68859   68925   68979       1   68817   68793   68820   68859       1
   68817   68853  -68925   68859       1   68817   68853   68925   68979       1
   68811   68784   68808   68841       4   68811   68784   68808   68844       4
   68811   68847   68913   68970       1   68811   68850  -68919   68970       1
   68808   68784   68811   68847       4   68808   68784   68811   68850       4
   68808   68841   68901   68961       1   68808   68844  -68907   68961       1
   68802   68775   68799   68829       4   68802   68775   68799   68832       4
   68802   68835   68889   68952       1   68802   68838  -68895   68952       1
   68799   68775   68802   68835       4   68799   68775   68802   68838       4
   68799   68829   68877   68946       1   68799   68832  -68883   68946       1
   68796   68772   68793   68817       4   68796   68772   68793   68820       4
   68796   68823   68868   68934       1   68796   68826  -68874   68934       1
   68793   68772   68796   68823       4   68793   68772   68796   68826       4
   68793   68817   68853   68925       1   68793   68820  -68859   68925       1
   68787   68754   68784   68808       4   68787   68754   68784   68811       4
   68784   68808   68841   68901       1   68784   68808   68844   68907       1
   68784   68811   68847   68913       1   68784   68811   68850   68919       1
   68778   68742   68775   68799       4   68778   68742   68775   68802       4
   68775   68799   68829   68877       1   68775   68799   68832   68883       1
   68775   68802   68835   68889       1   68775   68802   68838   68895       1
   68772   68793   68817   68853       1   68772   68793   68820   68859       1
   68772   68796   68823   68868       1   68772   68796   68826   68874       1
   68757   68787   68754   68784       1   68754   68784   68808   68841       4
   68754   68784   68808   68844       4   68754   68784   68811   68847       4
   68754   68784   68811   68850       4   68748   68718   68724   68757       5
   68748   68778   68742   68775       1   68742   68775   68799   68829       4
   68742   68775   68799   68832       4   68742   68775   68802   68835       4
   68742   68775   68802   68838       4   68736   68772   68793   68817       4
   68736   68772   68793   68820       4   68736   68772   68796   68823       4
   68736   68772   68796   68826       4   68730   68736   68772   68793       4
   68730   68736   68772   68796       4   68724   68703   68721   68754       1
   68724   68718   68748   68778       1   68724   68757  -68787   68754       1
   68721   68703   68724   68757       1   68721   68754   68784   68808       4
   68721   68754   68784   68811       4   68721   68754  -68787   68757       1
   68718   68700   68715   68742       1   68718   68724   68703   68721       1
   68718   68724   68757   68787       1   68718   68748  -68778   68742       1
   68715   68700   68718   68724       1   68715   68700   68718   68748       1
   68715   68742   68775   68799       4   68715   68742   68775   68802       4
   68715   68742  -68778   68748       1   68712   68736   68772   68793       4
   68712   68736   68772   68796       4   68709   68694   68697   68712       1
   68709   68730  -68736   68712       1   68709   68730   68736   68772       1
   68703   68679   68697   68712       6   68703   68679   68700   68715       6
   68703   68679  -68700   68718       7   68703   68721   68754   68784       1
   68703   68721   68754   68787       1   68703   68724   68718   68748       5
   68703   68724  -68757   68787       1   68700   68679   68697   68712       6
   68700   68679   68703   68721       6   68700   68679  -68703   68724       7
   68700   68715   68742   68775       1   68700   68715   68742   68778       1
   68700   68718  -68724   68703       5   68700   68718   68724   68757       5
   68700   68718  -68748   68778       1   68697   68679   68700   68715       6
   68697   68679   68700   68718       7   68697   68679   68703   68721       6
   68697   68679   68703   68724       7   68697   68694   68709   68730       1
   68697   68712  -68736   68730       1   68697   68712   68736   68772       1
   68694   68697   68679   68700       7   68694   68697   68679   68703       7
   68694   68697   68712   68736       1   68694   68709  -68730   68736       1
   68679   68652  -68676   68694       1   68679   68697   68694   68709       1
   68679   68697   68712   68736       1   68679   68700   68715   68742       1
   68679   68700  -68718   68724       1   68679   68700   68718   68748       1
   68679   68703   68721   68754       1   68679   68703  -68724   68718       1
   68679   68703   68724   68757       1   68676   68652  -68679   68697       7
   68676   68652   68679   68700       7   68676   68652   68679   68703       7
   68676   68694  -68697   68679       1   68676   68694   68697   68712       1
   68676   68694   68709   68730       1   68670   68685   68706   68727       3
   68664   68685   68706   68727       3   68658   68676   68652   68679       1
   68658   68676   68694   68697       5   68658   68676   68694   68709       5
   68652   68676  -68694   68697       5   68652   68676   68694   68709       5
   68652   68679  -68697   68694       7   68652   68679   68697   68712       6
   68652   68679   68700   68715       6   68652   68679   68700   68718       7
   68652   68679   68703   68721       6   68652   68679   68703   68724       7
   68649   68637   68646   68664       1   68649   68670  -68685   68664       1
   68649   68670   68685   68706       1   68646   68637   68649   68670       1
   68646   68664  -68685   68670       1   68646   68664   68685   68706       1
   68643   68634   68640   68652       1   68643   68658  -68676   68652       1
   68643   68658   68676   68694       1   68640   68634   68643   68658       1
   68640   68652  -68676   68658       1   68640   68652   68676   68694       1
   68640   68652   68679   68697       6   68640   68652   68679   68700       6
   68640   68652   68679   68703       6   68637   68631   68634   68640       4
   68637   68631   68634   68643       4   68637   68646   68664   68685       1
   68637   68649  -68670   68685       1   68634   68631   68637   68646       4
   68634   68631   68637   68649       4   68634   68640   68652   68676       1
   68634   68640   68652   68679       1   68634   68643  -68658   68676       1
   68631   68634   68640   68652       1   68631   68634   68643   68658       1
   68631   68637   68646   68664       1   68631   68637   68649   68670       1
   68622   68631   68634   68640       4   68622   68631   68634   68643       4
   68622   68631   68637   68646       4   68622   68631   68637   68649       4
   68616   68622   68631   68634       4   68616   68622   68631   68637       4
   68610   68622   68631   68634       4   68610   68622   68631   68637       4
   68598   68589   68595   68610       1   68598   68616  -68622   68610       1
   68598   68616   68622   68631       1   68595   68589   68598   68616       1
   68595   68610  -68622   68616       1   68595   68610   68622   68631       1
   68592   68586   68589   68595       3   68592   68586   68589   68598       3
   68589   68595   68610   68622       1   68589   68598  -68616   68622       1
   68586   68589   68595   68610       1   68586   68589   68598   68616       1
   69402   69453   69477   69495       3   69396   69453   69477   69495       3
   69390   69444   69474   69492       3   69384   69444   69474   69492       3
   69378   69435   69471   69489       3   69372   69435   69471   69489       3
   69366   69429   69468   69486       3   69360   69429   69468   69486       3
   69357   69417   69465   69483       3   69351   69417   69465   69483       3
   69342   69408   69462   69480       3   69336   69408   69462   69480       3
   69333   69294   69330   69396       1   69333   69402  -69453   69396       1
   69333   69402   69453   69477       1   69330   69294   69333   69402       1
   69330   69396  -69453   69402       1   69330   69396   69453   69477       1
   69327   69291   69324   69384       1   69327   69390  -69444   69384       1
   69327   69390   69444   69474       1   69324   69291   69327   69390       1
   69324   69384  -69444   69390       1   69324   69384   69444   69474       1
   69321   69285   69318   69372       1   69321   69378  -69435   69372       1
   69321   69378   69435   69471       1   69318   69285   69321   69378       1
   69318   69372  -69435   69378       1   69318   69372   69435   69471       1
   69315   69282   69312   69360       1   69315   69366  -69429   69360       1
   69315   69366   69429   69468       1   69312   69282   69315   69366       1
   69312   69360  -69429   69366       1   69312   69360   69429   69468       1
   69309   69279   69306   69351       1   69309   69357  -69417   69351       1
   69309   69357   69417   69465       1   69306   69279   69309   69357       1
   69306   69351  -69417   69357       1   69306   69351   69417   69465       1
   69303   69276   69300   69336       1   69303   69342  -69408   69336       1
   69303   69342   69408   69462       1   69300   69276   69303   69342       1
   69300   69336  -69408   69342       1   69300   69336   69408   69462       1
   69294   69267   69291   69324       4   69294   69267   69291   69327       4
   69294   69330   69396   69453       1   69294   69333  -69402   69453       1
   69291   69267   69294   69330       4   69291   69267   69294   69333       4
   69291   69324   69384   69444       1   69291   69327  -69390   69444       1
   69285   69258   69282   69312       4   69285   69258   69282   69315       4
   69285   69318   69372   69435       1   69285   69321  -69378   69435       1
   69282   69258   69285   69318       4   69282   69258   69285   69321       4
   69282   69312   69360   69429       1   69282   69315  -69366   69429       1
   69279   69255   69276   69300       4   69279   69255   69276   69303       4
   69279   69306   69351   69417       1   69279   69309  -69357   69417       1
   69276   69255   69279   69306       4   69276   69255   69279   69309       4
   69276   69300   69336   69408       1   69276   69303  -69342   69408       1
   69270   69237   69267   69291       4   69270   69237   69267   69294       4
   69267   69291   69324   69384       1   69267   69291   69327   69390       1
   69267   69294   69330   69396       1   69267   69294   69333   69402       1
   69261   69225   69258   69282       4   69261   69225   69258   69285       4
   69258   69282   69312   69360       1   69258   69282   69315   69366       1
   69258   69285   69318   69372       1   69258   69285   69321   69378       1
   69255   69276   69300   69336       1   69255   69276   69303   69342       1
   69255   69279   69306   69351       1   69255   69279   69309   69357       1
   69240   69270   69237   69267       1   69237   69267   69291   69324       4
   69237   69267   69291   69327       4   69237   69267   69294   69330       4
   69237   69267   69294   69333       4   69231   69201   69207   69240       5
   69231   69261   69225   69258       1   69225   69258   69282   69312       4
   69225   69258   69282   69315       4   69225   69258   69285   69318       4
   69225   69258   69285   69321       4   69219   69255   69276   69300       4
   69219   69255   69276   69303       4   69219   69255   69279   69306       4
   69219   69255   69279   69309       4   69213   69219   69255   69276       4
   69213   69219   69255   69279       4   69207   69186   69204   69237       1
   69207   69201   69231   69261       1   69207   69240  -69270   69237       1
   69204   69186   69207   69240       1   69204   69237   69267   69291       4
   69204   69237   69267   69294       4   69204   69237  -69270   69240       1
   69201   69183   69198   69225       1   69201   69207   69186   69204       1
   69201   69207   69240   69270       1   69201   69231  -69261   69225       1
   69198   69183   69201   69207       1   69198   69183   69201   69231       1
   69198   69225   69258   69282       4   69198   69225   69258   69285       4
   69198   69225  -69261   69231       1   69195   69219   69255   69276       4
   69195   69219   69255   69279       4   69192   69177   69180   69195       1
   69192   69213  -69219   69195       1   69192   69213   69219   69255       1
   69186   69162   69180   69195       6   69186   69162   69183   69198       6
   69186   69162  -69183   69201       7   69186   69204   69237   69267       1
   69186   69204   69237   69270       1   69186   69207   69201   69231       5
   69186   69207  -69240   69270       1   69183   69162   69180   69195       6
   69183   69162   69186   69204       6   69183   69162  -69186   69207       7
   69183   69198   69225   69258       1   69183   69198   69225   69261       1
   69183   69201  -69207   69186       5   69183   69201   69207   69240       5
   69183   69201  -69231   69261       1   69180   69162   69183   69198       6
   69180   69162   69183   69201       7   69180   69162   69186   69204       6
   69180   69162   69186   69207       7   69180   69177   69192   69213       1
   69180   69195  -69219   69213       1   69180   69195   69219   69255       1
   69177   69180   69162   69183       7   69177   69180   69162   69186       7
   69177   69180   69195   69219       1   69177   69192  -69213   69219       1
   69162   69135  -69159   69177       1   69162   69180   69177   69192       1
   69162   69180   69195   69219       1   69162   69183   69198   69225       1
   69162   69183  -69201   69207       1   69162   69183   69201   69231       1
   69162   69186   69204   69237       1   69162   69186  -69207   69201       1
   69162   69186   69207   69240       1   69159   69135  -69162   69180       7
   69159   69135   69162   69183       7   69159   69135   69162   69186       7
   69159   69177  -69180   69162       1   69159   69177   69180   69195       1
   69159   69177   69192   69213       1   69153   69168   69189   69210       3
   69147   69168   69189   69210       3   69141   69159   69135   69162       1
   69141   69159   69177   69180       5   69141   69159   69177   69192       5
   69135   69159  -69177   69180       5   69135   69159   69177   69192       5
   69135   69162  -69180   69177       7   69135   69162   69180   69195       6
   69135   69162   69183   69198       6   69135   69162   69183   69201       7
   69135   69162   69186   69204       6   69135   69162   69186   69207       7
   69132   69120   69129   69147       1   69132   69153  -69168   69147       1
   69132   69153   69168   69189       1   69129   69120   69132   69153       1
   69129   69147  -69168   69153       1   69129   69147   69168   69189       1
   69126   69117   69123   69135       1   69126   69141  -69159   69135       1
   69126   69141   69159   69177       1   69123   69117   69126   69141       1
   69123   69135  -69159   69141       1   69123   69135   69159   69177       1
   69123   69135   69162   69180       6   69123   69135   69162   69183       6
   69123   69135   69162   69186       6   69120   69114   69117   69123       4
   69120   69114   69117   69126       4   69120   69129   69147   69168       1
   69120   69132  -69153   69168       1   69117   69114   69120   69129       4
   69117   69114   69120   69132       4   69117   69123   69135   69159       1
   69117   69123   69135   69162       1   69117   69126  -69141   69159       1
   69114   69117   69123   69135       1   69114   69117   69126   69141       1
   69114   69120   69129   69147       1   69114   69120   69132   69153       1
   69105   69114   69117   69123       4   69105   69114   69117   69126       4
   69105   69114   69120   69129       4   69105   69114   69120   69132       4
   69099   69105   69114   69117       4   69099   69105   69114   69120       4
   69093   69105   69114   69117       4   69093   69105   69114   69120       4
   69081   69072   69078   69093       1   69081   69099  -69105   69093       1
   69081   69099   69105   69114       1   69078   69072   69081   69099       1
   69078   69093  -69105   69099       1   69078   69093   69105   69114       1
   69075   69069   69072   69078       3   69075   69069   69072   69081       3
   69072   69078   69093   69105       1   69072   69081  -69099   69105       1
   69069   69072   69078   69093       1   69069   69072   69081   69099       1
   69885   69936   69960   69978       3   69879   69936   69960   69978       3
   69873   69927   69957   69975       3   69867   69927   69957   69975       3
   69861   69918   69954   69972       3   69855   69918   69954   69972       3
   69849   69912   69951   69969       3   69843   69912   69951   69969       3
   69840   69900   69948   69966       3   69834   69900   69948   69966       3
   69825   69891   69945   69963       3   69819   69891   69945   69963       3
   69816   69777   69813   69879       1   69816   69885  -69936   69879       1
   69816   69885   69936   69960       1   69813   69777   69816   69885       1
   69813   69879  -69936   69885       1   69813   69879   69936   69960       1
   69810   69774   69807   69867       1   69810   69873  -69927   69867       1
   69810   69873   69927   69957       1   69807   69774   69810   69873       1
   69807   69867  -69927   69873       1   69807   69867   69927   69957       1
   69804   69768   69801   69855       1   69804   69861  -69918   69855       1
   69804   69861   69918   69954       1   69801   69768   69804   69861       1
   69801   69855  -69918   69861       1   69801   69855   69918   69954       1
   69798   69765   69795   69843       1   69798   69849  -69912   69843       1
   69798   69849   69912   69951       1   69795   69765   69798   69849       1
   69795   69843  -69912   69849       1   69795   69843   69912   69951       1
   69792   69762   69789   69834       1   69792   69840  -69900   69834       1
   69792   69840   69900   69948       1   69789   69762   69792   69840       1
   69789   69834  -69900   69840       1   69789   69834   69900   69948       1
   69786   69759   69783   69819       1   69786   69825  -69891   69819       1
   69786   69825   69891   69945       1   69783   69759   69786   69825       1
   69783   69819  -69891   69825       1   69783   69819   69891   69945       1
   69777   69750   69774   69807       4   69777   69750   69774   69810       4
   69777   69813   69879   69936       1   69777   69816  -69885   69936       1
   69774   69750   69777   69813       4   69774   69750   69777   69816       4
   69774   69807   69867   69927       1   69774   69810  -69873   69927       1
   69768   69741   69765   69795       4   69768   69741   69765   69798       4
   69768   69801   69855   69918       1   69768   69804  -69861   69918       1
   69765   69741   69768   69801       4   69765   69741   69768   69804       4
   69765   69795   69843   69912       1   69765   69798  -69849   69912       1
   69762   69738   69759   69783       4   69762   69738   69759   69786       4
   69762   69789   69834   69900       1   69762   69792  -69840   69900       1
   69759   69738   69762   69789       4   69759   69738   69762   69792       4
   69759   69783   69819   69891       1   69759   69786  -69825   69891       1
   69753   69720   69750   69774       4   69753   69720   69750   69777       4
   69750   69774   69807   69867       1   69750   69774   69810   69873       1
   69750   69777   69813   69879       1   69750   69777   69816   69885       1
   69744   69708   69741   69765       4   69744   69708   69741   69768       4
   69741   69765   69795   69843       1   69741   69765   69798   69849       1
   69741   69768   69801   69855       1   69741   69768   69804   69861       1
   69738   69759   69783   69819       1   69738   69759   69786   69825       1
   69738   69762   69789   69834       1   69738   69762   69792   69840       1
   69723   69753   69720   69750       1   69720   69750   69774   69807       4
   69720   69750   69774   69810       4   69720   69750   69777   69813       4
   69720   69750   69777   69816       4   69714   69684   69690   69723       5
   69714   69744   69708   69741       1   69708   69741   69765   69795       4
   69708   69741   69765   69798       4   69708   69741   69768   69801       4
   69708   69741   69768   69804       4   69702   69738   69759   69783       4
   69702   69738   69759   69786       4   69702   69738   69762   69789       4
   69702   69738   69762   69792       4   69696   69702   69738   69759       4
   69696   69702   69738   69762       4   69690   69669   69687   69720       1
   69690   69684   69714   69744       1   69690   69723  -69753   69720       1
   69687   69669   69690   69723       1   69687   69720   69750   69774       4
   69687   69720   69750   69777       4   69687   69720  -69753   69723       1
   69684   69666   69681   69708       1   69684   69690   69669   69687       1
   69684   69690   69723   69753       1   69684   69714  -69744   69708       1
   69681   69666   69684   69690       1   69681   69666   69684   69714       1
   69681   69708   69741   69765       4   69681   69708   69741   69768       4
   69681   69708  -69744   69714       1   69678   69702   69738   69759       4
   69678   69702   69738   69762       4   69675   69660   69663   69678       1
   69675   69696  -69702   69678       1   69675   69696   69702   69738       1
   69669   69645   69663   69678       6   69669   69645   69666   69681       6
   69669   69645  -69666   69684       7   69669   69687   69720   69750       1
   69669   69687   69720   69753       1   69669   69690   69684   69714       5
   69669   69690  -69723   69753       1   69666   69645   69663   69678       6
   69666   69645   69669   69687       6   69666   69645  -69669   69690       7
   69666   69681   69708   69741       1   69666   69681   69708   69744       1
   69666   69684  -69690   69669       5   69666   69684   69690   69723       5
   69666   69684  -69714   69744       1   69663   69645   69666   69681       6
   69663   69645   69666   69684       7   69663   69645   69669   69687       6
   69663   69645   69669   69690       7   69663   69660   69675   69696       1
   69663   69678  -69702   69696       1   69663   69678   69702   69738       1
   69660   69663   69645   69666       7   69660   69663   69645   69669       7
   69660   69663   69678   69702       1   69660   69675  -69696   69702       1
   69645   69618  -69642   69660       1   69645   69663   69660   69675       1
   69645   69663   69678   69702       1   69645   69666   69681   69708       1
   69645   69666  -69684   69690       1   69645   69666   69684   69714       1
   69645   69669   69687   69720       1   69645   69669  -69690   69684       1
   69645   69669   69690   69723       1   69642   69618  -69645   69663       7
   69642   69618   69645   69666       7   69642   69618   69645   69669       7
   69642   69660  -69663   69645       1   69642   69660   69663   69678       1
   69642   69660   69675   69696       1   69636   69651   69672   69693       3
   69630   69651   69672   69693       3   69624   69642   69618   69645       1
   69624   69642   69660   69663       5   69624   69642   69660   69675       5
   69618   69642  -69660   69663       5   69618   69642   69660   69675       5
   69618   69645  -69663   69660       7   69618   69645   69663   69678       6
   69618   69645   69666   69681       6   69618   69645   69666   69684       7
   69618   69645   69669   69687       6   69618   69645   69669   69690       7
   69615   69603   69612   69630       1   69615   69636  -69651   69630       1
   69615   69636   69651   69672       1   69612   69603   69615   69636       1
   69612   69630  -69651   69636       1   69612   69630   69651   69672       1
   69609   69600   69606   69618       1   69609   69624  -69642   69618       1
   69609   69624   69642   69660       1   69606   69600   69609   69624       1
   69606   69618  -69642   69624       1   69606   69618   69642   69660       1
   69606   69618   69645   69663       6   69606   69618   69645   69666       6
   69606   69618   69645   69669       6   69603   69597   69600   69606       4
   69603   69597   69600   69609       4   69603   69612   69630   69651       1
   69603   69615  -69636   69651       1   69600   69597   69603   69612       4
   69600   69597   69603   69615       4   69600   69606   69618   69642       1
   69600   69606   69618   69645       1   69600   69609  -69624   69642       1
   69597   69600   69606   69618       1   69597   69600   69609   69624       1
   69597   69603   69612   69630       1   69597   69603   69615   69636       1
   69588   69597   69600   69606       4   69588   69597   69600   69609       4
   69588   69597   69603   69612       4   69588   69597   69603   69615       4
   69582   69588   69597   69600       4   69582   69588   69597   69603       4
   69576   69588   69597   69600       4   69576   69588   69597   69603       4
   69564   69555   69561   69576       1   69564   69582  -69588   69576       1
   69564   69582   69588   69597       1   69561   69555   69564   69582       1
   69561   69576  -69588   69582       1   69561   69576   69588   69597       1
   69558   69552   69555   69561       3   69558   69552   69555   69564       3
   69555   69561   69576   69588       1   69555   69564  -69582   69588       1
   69552   69555   69561   69576       1   69552   69555   69564   69582       1
   70368   70419   70443   70461       3   70362   70419   70443   70461       3
   70356   70410   70440   70458       3   70350   70410   70440   70458       3
   70344   70401   70437   70455       3   70338   70401   70437   70455       3
   70332   70395   70434   70452       3   70326   70395   70434   70452       3
   70323   70383   70431   70449       3   70317   70383   70431   70449       3
   70308   70374   70428   70446       3   70302   70374   70428   70446       3
   70299   70260   70296   70362       1   70299   70368  -70419   70362       1
   70299   70368   70419   70443       1   70296   70260   70299   70368       1
   70296   70362  -70419   70368       1   70296   70362   70419   70443       1
   70293   70257   70290   70350       1   70293   70356  -70410   70350       1
   70293   70356   70410   70440       1   70290   70257   70293   70356       1
   70290   70350  -70410   70356       1   70290   70350   70410   70440       1
   70287   70251   70284   70338       1   70287   70344  -70401   70338       1
   70287   70344   70401   70437       1   70284   70251   70287   70344       1
   70284   70338  -70401   70344       1   70284   70338   70401   70437       1
   70281   70248   70278   70326       1   70281   70332  -70395   70326       1
   70281   70332   70395   70434       1   70278   70248   70281   70332       1
   70278   70326  -70395   70332       1   70278   70326   70395   70434       1
   70275   70245   70272   70317       1   70275   70323  -70383   70317       1
   70275   70323   70383   70431       1   70272   70245   70275   70323       1
   70272   70317  -70383   70323       1   70272   70317   70383   70431       1
   70269   70242   70266   70302       1   70269   70308  -70374   70302       1
   70269   70308   70374   70428       1   70266   70242   70269   70308       1
   70266   70302  -70374   70308       1   70266   70302   70374   70428       1
   70260   70233   70257   70290       4   70260   70233   70257   70293       4
   70260   70296   70362   70419       1   70260   70299  -70368   70419       1
   70257   70233   70260   70296       4   70257   70233   70260   70299       4
   70257   70290   70350   70410       1   70257   70293  -70356   70410       1
   70251   70224   70248   70278       4   70251   70224   70248   70281       4
   70251   70284   70338   70401       1   70251   70287  -70344   70401       1
   70248   70224   70251   70284       4   70248   70224   70251   70287       4
   70248   70278   70326   70395       1   70248   70281  -70332   70395       1
   70245   70221   70242   70266       4   70245   70221   70242   70269       4
   70245   70272   70317   70383       1   70245   70275  -70323   70383       1
   70242   70221   70245   70272       4   70242   70221   70245   70275       4
   70242   70266   70302   70374       1   70242   70269  -70308   70374       1
   70236   70203   70233   70257       4   70236   70203   70233   70260       4
   70233   70257   70290   70350       1   70233   70257   70293   70356       1
   70233   70260   70296   70362       1   70233   70260   70299   70368       1
   70227   70191   70224   70248       4   70227   70191   70224   70251       4
   70224   70248   70278   70326       1   70224   70248   70281   70332       1
   70224   70251   70284   70338       1   70224   70251   70287   70344       1
   70221   70242   70266   70302       1   70221   70242   70269   70308       1
   70221   70245   70272   70317       1   70221   70245   70275   70323       1
   70206   70236   70203   70233       1   70203   70233   70257   70290       4
   70203   70233   70257   70293       4   70203   70233   70260   70296       4
   70203   70233   70260   70299       4   70197   70167   70173   70206       5
   70197   70227   70191   70224       1   70191   70224   70248   70278       4
   70191   70224   70248   70281       4   70191   70224   70251   70284       4
   70191   70224   70251   70287       4   70185   70221   70242   70266       4
   70185   70221   70242   70269       4   70185   70221   70245   70272       4
   70185   70221   70245   70275       4   70179   70185   70221   70242       4
   70179   70185   70221   70245       4   70173   70152   70170   70203       1
   70173   70167   70197   70227       1   70173   70206  -70236   70203       1
   70170   70152   70173   70206       1   70170   70203   70233   70257       4
   70170   70203   70233   70260       4   70170   70203  -70236   70206       1
   70167   70149   70164   70191       1   70167   70173   70152   70170       1
   70167   70173   70206   70236       1   70167   70197  -70227   70191       1
   70164   70149   70167   70173       1   70164   70149   70167   70197       1
   70164   70191   70224   70248       4   70164   70191   70224   70251       4
   70164   70191  -70227   70197       1   70161   70185   70221   70242       4
   70161   70185   70221   70245       4   70158   70143   70146   70161       1
   70158   70179  -70185   70161       1   70158   70179   70185   70221       1
   70152   70128   70146   70161       6   70152   70128   70149   70164       6
   70152   70128  -70149   70167       7   70152   70170   70203   70233       1
   70152   70170   70203   70236       1   70152   70173   70167   70197       5
   70152   70173  -70206   70236       1   70149   70128   70146   70161       6
   70149   70128   70152   70170       6   70149   70128  -70152   70173       7
   70149   70164   70191   70224       1   70149   70164   70191   70227       1
   70149   70167  -70173   70152       5   70149   70167   70173   70206       5
   70149   70167  -70197   70227       1   70146   70128   70149   70164       6
   70146   70128   70149   70167       7   70146   70128   70152   70170       6
   70146   70128   70152   70173       7   70146   70143   70158   70179       1
   70146   70161  -70185   70179       1   70146   70161   70185   70221       1
   70143   70146   70128   70149       7   70143   70146   70128   70152       7
   70143   70146   70161   70185       1   70143   70158  -70179   70185       1
   70128   70101  -70125   70143       1   70128   70146   70143   70158       1
   70128   70146   70161   70185       1   70128   70149   70164   70191       1
   70128   70149  -70167   70173       1   70128   70149   70167   70197       1
   70128   70152   70170   70203       1   70128   70152  -70173   70167       1
   70128   70152   70173   70206       1   70125   70101  -70128   70146       7
   70125   70101   70128   70149       7   70125   70101   70128   70152       7
   70125   70143  -70146   70128       1   70125   70143   70146   70161       1
   70125   70143   70158   70179       1   70119   70134   70155   70176       3
   70113   70134   70155   70176       3   70107   70125   70101   70128       1
   70107   70125   70143   70146       5   70107   70125   70143   70158       5
   70101   70125  -70143   70146       5   70101   70125   70143   70158       5
   70101   70128  -70146   70143       7   70101   70128   70146   70161       6
   70101   70128   70149   70164       6   70101   70128   70149   70167       7
   70101   70128   70152   70170       6   70101   70128   70152   70173       7
   70098   70086   70095   70113       1   70098   70119  -70134   70113       1
   70098   70119   70134   70155       1   70095   70086   70098   70119       1
   70095   70113  -70134   70119       1   70095   70113   70134   70155       1
   70092   70083   70089   70101       1   70092   70107  -70125   70101       1
   70092   70107   70125   70143       1   70089   70083   70092   70107       1
   70089   70101  -70125   70107       1   70089   70101   70125   70143       1
   70089   70101   70128   70146       6   70089   70101   70128   70149       6
   70089   70101   70128   70152       6   70086   70080   70083   70089       4
   70086   70080   70083   70092       4   70086   70095   70113   70134       1
   70086   70098  -70119   70134       1   70083   70080   70086   70095       4
   70083   70080   70086   70098       4   70083   70089   70101   70125       1
   70083   70089   70101   70128       1   70083   70092  -70107   70125       1
   70080   70083   70089   70101       1   70080   70083   70092   70107       1
   70080   70086   70095   70113       1   70080   70086   70098   70119       1
   70071   70080   70083   70089       4   70071   70080   70083   70092       4
   70071   70080   70086   70095       4   70071   70080   70086   70098       4
   70065   70071   70080   70083       4   70065   70071   70080   70086       4
   70059   70071   70080   70083       4   70059   70071   70080   70086       4
   70047   70038   70044   70059       1   70047   70065  -70071   70059       1
   70047   70065   70071   70080       1   70044   70038   70047   70065       1
   70044   70059  -70071   70065       1   70044   70059   70071   70080       1
   70041   70035   70038   70044       3   70041   70035   70038   70047       3
   70038   70044   70059   70071       1   70038   70047  -70065   70071       1
   70035   70038   70044   70059       1   70035   70038   70047   70065       1
   70851   70902   70926   70944       3   70845   70902   70926   70944       3
   70839   70893   70923   70941       3   70833   70893   70923   70941       3
   70827   70884   70920   70938       3   70821   70884   70920   70938       3
   70815   70878   70917   70935       3   70809   70878   70917   70935       3
   70806   70866   70914   70932       3   70800   70866   70914   70932       3
   70791   70857   70911   70929       3   70785   70857   70911   70929       3
   70782   70743   70779   70845       1   70782   70851  -70902   70845       1
   70782   70851   70902   70926       1   70779   70743   70782   70851       1
   70779   70845  -70902   70851       1   70779   70845   70902   70926       1
   70776   70740   70773   70833       1   70776   70839  -70893   70833       1
   70776   70839   70893   70923       1   70773   70740   70776   70839       1
   70773   70833  -70893   70839       1   70773   70833   70893   70923       1
   70770   70734   70767   70821       1   70770   70827  -70884   70821       1
   70770   70827   70884   70920       1   70767   70734   70770   70827       1
   70767   70821  -70884   70827       1   70767   70821   70884   70920       1
   70764   70731   70761   70809       1   70764   70815  -70878   70809       1
   70764   70815   70878   70917       1   70761   70731   70764   70815       1
   70761   70809  -70878   70815       1   70761   70809   70878   70917       1
   70758   70728   70755   70800       1   70758   70806  -70866   70800       1
   70758   70806   70866   70914       1   70755   70728   70758   70806       1
   70755   70800  -70866   70806       1   70755   70800   70866   70914       1
   70752   70725   70749   70785       1   70752   70791  -70857   70785       1
   70752   70791   70857   70911       1   70749   70725   70752   70791       1
   70749   70785  -70857   70791       1   70749   70785   70857   70911       1
   70743   70716   70740   70773       4   70743   70716   70740   70776       4
   70743   70779   70845   70902       1   70743   70782  -70851   70902       1
   70740   70716   70743   70779       4   70740   70716   70743   70782       4
   70740   70773   70833   70893       1   70740   70776  -70839   70893       1
   70734   70707   70731   70761       4   70734   70707   70731   70764       4
   70734   70767   70821   70884       1   70734   70770  -70827   70884       1
   70731   70707   70734   70767       4   70731   70707   70734   70770       4
   70731   70761   70809   70878       1   70731   70764  -70815   70878       1
   70728   70704   70725   70749       4   70728   70704   70725   70752       4
   70728   70755   70800   70866       1   70728   70758  -70806   70866       1
   70725   70704   70728   70755       4   70725   70704   70728   70758       4
   70725   70749   70785   70857       1   70725   70752  -70791   70857       1
   70719   70686   70716   70740       4   70719   70686   70716   70743       4
   70716   70740   70773   70833       1   70716   70740   70776   70839       1
   70716   70743   70779   70845       1   70716   70743   70782   70851       1
   70710   70674   70707   70731       4   70710   70674   70707   70734       4
   70707   70731   70761   70809       1   70707   70731   70764   70815       1
   70707   70734   70767   70821       1   70707   70734   70770   70827       1
   70704   70725   70749   70785       1   70704   70725   70752   70791       1
   70704   70728   70755   70800       1   70704   70728   70758   70806       1
   70689   70719   70686   70716       1   70686   70716   70740   70773       4
   70686   70716   70740   70776       4   70686   70716   70743   70779       4
   70686   70716   70743   70782       4   70680   70650   70656   70689       5
   70680   70710   70674   70707       1   70674   70707   70731   70761       4
   70674   70707   70731   70764       4   70674   70707   70734   70767       4
   70674   70707   70734   70770       4   70668   70704   70725   70749       4
   70668   70704   70725   70752       4   70668   70704   70728   70755       4
   70668   70704   70728   70758       4   70662   70668   70704   70725       4
   70662   70668   70704   70728       4   70656   70635   70653   70686       1
   70656   70650   70680   70710       1   70656   70689  -70719   70686       1
   70653   70635   70656   70689       1   70653   70686   70716   70740       4
   70653   70686   70716   70743       4   70653   70686  -70719   70689       1
   70650   70632   70647   70674       1   70650   70656   70635   70653       1
   70650   70656   70689   70719       1   70650   70680  -70710   70674       1
   70647   70632   70650   70656       1   70647   70632   70650   70680       1
   70647   70674   70707   70731       4   70647   70674   70707   70734       4
   70647   70674  -70710   70680       1   70644   70668   70704   70725       4
   70644   70668   70704   70728       4   70641   70626   70629   70644       1
   70641   70662  -70668   70644       1   70641   70662   70668   70704       1
   70635   70611   70629   70644       6   70635   70611   70632   70647       6
   70635   70611  -70632   70650       7   70635   70653   70686   70716       1
   70635   70653   70686   70719       1   70635   70656   70650   70680       5
   70635   70656  -70689   70719       1   70632   70611   70629   70644       6
   70632   70611   70635   70653       6   70632   70611  -70635   70656       7
   70632   70647   70674   70707       1   70632   70647   70674   70710       1
   70632   70650  -70656   70635       5   70632   70650   70656   70689       5
   70632   70650  -70680   70710       1   70629   70611   70632   70647       6
   70629   70611   70632   70650       7   70629   70611   70635   70653       6
   70629   70611   70635   70656       7   70629   70626   70641   70662       1
   70629   70644  -70668   70662       1   70629   70644   70668   70704       1
   70626   70629   70611   70632       7   70626   70629   70611   70635       7
   70626   70629   70644   70668       1   70626   70641  -70662   70668       1
   70611   70584  -70608   70626       1   70611   70629   70626   70641       1
   70611   70629   70644   70668       1   70611   70632   70647   70674       1
   70611   70632  -70650   70656       1   70611   70632   70650   70680       1
   70611   70635   70653   70686       1   70611   70635  -70656   70650       1
   70611   70635   70656   70689       1   70608   70584  -70611   70629       7
   70608   70584   70611   70632       7   70608   70584   70611   70635       7
   70608   70626  -70629   70611       1   70608   70626   70629   70644       1
   70608   70626   70641   70662       1   70602   70617   70638   70659       3
   70596   70617   70638   70659       3   70590   70608   70584   70611       1
   70590   70608   70626   70629       5   70590   70608   70626   70641       5
   70584   70608  -70626   70629       5   70584   70608   70626   70641       5
   70584   70611  -70629   70626       7   70584   70611   70629   70644       6
   70584   70611   70632   70647       6   70584   70611   70632   70650       7
   70584   70611   70635   70653       6   70584   70611   70635   70656       7
   70581   70569   70578   70596       1   70581   70602  -70617   70596       1
   70581   70602   70617   70638       1   70578   70569   70581   70602       1
   70578   70596  -70617   70602       1   70578   70596   70617   70638       1
   70575   70566   70572   70584       1   70575   70590  -70608   70584       1
   70575   70590   70608   70626       1   70572   70566   70575   70590       1
   70572   70584  -70608   70590       1   70572   70584   70608   70626       1
   70572   70584   70611   70629       6   70572   70584   70611   70632       6
   70572   70584   70611   70635       6   70569   70563   70566   70572       4
   70569   70563   70566   70575       4   70569   70578   70596   70617       1
   70569   70581  -70602   70617       1   70566   70563   70569   70578       4
   70566   70563   70569   70581       4   70566   70572   70584   70608       1
   70566   70572   70584   70611       1   70566   70575  -70590   70608       1
   70563   70566   70572   70584       1   70563   70566   70575   70590       1
   70563   70569   70578   70596       1   70563   70569   70581   70602       1
   70554   70563   70566   70572       4   70554   70563   70566   70575       4
   70554   70563   70569   70578       4   70554   70563   70569   70581       4
   70548   70554   70563   70566       4   70548   70554   70563   70569       4
   70542   70554   70563   70566       4   70542   70554   70563   70569       4
   70530   70521   70527   70542       1   70530   70548  -70554   70542       1
   70530   70548   70554   70563       1   70527   70521   70530   70548       1
   70527   70542  -70554   70548       1   70527   70542   70554   70563       1
   70524   70518   70521   70527       3   70524   70518   70521   70530       3
   70521   70527   70542   70554       1   70521   70530  -70548   70554       1
   70518   70521   70527   70542       1   70518   70521   70530   70548       1
   71334   71385   71409   71427       3   71328   71385   71409   71427       3
   71322   71376   71406   71424       3   71316   71376   71406   71424       3
   71310   71367   71403   71421       3   71304   71367   71403   71421       3
   71298   71361   71400   71418       3   71292   71361   71400   71418       3
   71289   71349   71397   71415       3   71283   71349   71397   71415       3
   71274   71340   71394   71412       3   71268   71340   71394   71412       3
   71265   71226   71262   71328       1   71265   71334  -71385   71328       1
   71265   71334   71385   71409       1   71262   71226   71265   71334       1
   71262   71328  -71385   71334       1   71262   71328   71385   71409       1
   71259   71223   71256   71316       1   71259   71322  -71376   71316       1
   71259   71322   71376   71406       1   71256   71223   71259   71322       1
   71256   71316  -71376   71322       1   71256   71316   71376   71406       1
   71253   71217   71250   71304       1   71253   71310  -71367   71304       1
   71253   71310   71367   71403       1   71250   71217   71253   71310       1
   71250   71304  -71367   71310       1   71250   71304   71367   71403       1
   71247   71214   71244   71292       1   71247   71298  -71361   71292       1
   71247   71298   71361   71400       1   71244   71214   71247   71298       1
   71244   71292  -71361   71298       1   71244   71292   71361   71400       1
   71241   71211   71238   71283       1   71241   71289  -71349   71283       1
   71241   71289   71349   71397       1   71238   71211   71241   71289       1
   71238   71283  -71349   71289       1   71238   71283   71349   71397       1
   71235   71208   71232   71268       1   71235   71274  -71340   71268       1
   71235   71274   71340   71394       1   71232   71208   71235   71274       1
   71232   71268  -71340   71274       1   71232   71268   71340   71394       1
   71226   71199   71223   71256       4   71226   71199   71223   71259       4
   71226   71262   71328   71385       1   71226   71265  -71334   71385       1
   71223   71199   71226   71262       4   71223   71199   71226   71265       4
   71223   71256   71316   71376       1   71223   71259  -71322   71376       1
   71217   71190   71214   71244       4   71217   71190   71214   71247       4
   71217   71250   71304   71367       1   71217   71253  -71310   71367       1
   71214   71190   71217   71250       4   71214   71190   71217   71253       4
   71214   71244   71292   71361       1   71214   71247  -71298   71361       1
   71211   71187   71208   71232       4   71211   71187   71208   71235       4
   71211   71238   71283   71349       1   71211   71241  -71289   71349       1
   71208   71187   71211   71238       4   71208   71187   71211   71241       4
   71208   71232   71268   71340       1   71208   71235  -71274   71340       1
   71202   71169   71199   71223       4   71202   71169   71199   71226       4
   71199   71223   71256   71316       1   71199   71223   71259   71322       1
   71199   71226   71262   71328       1   71199   71226   71265   71334       1
   71193   71157   71190   71214       4   71193   71157   71190   71217       4
   71190   71214   71244   71292       1   71190   71214   71247   71298       1
   71190   71217   71250   71304       1   71190   71217   71253   71310       1
   71187   71208   71232   71268       1   71187   71208   71235   71274       1
   71187   71211   71238   71283       1   71187   71211   71241   71289       1
   71172   71202   71169   71199       1   71169   71199   71223   71256       4
   71169   71199   71223   71259       4   71169   71199   71226   71262       4
   71169   71199   71226   71265       4   71163   71133   71139   71172       5
   71163   71193   71157   71190       1   71157   71190   71214   71244       4
   71157   71190   71214   71247       4   71157   71190   71217   71250       4
   71157   71190   71217   71253       4   71151   71187   71208   71232       4
   71151   71187   71208   71235       4   71151   71187   71211   71238       4
   71151   71187   71211   71241       4   71145   71151   71187   71208       4
   71145   71151   71187   71211       4   71139   71118   71136   71169       1
   71139   71133   71163   71193       1   71139   71172  -71202   71169       1
   71136   71118   71139   71172       1   71136   71169   71199   71223       4
   71136   71169   71199   71226       4   71136   71169  -71202   71172       1
   71133   71115   71130   71157       1   71133   71139   71118   71136       1
   71133   71139   71172   71202       1   71133   71163  -71193   71157       1
   71130   71115   71133   71139       1   71130   71115   71133   71163       1
   71130   71157   71190   71214       4   71130   71157   71190   71217       4
   71130   71157  -71193   71163       1   71127   71151   71187   71208       4
   71127   71151   71187   71211       4   71124   71109   71112   71127       1
   71124   71145  -71151   71127       1   71124   71145   71151   71187       1
   71118   71094   71112   71127       6   71118   71094   71115   71130       6
   71118   71094  -71115   71133       7   71118   71136   71169   71199       1
   71118   71136   71169   71202       1   71118   71139   71133   71163       5
   71118   71139  -71172   71202       1   71115   71094   71112   71127       6
   71115   71094   71118   71136       6   71115   71094  -71118   71139       7
   71115   71130   71157   71190       1   71115   71130   71157   71193       1
   71115   71133  -71139   71118       5   71115   71133   71139   71172       5
   71115   71133  -71163   71193       1   71112   71094   71115   71130       6
   71112   71094   71115   71133       7   71112   71094   71118   71136       6
   71112   71094   71118   71139       7   71112   71109   71124   71145       1
   71112   71127  -71151   71145       1   71112   71127   71151   71187       1
   71109   71112   71094   71115       7   71109   71112   71094   71118       7
   71109   71112   71127   71151       1   71109   71124  -71145   71151       1
   71094   71067  -71091   71109       1   71094   71112   71109   71124       1
   71094   71112   71127   71151       1   71094   71115   71130   71157       1
   71094   71115  -71133   71139       1   71094   71115   71133   71163       1
   71094   71118   71136   71169       1   71094   71118  -71139   71133       1
   71094   71118   71139   71172       1   71091   71067  -71094   71112       7
   71091   71067   71094   71115       7   71091   71067   71094   71118       7
   71091   71109  -71112   71094       1   71091   71109   71112   71127       1
   71091   71109   71124   71145       1   71085   71100   71121   71142       3
   71079   71100   71121   71142       3   71073   71091   71067   71094       1
   71073   71091   71109   71112       5   71073   71091   71109   71124       5
   71067   71091  -71109   71112       5   71067   71091   71109   71124       5
   71067   71094  -71112   71109       7   71067   71094   71112   71127       6
   71067   71094   71115   71130       6   71067   71094   71115   71133       7
   71067   71094   71118   71136       6   71067   71094   71118   71139       7
   71064   71052   71061   71079       1   71064   71085  -71100   71079       1
   71064   71085   71100   71121       1   71061   71052   71064   71085       1
   71061   71079  -71100   71085       1   71061   71079   71100   71121       1
   71058   71049   71055   71067       1   71058   71073  -71091   71067       1
   71058   71073   71091   71109       1   71055   71049   71058   71073       1
   71055   71067  -71091   71073       1   71055   71067   71091   71109       1
   71055   71067   71094   71112       6   71055   71067   71094   71115       6
   71055   71067   71094   71118       6   71052   71046   71049   71055       4
   71052   71046   71049   71058       4   71052   71061   71079   71100       1
   71052   71064  -71085   71100       1   71049   71046   71052   71061       4
   71049   71046   71052   71064       4   71049   71055   71067   71091       1
   71049   71055   71067   71094       1   71049   71058  -71073   71091       1
   71046   71049   71055   71067       1   71046   71049   71058   71073       1
   71046   71052   71061   71079       1   71046   71052   71064   71085       1
   71037   71046   71049   71055       4   71037   71046   71049   71058       4
   71037   71046   71052   71061       4   71037   71046   71052   71064       4
   71031   71037   71046   71049       4   71031   71037   71046   71052       4
   71025   71037   71046   71049       4   71025   71037   71046   71052       4
   71013   71004   71010   71025       1   71013   71031  -71037   71025       1
   71013   71031   71037   71046       1   71010   71004   71013   71031       1
   71010   71025  -71037   71031       1   71010   71025   71037   71046       1
   71007   71001   71004   71010       3   71007   71001   71004   71013       3
   71004   71010   71025   71037       1   71004   71013  -71031   71037       1
   71001   71004   71010   71025       1   71001   71004   71013   71031       1
   71817   71868   71892   71910       3   71811   71868   71892   71910       3
   71805   71859   71889   71907       3   71799   71859   71889   71907       3
   71793   71850   71886   71904       3   71787   71850   71886   71904       3
   71781   71844   71883   71901       3   71775   71844   71883   71901       3
   71772   71832   71880   71898       3   71766   71832   71880   71898       3
   71757   71823   71877   71895       3   71751   71823   71877   71895       3
   71748   71709   71745   71811       1   71748   71817  -71868   71811       1
   71748   71817   71868   71892       1   71745   71709   71748   71817       1
   71745   71811  -71868   71817       1   71745   71811   71868   71892       1
   71742   71706   71739   71799       1   71742   71805  -71859   71799       1
   71742   71805   71859   71889       1   71739   71706   71742   71805       1
   71739   71799  -71859   71805       1   71739   71799   71859   71889       1
   71736   71700   71733   71787       1   71736   71793  -71850   71787       1
   71736   71793   71850   71886       1   71733   71700   71736   71793       1
   71733   71787  -71850   71793       1   71733   71787   71850   71886       1
   71730   71697   71727   71775       1   71730   71781  -71844   71775       1
   71730   71781   71844   71883       1   71727   71697   71730   71781       1
   71727   71775  -71844   71781       1   71727   71775   71844   71883       1
   71724   71694   71721   71766       1   71724   71772  -71832   71766       1
   71724   71772   71832   71880       1   71721   71694   71724   71772       1
   71721   71766  -71832   71772       1   71721   71766   71832   71880       1
   71718   71691   71715   71751       1   71718   71757  -71823   71751       1
   71718   71757   71823   71877       1   71715   71691   71718   71757       1
   71715   71751  -71823   71757       1   71715   71751   71823   71877       1
   71709   71682   71706   71739       4   71709   71682   71706   71742       4
   71709   71745   71811   71868       1   71709   71748  -71817   71868       1
   71706   71682   71709   71745       4   71706   71682   71709   71748       4
   71706   71739   71799   71859       1   71706   71742  -71805   71859       1
   71700   71673   71697   71727       4   71700   71673   71697   71730       4
   71700   71733   71787   71850       1   71700   71736  -71793   71850       1
   71697   71673   71700   71733       4   71697   71673   71700   71736       4
   71697   71727   71775   71844       1   71697   71730  -71781   71844       1
   71694   71670   71691   71715       4   71694   71670   71691   71718       4
   71694   71721   71766   71832       1   71694   71724  -71772   71832       1
   71691   71670   71694   71721       4   71691   71670   71694   71724       4
   71691   71715   71751   71823       1   71691   71718  -71757   71823       1
   71685   71652   71682   71706       4   71685   71652   71682   71709       4
   71682   71706   71739   71799       1   71682   71706   71742   71805       1
   71682   71709   71745   71811       1   71682   71709   71748   71817       1
   71676   71640   71673   71697       4   71676   71640   71673   71700       4
   71673   71697   71727   71775       1   71673   71697   71730   71781       1
   71673   71700   71733   71787       1   71673   71700   71736   71793       1
   71670   71691   71715   71751       1   71670   71691   71718   71757       1
   71670   71694   71721   71766       1   71670   71694   71724   71772       1
   71655   71685   71652   71682       1   71652   71682   71706   71739       4
   71652   71682   71706   71742       4   71652   71682   71709   71745       4
   71652   71682   71709   71748       4   71646   71616   71622   71655       5
   71646   71676   71640   71673       1   71640   71673   71697   71727       4
   71640   71673   71697   71730       4   71640   71673   71700   71733       4
   71640   71673   71700   71736       4   71634   71670   71691   71715       4
   71634   71670   71691   71718       4   71634   71670   71694   71721       4
   71634   71670   71694   71724       4   71628   71634   71670   71691       4
   71628   71634   71670   71694       4   71622   71601   71619   71652       1
   71622   71616   71646   71676       1   71622   71655  -71685   71652       1
   71619   71601   71622   71655       1   71619   71652   71682   71706       4
   71619   71652   71682   71709       4   71619   71652  -71685   71655       1
   71616   71598   71613   71640       1   71616   71622   71601   71619       1
   71616   71622   71655   71685       1   71616   71646  -71676   71640       1
   71613   71598   71616   71622       1   71613   71598   71616   71646       1
   71613   71640   71673   71697       4   71613   71640   71673   71700       4
   71613   71640  -71676   71646       1   71610   71634   71670   71691       4
   71610   71634   71670   71694       4   71607   71592   71595   71610       1
   71607   71628  -71634   71610       1   71607   71628   71634   71670       1
   71601   71577   71595   71610       6   71601   71577   71598   71613       6
   71601   71577  -71598   71616       7   71601   71619   71652   71682       1
   71601   71619   71652   71685       1   71601   71622   71616   71646       5
   71601   71622  -71655   71685       1   71598   71577   71595   71610       6
   71598   71577   71601   71619       6   71598   71577  -71601   71622       7
   71598   71613   71640   71673       1   71598   71613   71640   71676       1
   71598   71616  -71622   71601       5   71598   71616   71622   71655       5
   71598   71616  -71646   71676       1   71595   71577   71598   71613       6
   71595   71577   71598   71616       7   71595   71577   71601   71619       6
   71595   71577   71601   71622       7   71595   71592   71607   71628       1
   71595   71610  -71634   71628       1   71595   71610   71634   71670       1
   71592   71595   71577   71598       7   71592   71595   71577   71601       7
   71592   71595   71610   71634       1   71592   71607  -71628   71634       1
   71577   71550  -71574   71592       1   71577   71595   71592   71607       1
   71577   71595   71610   71634       1   71577   71598   71613   71640       1
   71577   71598  -71616   71622       1   71577   71598   71616   71646       1
   71577   71601   71619   71652       1   71577   71601  -71622   71616       1
   71577   71601   71622   71655       1   71574   71550  -71577   71595       7
   71574   71550   71577   71598       7   71574   71550   71577   71601       7
   71574   71592  -71595   71577       1   71574   71592   71595   71610       1
   71574   71592   71607   71628       1   71568   71583   71604   71625       3
   71562   71583   71604   71625       3   71556   71574   71550   71577       1
   71556   71574   71592   71595       5   71556   71574   71592   71607       5
   71550   71574  -71592   71595       5   71550   71574   71592   71607       5
   71550   71577  -71595   71592       7   71550   71577   71595   71610       6
   71550   71577   71598   71613       6   71550   71577   71598   71616       7
   71550   71577   71601   71619       6   71550   71577   71601   71622       7
   71547   71535   71544   71562       1   71547   71568  -71583   71562       1
   71547   71568   71583   71604       1   71544   71535   71547   71568       1
   71544   71562  -71583   71568       1   71544   71562   71583   71604       1
   71541   71532   71538   71550       1   71541   71556  -71574   71550       1
   71541   71556   71574   71592       1   71538   71532   71541   71556       1
   71538   71550  -71574   71556       1   71538   71550   71574   71592       1
   71538   71550   71577   71595       6   71538   71550   71577   71598       6
   71538   71550   71577   71601       6   71535   71529   71532   71538       4
   71535   71529   71532   71541       4   71535   71544   71562   71583       1
   71535   71547  -71568   71583       1   71532   71529   71535   71544       4
   71532   71529   71535   71547       4   71532   71538   71550   71574       1
   71532   71538   71550   71577       1   71532   71541  -71556   71574       1
   71529   71532   71538   71550       1   71529   71532   71541   71556       1
   71529   71535   71544   71562       1   71529   71535   71547   71568       1
   71520   71529   71532   71538       4   71520   71529   71532   71541       4
   71520   71529   71535   71544       4   71520   71529   71535   71547       4
   71514   71520   71529   71532       4   71514   71520   71529   71535       4
   71508   71520   71529   71532       4   71508   71520   71529   71535       4
   71496   71487   71493   71508       1   71496   71514  -71520   71508       1
   71496   71514   71520   71529       1   71493   71487   71496   71514       1
   71493   71508  -71520   71514       1   71493   71508   71520   71529       1
   71490   71484   71487   71493       3   71490   71484   71487   71496       3
   71487   71493   71508   71520       1   71487   71496  -71514   71520       1
   71484   71487   71493   71508       1   71484   71487   71496   71514       1
   72300   72351   72375   72393       3   72294   72351   72375   72393       3
   72288   72342   72372   72390       3   72282   72342   72372   72390       3
   72276   72333   72369   72387       3   72270   72333   72369   72387       3
   72264   72327   72366   72384       3   72258   72327   72366   72384       3
   72255   72315   72363   72381       3   72249   72315   72363   72381       3
   72240   72306   72360   72378       3   72234   72306   72360   72378       3
   72231   72192   72228   72294       1   72231   72300  -72351   72294       1
   72231   72300   72351   72375       1   72228   72192   72231   72300       1
   72228   72294  -72351   72300       1   72228   72294   72351   72375       1
   72225   72189   72222   72282       1   72225   72288  -72342   72282       1
   72225   72288   72342   72372       1   72222   72189   72225   72288       1
   72222   72282  -72342   72288       1   72222   72282   72342   72372       1
   72219   72183   72216   72270       1   72219   72276  -72333   72270       1
   72219   72276   72333   72369       1   72216   72183   72219   72276       1
   72216   72270  -72333   72276       1   72216   72270   72333   72369       1
   72213   72180   72210   72258       1   72213   72264  -72327   72258       1
   72213   72264   72327   72366       1   72210   72180   72213   72264       1
   72210   72258  -72327   72264       1   72210   72258   72327   72366       1
   72207   72177   72204   72249       1   72207   72255  -72315   72249       1
   72207   72255   72315   72363       1   72204   72177   72207   72255       1
   72204   72249  -72315   72255       1   72204   72249   72315   72363       1
   72201   72174   72198   72234       1   72201   72240  -72306   72234       1
   72201   72240   72306   72360       1   72198   72174   72201   72240       1
   72198   72234  -72306   72240       1   72198   72234   72306   72360       1
   72192   72165   72189   72222       4   72192   72165   72189   72225       4
   72192   72228   72294   72351       1   72192   72231  -72300   72351       1
   72189   72165   72192   72228       4   72189   72165   72192   72231       4
   72189   72222   72282   72342       1   72189   72225  -72288   72342       1
   72183   72156   72180   72210       4   72183   72156   72180   72213       4
   72183   72216   72270   72333       1   72183   72219  -72276   72333       1
   72180   72156   72183   72216       4   72180   72156   72183   72219       4
   72180   72210   72258   72327       1   72180   72213  -72264   72327       1
   72177   72153   72174   72198       4   72177   72153   72174   72201       4
   72177   72204   72249   72315       1   72177   72207  -72255   72315       1
   72174   72153   72177   72204       4   72174   72153   72177   72207       4
   72174   72198   72234   72306       1   72174   72201  -72240   72306       1
   72168   72135   72165   72189       4   72168   72135   72165   72192       4
   72165   72189   72222   72282       1   72165   72189   72225   72288       1
   72165   72192   72228   72294       1   72165   72192   72231   72300       1
   72159   72123   72156   72180       4   72159   72123   72156   72183       4
   72156   72180   72210   72258       1   72156   72180   72213   72264       1
   72156   72183   72216   72270       1   72156   72183   72219   72276       1
   72153   72174   72198   72234       1   72153   72174   72201   72240       1
   72153   72177   72204   72249       1   72153   72177   72207   72255       1
   72138   72168   72135   72165       1   72135   72165   72189   72222       4
   72135   72165   72189   72225       4   72135   72165   72192   72228       4
   72135   72165   72192   72231       4   72129   72099   72105   72138       5
   72129   72159   72123   72156       1   72123   72156   72180   72210       4
   72123   72156   72180   72213       4   72123   72156   72183   72216       4
   72123   72156   72183   72219       4   72117   72153   72174   72198       4
   72117   72153   72174   72201       4   72117   72153   72177   72204       4
   72117   72153   72177   72207       4   72111   72117   72153   72174       4
   72111   72117   72153   72177       4   72105   72084   72102   72135       1
   72105   72099   72129   72159       1   72105   72138  -72168   72135       1
   72102   72084   72105   72138       1   72102   72135   72165   72189       4
   72102   72135   72165   72192       4   72102   72135  -72168   72138       1
   72099   72081   72096   72123       1   72099   72105   72084   72102       1
   72099   72105   72138   72168       1   72099   72129  -72159   72123       1
   72096   72081   72099   72105       1   72096   72081   72099   72129       1
   72096   72123   72156   72180       4   72096   72123   72156   72183       4
   72096   72123  -72159   72129       1   72093   72117   72153   72174       4
   72093   72117   72153   72177       4   72090   72075   72078   72093       1
   72090   72111  -72117   72093       1   72090   72111   72117   72153       1
   72084   72060   72078   72093       6   72084   72060   72081   72096       6
   72084   72060  -72081   72099       7   72084   72102   72135   72165       1
   72084   72102   72135   72168       1   72084   72105   72099   72129       5
   72084   72105  -72138   72168       1   72081   72060   72078   72093       6
   72081   72060   72084   72102       6   72081   72060  -72084   72105       7
   72081   72096   72123   72156       1   72081   72096   72123   72159       1
   72081   72099  -72105   72084       5   72081   72099   72105   72138       5
   72081   72099  -72129   72159       1   72078   72060   72081   72096       6
   72078   72060   72081   72099       7   72078   72060   72084   72102       6
   72078   72060   72084   72105       7   72078   72075   72090   72111       1
   72078   72093  -72117   72111       1   72078   72093   72117   72153       1
   72075   72078   72060   72081       7   72075   72078   72060   72084       7
   72075   72078   72093   72117       1   72075   72090  -72111   72117       1
   72060   72033  -72057   72075       1   72060   72078   72075   72090       1
   72060   72078   72093   72117       1   72060   72081   72096   72123       1
   72060   72081  -72099   72105       1   72060   72081   72099   72129       1
   72060   72084   72102   72135       1   72060   72084  -72105   72099       1
   72060   72084   72105   72138       1   72057   72033  -72060   72078       7
   72057   72033   72060   72081       7   72057   72033   72060   72084       7
   72057   72075  -72078   72060       1   72057   72075   72078   72093       1
   72057   72075   72090   72111       1   72051   72066   72087   72108       3
   72045   72066   72087   72108       3   72039   72057   72033   72060       1
   72039   72057   72075   72078       5   72039   72057   72075   72090       5
   72033   72057  -72075   72078       5   72033   72057   72075   72090       5
   72033   72060  -72078   72075       7   72033   72060   72078   72093       6
   72033   72060   72081   72096       6   72033   72060   72081   72099       7
   72033   72060   72084   72102       6   72033   72060   72084   72105       7
   72030   72018   72027   72045       1   72030   72051  -72066   72045       1
   72030   72051   72066   72087       1   72027   72018   72030   72051       1
   72027   72045  -72066   72051       1   72027   72045   72066   72087       1
   72024   72015   72021   72033       1   72024   72039  -72057   72033       1
   72024   72039   72057   72075       1   72021   72015   72024   72039       1
   72021   72033  -72057   72039       1   72021   72033   72057   72075       1
   72021   72033   72060   72078       6   72021   72033   72060   72081       6
   72021   72033   72060   72084       6   72018   72012   72015   72021       4
   72018   72012   72015   72024       4   72018   72027   72045   72066       1
   72018   72030  -72051   72066       1   72015   72012   72018   72027       4
   72015   72012   72018   72030       4   72015   72021   72033   72057       1
   72015   72021   72033   72060       1   72015   72024  -72039   72057       1
   72012   72015   72021   72033       1   72012   72015   72024   72039       1
   72012   72018   72027   72045       1   72012   72018   72030   72051       1
   72003   72012   72015   72021       4   72003   72012   72015   72024       4
   72003   72012   72018   72027       4   72003   72012   72018   72030       4
   71997   72003   72012   72015       4   71997   72003   72012   72018       4
   71991   72003   72012   72015       4   71991   72003   72012   72018       4
   71979   71970   71976   71991       1   71979   71997  -72003   71991       1
   71979   71997   72003   72012       1   71976   71970   71979   71997       1
   71976   71991  -72003   71997       1   71976   71991   72003   72012       1
   71973   71967   71970   71976       3   71973   71967   71970   71979       3
   71970   71976   71991   72003       1   71970   71979  -71997   72003       1
   71967   71970   71976   71991       1   71967   71970   71979   71997       1
     327     333    -384    -408       8     315     321    -375    -405       8
     303     309    -366    -402       8     291     297    -360    -399       8
     282     288    -348    -396       8     267     273    -339    -393       8
     261     264    -225    -198       8     255     258    -222    -198       8
     249     252    -216    -189       8     243     246    -213    -189       8
     237     240    -210    -186       8     231     234    -207    -186       8
     168     222    -198    -225       8     156     213    -189    -216       8
     150     207    -186    -210       8     135     201    -168    -198       8
     129     192    -156    -189       8     126     144    -150    -186       8
     117     171    -138    -132       8     114     162    -132    -138       8
      93     135    -117    -138       8      93     129    -114    -132       8
      93     126    -111    -108       8     111     123    -108     -90       8
      78      84     -99    -120       8      66      72     -90    -108       8
      93      54     -66     -90       8      60      63     -51     -45       8
      54      57     -48     -45       8      36      48     -45     -51       8
      24      30     -36     -45       8       0       3     -12      -9       8
     810     816    -867    -891       8     798     804    -858    -888       8
     786     792    -849    -885       8     774     780    -843    -882       8
     765     771    -831    -879       8     750     756    -822    -876       8
     744     747    -708    -681       8     738     741    -705    -681       8
     732     735    -699    -672       8     726     729    -696    -672       8
     720     723    -693    -669       8     714     717    -690    -669       8
     651     705    -681    -708       8     639     696    -672    -699       8
     633     690    -669    -693       8     618     684    -651    -681       8
     612     675    -639    -672       8     609     627    -633    -669       8
     600     654    -621    -615       8     597     645    -615    -621       8
     576     618    -600    -621       8     576     612    -597    -615       8
     576     609    -594    -591       8     594     606    -591    -573       8
     561     567    -582    -603       8     549     555    -573    -591       8
     576     537    -549    -573       8     543     546    -534    -528       8
     537     540    -531    -528       8     519     531    -528    -534       8
     507     513    -519    -528       8     492     495    -486    -483       8
    1293    1299   -1350   -1374       8    1281    1287   -1341   -1371       8
    1269    1275   -1332   -1368       8    1257    1263   -1326   -1365       8
    1248    1254   -1314   -1362       8    1233    1239   -1305   -1359       8
    1227    1230   -1191   -1164       8    1221    1224   -1188   -1164       8
    1215    1218   -1182   -1155       8    1209    1212   -1179   -1155       8
    1203    1206   -1176   -1152       8    1197    1200   -1173   -1152       8
    1134    1188   -1164   -1191       8    1122    1179   -1155   -1182       8
    1116    1173   -1152   -1176       8    1101    1167   -1134   -1164       8
    1095    1158   -1122   -1155       8    1092    1110   -1116   -1152       8
    1083    1137   -1104   -1098       8    1080    1128   -1098   -1104       8
    1059    1101   -1083   -1104       8    1059    1095   -1080   -1098       8
    1059    1092   -1077   -1074       8    1077    1089   -1074   -1056       8
    1044    1050   -1065   -1086       8    1032    1038   -1056   -1074       8
    1059    1020   -1032   -1056       8    1026    1029   -1017   -1011       8
    1020    1023   -1014   -1011       8    1002    1014   -1011   -1017       8
     990     996   -1002   -1011       8     975     978    -969    -966       8
    1776    1782   -1833   -1857       8    1764    1770   -1824   -1854       8
    1752    1758   -1815   -1851       8    1740    1746   -1809   -1848       8
    1731    1737   -1797   -1845       8    1716    1722   -1788   -1842       8
    1710    1713   -1674   -1647       8    1704    1707   -1671   -1647       8
    1698    1701   -1665   -1638       8    1692    1695   -1662   -1638       8
    1686    1689   -1659   -1635       8    1680    1683   -1656   -1635       8
    1617    1671   -1647   -1674       8    1605    1662   -1638   -1665       8
    1599    1656   -1635   -1659       8    1584    1650   -1617   -1647       8
    1578    1641   -1605   -1638       8    1575    1593   -1599   -1635       8
    1566    1620   -1587   -1581       8    1563    1611   -1581   -1587       8
    1542    1584   -1566   -1587       8    1542    1578   -1563   -1581       8
    1542    1575   -1560   -1557       8    1560    1572   -1557   -1539       8
    1527    1533   -1548   -1569       8    1515    1521   -1539   -1557       8
    1542    1503   -1515   -1539       8    1509    1512   -1500   -1494       8
    1503    1506   -1497   -1494       8    1485    1497   -1494   -1500       8
    1473    1479   -1485   -1494       8    1458    1461   -1452   -1449       8
    2259    2265   -2316   -2340       8    2247    2253   -2307   -2337       8
    2235    2241   -2298   -2334       8    2223    2229   -2292   -2331       8
    2214    2220   -2280   -2328       8    2199    2205   -2271   -2325       8
    2193    2196   -2157   -2130       8    2187    2190   -2154   -2130       8
    2181    2184   -2148   -2121       8    2175    2178   -2145   -2121       8
    2169    2172   -2142   -2118       8    2163    2166   -2139   -2118       8
    2100    2154   -2130   -2157       8    2088    2145   -2121   -2148       8
    2082    2139   -2118   -2142       8    2067    2133   -2100   -2130       8
    2061    2124   -2088   -2121       8    2058    2076   -2082   -2118       8
    2049    2103   -2070   -2064       8    2046    2094   -2064   -2070       8
    2025    2067   -2049   -2070       8    2025    2061   -2046   -2064       8
    2025    2058   -2043   -2040       8    2043    2055   -2040   -2022       8
    2010    2016   -2031   -2052       8    1998    2004   -2022   -2040       8
    2025    1986   -1998   -2022       8    1992    1995   -1983   -1977       8
    1986    1989   -1980   -1977       8    1968    1980   -1977   -1983       8
    1956    1962   -1968   -1977       8    1941    1944   -1935   -1932       8
    2742    2748   -2799   -2823       8    2730    2736   -2790   -2820       8
    2718    2724   -2781   -2817       8    2706    2712   -2775   -2814       8
    2697    2703   -2763   -2811       8    2682    2688   -2754   -2808       8
    2676    2679   -2640   -2613       8    2670    2673   -2637   -2613       8
    2664    2667   -2631   -2604       8    2658    2661   -2628   -2604       8
    2652    2655   -2625   -2601       8    2646    2649   -2622   -2601       8
    2583    2637   -2613   -2640       8    2571    2628   -2604   -2631       8
    2565    2622   -2601   -2625       8    2550    2616   -2583   -2613       8
    2544    2607   -2571   -2604       8    2541    2559   -2565   -2601       8
    2532    2586   -2553   -2547       8    2529    2577   -2547   -2553       8
    2508    2550   -2532   -2553       8    2508    2544   -2529   -2547       8
    2508    2541   -2526   -2523       8    2526    2538   -2523   -2505       8
    2493    2499   -2514   -2535       8    2481    2487   -2505   -2523       8
    2508    2469   -2481   -2505       8    2475    2478   -2466   -2460       8
    2469    2472   -2463   -2460       8    2451    2463   -2460   -2466       8
    2439    2445   -2451   -2460       8    2424    2427   -2418   -2415       8
    3225    3231   -3282   -3306       8    3213    3219   -3273   -3303       8
    3201    3207   -3264   -3300       8    3189    3195   -3258   -3297       8
    3180    3186   -3246   -3294       8    3165    3171   -3237   -3291       8
    3159    3162   -3123   -3096       8    3153    3156   -3120   -3096       8
    3147    3150   -3114   -3087       8    3141    3144   -3111   -3087       8
    3135    3138   -3108   -3084       8    3129    3132   -3105   -3084       8
    3066    3120   -3096   -3123       8    3054    3111   -3087   -3114       8
    3048    3105   -3084   -3108       8    3033    3099   -3066   -3096       8
    3027    3090   -3054   -3087       8    3024    3042   -3048   -3084       8
    3015    3069   -3036   -3030       8    3012    3060   -3030   -3036       8
    2991    3033   -3015   -3036       8    2991    3027   -3012   -3030       8
    2991    3024   -3009   -3006       8    3009    3021   -3006   -2988       8
    2976    2982   -2997   -3018       8    2964    2970   -2988   -3006       8
    2991    2952   -2964   -2988       8    2958    2961   -2949   -2943       8
    2952    2955   -2946   -2943       8    2934    2946   -2943   -2949       8
    2922    2928   -2934   -2943       8    2907    2910   -2901   -2898       8
    3708    3714   -3765   -3789       8    3696    3702   -3756   -3786       8
    3684    3690   -3747   -3783       8    3672    3678   -3741   -3780       8
    3663    3669   -3729   -3777       8    3648    3654   -3720   -3774       8
    3642    3645   -3606   -3579       8    3636    3639   -3603   -3579       8
    3630    3633   -3597   -3570       8    3624    3627   -3594   -3570       8
    3618    3621   -3591   -3567       8    3612    3615   -3588   -3567       8
    3549    3603   -3579   -3606       8    3537    3594   -3570   -3597       8
    3531    3588   -3567   -3591       8    3516    3582   -3549   -3579       8
    3510    3573   -3537   -3570       8    3507    3525   -3531   -3567       8
    3498    3552   -3519   -3513       8    3495    3543   -3513   -3519       8
    3474    3516   -3498   -3519       8    3474    3510   -3495   -3513       8
    3474    3507   -3492   -3489       8    3492    3504   -3489   -3471       8
    3459    3465   -3480   -3501       8    3447    3453   -3471   -3489       8
    3474    3435   -3447   -3471       8    3441    3444   -3432   -3426       8
    3435    3438   -3429   -3426       8    3417    3429   -3426   -3432       8
    3405    3411   -3417   -3426       8    3390    3393   -3384   -3381       8
    4191    4197   -4248   -4272       8    4179    4185   -4239   -4269       8
    4167    4173   -4230   -4266       8    4155    4161   -4224   -4263       8
    4146    4152   -4212   -4260       8    4131    4137   -4203   -4257       8
    4125    4128   -4089   -4062       8    4119    4122   -4086   -4062       8
    4113    4116   -4080   -4053       8    4107    4110   -4077   -4053       8
    4101    4104   -4074   -4050       8    4095    4098   -4071   -4050       8
    4032    4086   -4062   -4089       8    4020    4077   -4053   -4080       8
    4014    4071   -4050   -4074       8    3999    4065   -4032   -4062       8
    3993    4056   -4020   -4053       8    3990    4008   -4014   -4050       8
    3981    4035   -4002   -3996       8    3978    4026   -3996   -4002       8
    3957    3999   -3981   -4002       8    3957    3993   -3978   -3996       8
    3957    3990   -3975   -3972       8    3975    3987   -3972   -3954       8
    3942    3948   -3963   -3984       8    3930    3936   -3954   -3972       8
    3957    3918   -3930   -3954       8    3924    3927   -3915   -3909       8
    3918    3921   -3912   -3909       8    3900    3912   -3909   -3915       8
    3888    3894   -3900   -3909       8    3873    3876   -3867   -3864       8
    4674    4680   -4731   -4755       8    4662    4668   -4722   -4752       8
    4650    4656   -4713   -4749       8    4638    4644   -4707   -4746       8
    4629    4635   -4695   -4743       8    4614    4620   -4686   -4740       8
    4608    4611   -4572   -4545       8    4602    4605   -4569   -4545       8
    4596    4599   -4563   -4536       8    4590    4593   -4560   -4536       8
    4584    4587   -4557   -4533       8    4578    4581   -4554   -4533       8
    4515    4569   -4545   -4572       8    4503    4560   -4536   -4563       8
    4497    4554   -4533   -4557       8    4482    4548   -4515   -4545       8
    4476    4539   -4503   -4536       8    4473    4491   -4497   -4533       8
    4464    4518   -4485   -4479       8    4461    4509   -4479   -4485       8
    4440    4482   -4464   -4485       8    4440    4476   -4461   -4479       8
    4440    4473   -4458   -4455       8    4458    4470   -4455   -4437       8
    4425    4431   -4446   -4467       8    4413    4419   -4437   -4455       8
    4440    4401   -4413   -4437       8    4407    4410   -4398   -4392       8
    4401    4404   -4395   -4392       8    4383    4395   -4392   -4398       8
    4371    4377   -4383   -4392       8    4356    4359   -4350   -4347       8
    5157    5163   -5214   -5238       8    5145    5151   -5205   -5235       8
    5133    5139   -5196   -5232       8    5121    5127   -5190   -5229       8
    5112    5118   -5178   -5226       8    5097    5103   -5169   -5223       8
    5091    5094   -5055   -5028       8    5085    5088   -5052   -5028       8
    5079    5082   -5046   -5019       8    5073    5076   -5043   -5019       8
    5067    5070   -5040   -5016       8    5061    5064   -5037   -5016       8
    4998    5052   -5028   -5055       8    4986    5043   -5019   -5046       8
    4980    5037   -5016   -5040       8    4965    5031   -4998   -5028       8
    4959    5022   -4986   -5019       8    4956    4974   -4980   -5016       8
    4947    5001   -4968   -4962       8    4944    4992   -4962   -4968       8
    4923    4965   -4947   -4968       8    4923    4959   -4944   -4962       8
    4923    4956   -4941   -4938       8    4941    4953   -4938   -4920       8
    4908    4914   -4929   -4950       8    4896    4902   -4920   -4938       8
    4923    4884   -4896   -4920       8    4890    4893   -4881   -4875       8
    4884    4887   -4878   -4875       8    4866    4878   -4875   -4881       8
    4854    4860   -4866   -4875       8    4839    4842   -4833   -4830       8
    5640    5646   -5697   -5721       8    5628    5634   -5688   -5718       8
    5616    5622   -5679   -5715       8    5604    5610   -5673   -5712       8
    5595    5601   -5661   -5709       8    5580    5586   -5652   -5706       8
    5574    5577   -5538   -5511       8    5568    5571   -5535   -5511       8
    5562    5565   -5529   -5502       8    5556    5559   -5526   -5502       8
    5550    5553   -5523   -5499       8    5544    5547   -5520   -5499       8
    5481    5535   -5511   -5538       8    5469    5526   -5502   -5529       8
    5463    5520   -5499   -5523       8    5448    5514   -5481   -5511       8
    5442    5505   -5469   -5502       8    5439    5457   -5463   -5499       8
    5430    5484   -5451   -5445       8    5427    5475   -5445   -5451       8
    5406    5448   -5430   -5451       8    5406    5442   -5427   -5445       8
    5406    5439   -5424   -5421       8    5424    5436   -5421   -5403       8
    5391    5397   -5412   -5433       8    5379    5385   -5403   -5421       8
    5406    5367   -5379   -5403       8    5373    5376   -5364   -5358       8
    5367    5370   -5361   -5358       8    5349    5361   -5358   -5364       8
    5337    5343   -5349   -5358       8    5322    5325   -5316   -5313       8
    6123    6129   -6180   -6204       8    6111    6117   -6171   -6201       8
    6099    6105   -6162   -6198       8    6087    6093   -6156   -6195       8
    6078    6084   -6144   -6192       8    6063    6069   -6135   -6189       8
    6057    6060   -6021   -5994       8    6051    6054   -6018   -5994       8
    6045    6048   -6012   -5985       8    6039    6042   -6009   -5985       8
    6033    6036   -6006   -5982       8    6027    6030   -6003   -5982       8
    5964    6018   -5994   -6021       8    5952    6009   -5985   -6012       8
    5946    6003   -5982   -6006       8    5931    5997   -5964   -5994       8
    5925    5988   -5952   -5985       8    5922    5940   -5946   -5982       8
    5913    5967   -5934   -5928       8    5910    5958   -5928   -5934       8
    5889    5931   -5913   -5934       8    5889    5925   -5910   -5928       8
    5889    5922   -5907   -5904       8    5907    5919   -5904   -5886       8
    5874    5880   -5895   -5916       8    5862    5868   -5886   -5904       8
    5889    5850   -5862   -5886       8    5856    5859   -5847   -5841       8
    5850    5853   -5844   -5841       8    5832    5844   -5841   -5847       8
    5820    5826   -5832   -5841       8    5805    5808   -5799   -5796       8
    6606    6612   -6663   -6687       8    6594    6600   -6654   -6684       8
    6582    6588   -6645   -6681       8    6570    6576   -6639   -6678       8
    6561    6567   -6627   -6675       8    6546    6552   -6618   -6672       8
    6540    6543   -6504   -6477       8    6534    6537   -6501   -6477       8
    6528    6531   -6495   -6468       8    6522    6525   -6492   -6468       8
    6516    6519   -6489   -6465       8    6510    6513   -6486   -6465       8
    6447    6501   -6477   -6504       8    6435    6492   -6468   -6495       8
    6429    6486   -6465   -6489       8    6414    6480   -6447   -6477       8
    6408    6471   -6435   -6468       8    6405    6423   -6429   -6465       8
    6396    6450   -6417   -6411       8    6393    6441   -6411   -6417       8
    6372    6414   -6396   -6417       8    6372    6408   -6393   -6411       8
    6372    6405   -6390   -6387       8    6390    6402   -6387   -6369       8
    6357    6363   -6378   -6399       8    6345    6351   -6369   -6387       8
    6372    6333   -6345   -6369       8    6339    6342   -6330   -6324       8
    6333    6336   -6327   -6324       8    6315    6327   -6324   -6330       8
    6303    6309   -6315   -6324       8    6288    6291   -6282   -6279       8
    7089    7095   -7146   -7170       8    7077    7083   -7137   -7167       8
    7065    7071   -7128   -7164       8    7053    7059   -7122   -7161       8
    7044    7050   -7110   -7158       8    7029    7035   -7101   -7155       8
    7023    7026   -6987   -6960       8    7017    7020   -6984   -6960       8
    7011    7014   -6978   -6951       8    7005    7008   -6975   -6951       8
    6999    7002   -6972   -6948       8    6993    6996   -6969   -6948       8
    6930    6984   -6960   -6987       8    6918    6975   -6951   -6978       8
    6912    6969   -6948   -6972       8    6897    6963   -6930   -6960       8
    6891    6954   -6918   -6951       8    6888    6906   -6912   -6948       8
    6879    6933   -6900   -6894       8    6876    6924   -6894   -6900       8
    6855    6897   -6879   -6900       8    6855    6891   -6876   -6894       8
    6855    6888   -6873   -6870       8    6873    6885   -6870   -6852       8
    6840    6846   -6861   -6882       8    6828    6834   -6852   -6870       8
    6855    6816   -6828   -6852       8    6822    6825   -6813   -6807       8
    6816    6819   -6810   -6807       8    6798    6810   -6807   -6813       8
    6786    6792   -6798   -6807       8    6771    6774   -6765   -6762       8
    7572    7578   -7629   -7653       8    7560    7566   -7620   -7650       8
    7548    7554   -7611   -7647       8    7536    7542   -7605   -7644       8
    7527    7533   -7593   -7641       8    7512    7518   -7584   -7638       8
    7506    7509   -7470   -7443       8    7500    7503   -7467   -7443       8
    7494    7497   -7461   -7434       8    7488    7491   -7458   -7434       8
    7482    7485   -7455   -7431       8    7476    7479   -7452   -7431       8
    7413    7467   -7443   -7470       8    7401    7458   -7434   -7461       8
    7395    7452   -7431   -7455       8    7380    7446   -7413   -7443       8
    7374    7437   -7401   -7434       8    7371    7389   -7395   -7431       8
    7362    7416   -7383   -7377       8    7359    7407   -7377   -7383       8
    7338    7380   -7362   -7383       8    7338    7374   -7359   -7377       8
    7338    7371   -7356   -7353       8    7356    7368   -7353   -7335       8
    7323    7329   -7344   -7365       8    7311    7317   -7335   -7353       8
    7338    7299   -7311   -7335       8    7305    7308   -7296   -7290       8
    7299    7302   -7293   -7290       8    7281    7293   -7290   -7296       8
    7269    7275   -7281   -7290       8    7254    7257   -7248   -7245       8
    8055    8061   -8112   -8136       8    8043    8049   -8103   -8133       8
    8031    8037   -8094   -8130       8    8019    8025   -8088   -8127       8
    8010    8016   -8076   -8124       8    7995    8001   -8067   -8121       8
    7989    7992   -7953   -7926       8    7983    7986   -7950   -7926       8
    7977    7980   -7944   -7917       8    7971    7974   -7941   -7917       8
    7965    7968   -7938   -7914       8    7959    7962   -7935   -7914       8
    7896    7950   -7926   -7953       8    7884    7941   -7917   -7944       8
    7878    7935   -7914   -7938       8    7863    7929   -7896   -7926       8
    7857    7920   -7884   -7917       8    7854    7872   -7878   -7914       8
    7845    7899   -7866   -7860       8    7842    7890   -7860   -7866       8
    7821    7863   -7845   -7866       8    7821    7857   -7842   -7860       8
    7821    7854   -7839   -7836       8    7839    7851   -7836   -7818       8
    7806    7812   -7827   -7848       8    7794    7800   -7818   -7836       8
    7821    7782   -7794   -7818       8    7788    7791   -7779   -7773       8
    7782    7785   -7776   -7773       8    7764    7776   -7773   -7779       8
    7752    7758   -7764   -7773       8    7737    7740   -7731   -7728       8
    8538    8544   -8595   -8619       8    8526    8532   -8586   -8616       8
    8514    8520   -8577   -8613       8    8502    8508   -8571   -8610       8
    8493    8499   -8559   -8607       8    8478    8484   -8550   -8604       8
    8472    8475   -8436   -8409       8    8466    8469   -8433   -8409       8
    8460    8463   -8427   -8400       8    8454    8457   -8424   -8400       8
    8448    8451   -8421   -8397       8    8442    8445   -8418   -8397       8
    8379    8433   -8409   -8436       8    8367    8424   -8400   -8427       8
    8361    8418   -8397   -8421       8    8346    8412   -8379   -8409       8
    8340    8403   -8367   -8400       8    8337    8355   -8361   -8397       8
    8328    8382   -8349   -8343       8    8325    8373   -8343   -8349       8
    8304    8346   -8328   -8349       8    8304    8340   -8325   -8343       8
    8304    8337   -8322   -8319       8    8322    8334   -8319   -8301       8
    8289    8295   -8310   -8331       8    8277    8283   -8301   -8319       8
    8304    8265   -8277   -8301       8    8271    8274   -8262   -8256       8
    8265    8268   -8259   -8256       8    8247    8259   -8256   -8262       8
    8235    8241   -8247   -8256       8    8220    8223   -8214   -8211       8
    9021    9027   -9078   -9102       8    9009    9015   -9069   -9099       8
    8997    9003   -9060   -9096       8    8985    8991   -9054   -9093       8
    8976    8982   -9042   -9090       8    8961    8967   -9033   -9087       8
    8955    8958   -8919   -8892       8    8949    8952   -8916   -8892       8
    8943    8946   -8910   -8883       8    8937    8940   -8907   -8883       8
    8931    8934   -8904   -8880       8    8925    8928   -8901   -8880       8
    8862    8916   -8892   -8919       8    8850    8907   -8883   -8910       8
    8844    8901   -8880   -8904       8    8829    8895   -8862   -8892       8
    8823    8886   -8850   -8883       8    8820    8838   -8844   -8880       8
    8811    8865   -8832   -8826       8    8808    8856   -8826   -8832       8
    8787    8829   -8811   -8832       8    8787    8823   -8808   -8826       8
    8787    8820   -8805   -8802       8    8805    8817   -8802   -8784       8
    8772    8778   -8793   -8814       8    8760    8766   -8784   -8802       8
    8787    8748   -8760   -8784       8    8754    8757   -8745   -8739       8
    8748    8751   -8742   -8739       8    8730    8742   -8739   -8745       8
    8718    8724   -8730   -8739       8    8703    8706   -8697   -8694       8
    9504    9510   -9561   -9585       8    9492    9498   -9552   -9582       8
    9480    9486   -9543   -9579       8    9468    9474   -9537   -9576       8
    9459    9465   -9525   -9573       8    9444    9450   -9516   -9570       8
    9438    9441   -9402   -9375       8    9432    9435   -9399   -9375       8
    9426    9429   -9393   -9366       8    9420    9423   -9390   -9366       8
    9414    9417   -9387   -9363       8    9408    9411   -9384   -9363       8
    9345    9399   -9375   -9402       8    9333    9390   -9366   -9393       8
    9327    9384   -9363   -9387       8    9312    9378   -9345   -9375       8
    9306    9369   -9333   -9366       8    9303    9321   -9327   -9363       8
    9294    9348   -9315   -9309       8    9291    9339   -9309   -9315       8
    9270    9312   -9294   -9315       8    9270    9306   -9291   -9309       8
    9270    9303   -9288   -9285       8    9288    9300   -9285   -9267       8
    9255    9261   -9276   -9297       8    9243    9249   -9267   -9285       8
    9270    9231   -9243   -9267       8    9237    9240   -9228   -9222       8
    9231    9234   -9225   -9222       8    9213    9225   -9222   -9228       8
    9201    9207   -9213   -9222       8    9186    9189   -9180   -9177       8
    9987    9993  -10044  -10068       8    9975    9981  -10035  -10065       8
    9963    9969  -10026  -10062       8    9951    9957  -10020  -10059       8
    9942    9948  -10008  -10056       8    9927    9933   -9999  -10053       8
    9921    9924   -9885   -9858       8    9915    9918   -9882   -9858       8
    9909    9912   -9876   -9849       8    9903    9906   -9873   -9849       8
    9897    9900   -9870   -9846       8    9891    9894   -9867   -9846       8
    9828    9882   -9858   -9885       8    9816    9873   -9849   -9876       8
    9810    9867   -9846   -9870       8    9795    9861   -9828   -9858       8
    9789    9852   -9816   -9849       8    9786    9804   -9810   -9846       8
    9777    9831   -9798   -9792       8    9774    9822   -9792   -9798       8
    9753    9795   -9777   -9798       8    9753    9789   -9774   -9792       8
    9753    9786   -9771   -9768       8    9771    9783   -9768   -9750       8
    9738    9744   -9759   -9780       8    9726    9732   -9750   -9768       8
    9753    9714   -9726   -9750       8    9720    9723   -9711   -9705       8
    9714    9717   -9708   -9705       8    9696    9708   -9705   -9711       8
    9684    9690   -9696   -9705       8    9669    9672   -9663   -9660       8
   10470   10476  -10527  -10551       8   10458   10464  -10518  -10548       8
   10446   10452  -10509  -10545       8   10434   10440  -10503  -10542       8
   10425   10431  -10491  -10539       8   10410   10416  -10482  -10536       8
   10404   10407  -10368  -10341       8   10398   10401  -10365  -10341       8
   10392   10395  -10359  -10332       8   10386   10389  -10356  -10332       8
   10380   10383  -10353  -10329       8   10374   10377  -10350  -10329       8
   10311   10365  -10341  -10368       8   10299   10356  -10332  -10359       8
   10293   10350  -10329  -10353       8   10278   10344  -10311  -10341       8
   10272   10335  -10299  -10332       8   10269   10287  -10293  -10329       8
   10260   10314  -10281  -10275       8   10257   10305  -10275  -10281       8
   10236   10278  -10260  -10281       8   10236   10272  -10257  -10275       8
   10236   10269  -10254  -10251       8   10254   10266  -10251  -10233       8
   10221   10227  -10242  -10263       8   10209   10215  -10233  -10251       8
   10236   10197  -10209  -10233       8   10203   10206  -10194  -10188       8
   10197   10200  -10191  -10188       8   10179   10191  -10188  -10194       8
   10167   10173  -10179  -10188       8   10152   10155  -10146  -10143       8
   10953   10959  -11010  -11034       8   10941   10947  -11001  -11031       8
   10929   10935  -10992  -11028       8   10917   10923  -10986  -11025       8
   10908   10914  -10974  -11022       8   10893   10899  -10965  -11019       8
   10887   10890  -10851  -10824       8   10881   10884  -10848  -10824       8
   10875   10878  -10842  -10815       8   10869   10872  -10839  -10815       8
   10863   10866  -10836  -10812       8   10857   10860  -10833  -10812       8
   10794   10848  -10824  -10851       8   10782   10839  -10815  -10842       8
   10776   10833  -10812  -10836       8   10761   10827  -10794  -10824       8
   10755   10818  -10782  -10815       8   10752   10770  -10776  -10812       8
   10743   10797  -10764  -10758       8   10740   10788  -10758  -10764       8
   10719   10761  -10743  -10764       8   10719   10755  -10740  -10758       8
   10719   10752  -10737  -10734       8   10737   10749  -10734  -10716       8
   10704   10710  -10725  -10746       8   10692   10698  -10716  -10734       8
   10719   10680  -10692  -10716       8   10686   10689  -10677  -10671       8
   10680   10683  -10674  -10671       8   10662   10674  -10671  -10677       8
   10650   10656  -10662  -10671       8   10635   10638  -10629  -10626       8
   11436   11442  -11493  -11517       8   11424   11430  -11484  -11514       8
   11412   11418  -11475  -11511       8   11400   11406  -11469  -11508       8
   11391   11397  -11457  -11505       8   11376   11382  -11448  -11502       8
   11370   11373  -11334  -11307       8   11364   11367  -11331  -11307       8
   11358   11361  -11325  -11298       8   11352   11355  -11322  -11298       8
   11346   11349  -11319  -11295       8   11340   11343  -11316  -11295       8
   11277   11331  -11307  -11334       8   11265   11322  -11298  -11325       8
   11259   11316  -11295  -11319       8   11244   11310  -11277  -11307       8
   11238   11301  -11265  -11298       8   11235   11253  -11259  -11295       8
   11226   11280  -11247  -11241       8   11223   11271  -11241  -11247       8
   11202   11244  -11226  -11247       8   11202   11238  -11223  -11241       8
   11202   11235  -11220  -11217       8   11220   11232  -11217  -11199       8
   11187   11193  -11208  -11229       8   11175   11181  -11199  -11217       8
   11202   11163  -11175  -11199       8   11169   11172  -11160  -11154       8
   11163   11166  -11157  -11154       8   11145   11157  -11154  -11160       8
   11133   11139  -11145  -11154       8   11118   11121  -11112  -11109       8
   11919   11925  -11976  -12000       8   11907   11913  -11967  -11997       8
   11895   11901  -11958  -11994       8   11883   11889  -11952  -11991       8
   11874   11880  -11940  -11988       8   11859   11865  -11931  -11985       8
   11853   11856  -11817  -11790       8   11847   11850  -11814  -11790       8
   11841   11844  -11808  -11781       8   11835   11838  -11805  -11781       8
   11829   11832  -11802  -11778       8   11823   11826  -11799  -11778       8
   11760   11814  -11790  -11817       8   11748   11805  -11781  -11808       8
   11742   11799  -11778  -11802       8   11727   11793  -11760  -11790       8
   11721   11784  -11748  -11781       8   11718   11736  -11742  -11778       8
   11709   11763  -11730  -11724       8   11706   11754  -11724  -11730       8
   11685   11727  -11709  -11730       8   11685   11721  -11706  -11724       8
   11685   11718  -11703  -11700       8   11703   11715  -11700  -11682       8
   11670   11676  -11691  -11712       8   11658   11664  -11682  -11700       8
   11685   11646  -11658  -11682       8   11652   11655  -11643  -11637       8
   11646   11649  -11640  -11637       8   11628   11640  -11637  -11643       8
   11616   11622  -11628  -11637       8   11601   11604  -11595  -11592       8
   12402   12408  -12459  -12483       8   12390   12396  -12450  -12480       8
   12378   12384  -12441  -12477       8   12366   12372  -12435  -12474       8
   12357   12363  -12423  -12471       8   12342   12348  -12414  -12468       8
   12336   12339  -12300  -12273       8   12330   12333  -12297  -12273       8
   12324   12327  -12291  -12264       8   12318   12321  -12288  -12264       8
   12312   12315  -12285  -12261       8   12306   12309  -12282  -12261       8
   12243   12297  -12273  -12300       8   12231   12288  -12264  -12291       8
   12225   12282  -12261  -12285       8   12210   12276  -12243  -12273       8
   12204   12267  -12231  -12264       8   12201   12219  -12225  -12261       8
   12192   12246  -12213  -12207       8   12189   12237  -12207  -12213       8
   12168   12210  -12192  -12213       8   12168   12204  -12189  -12207       8
   12168   12201  -12186  -12183       8   12186   12198  -12183  -12165       8
   12153   12159  -12174  -12195       8   12141   12147  -12165  -12183       8
   12168   12129  -12141  -12165       8   12135   12138  -12126  -12120       8
   12129   12132  -12123  -12120       8   12111   12123  -12120  -12126       8
   12099   12105  -12111  -12120       8   12084   12087  -12078  -12075       8
   12885   12891  -12942  -12966       8   12873   12879  -12933  -12963       8
   12861   12867  -12924  -12960       8   12849   12855  -12918  -12957       8
   12840   12846  -12906  -12954       8   12825   12831  -12897  -12951       8
   12819   12822  -12783  -12756       8   12813   12816  -12780  -12756       8
   12807   12810  -12774  -12747       8   12801   12804  -12771  -12747       8
   12795   12798  -12768  -12744       8   12789   12792  -12765  -12744       8
   12726   12780  -12756  -12783       8   12714   12771  -12747  -12774       8
   12708   12765  -12744  -12768       8   12693   12759  -12726  -12756       8
   12687   12750  -12714  -12747       8   12684   12702  -12708  -12744       8
   12675   12729  -12696  -12690       8   12672   12720  -12690  -12696       8
   12651   12693  -12675  -12696       8   12651   12687  -12672  -12690       8
   12651   12684  -12669  -12666       8   12669   12681  -12666  -12648       8
   12636   12642  -12657  -12678       8   12624   12630  -12648  -12666       8
   12651   12612  -12624  -12648       8   12618   12621  -12609  -12603       8
   12612   12615  -12606  -12603       8   12594   12606  -12603  -12609       8
   12582   12588  -12594  -12603       8   12567   12570  -12561  -12558       8
   13368   13374  -13425  -13449       8   13356   13362  -13416  -13446       8
   13344   13350  -13407  -13443       8   13332   13338  -13401  -13440       8
   13323   13329  -13389  -13437       8   13308   13314  -13380  -13434       8
   13302   13305  -13266  -13239       8   13296   13299  -13263  -13239       8
   13290   13293  -13257  -13230       8   13284   13287  -13254  -13230       8
   13278   13281  -13251  -13227       8   13272   13275  -13248  -13227       8
   13209   13263  -13239  -13266       8   13197   13254  -13230  -13257       8
   13191   13248  -13227  -13251       8   13176   13242  -13209  -13239       8
   13170   13233  -13197  -13230       8   13167   13185  -13191  -13227       8
   13158   13212  -13179  -13173       8   13155   13203  -13173  -13179       8
   13134   13176  -13158  -13179       8   13134   13170  -13155  -13173       8
   13134   13167  -13152  -13149       8   13152   13164  -13149  -13131       8
   13119   13125  -13140  -13161       8   13107   13113  -13131  -13149       8
   13134   13095  -13107  -13131       8   13101   13104  -13092  -13086       8
   13095   13098  -13089  -13086       8   13077   13089  -13086  -13092       8
   13065   13071  -13077  -13086       8   13050   13053  -13044  -13041       8
   13851   13857  -13908  -13932       8   13839   13845  -13899  -13929       8
   13827   13833  -13890  -13926       8   13815   13821  -13884  -13923       8
   13806   13812  -13872  -13920       8   13791   13797  -13863  -13917       8
   13785   13788  -13749  -13722       8   13779   13782  -13746  -13722       8
   13773   13776  -13740  -13713       8   13767   13770  -13737  -13713       8
   13761   13764  -13734  -13710       8   13755   13758  -13731  -13710       8
   13692   13746  -13722  -13749       8   13680   13737  -13713  -13740       8
   13674   13731  -13710  -13734       8   13659   13725  -13692  -13722       8
   13653   13716  -13680  -13713       8   13650   13668  -13674  -13710       8
   13641   13695  -13662  -13656       8   13638   13686  -13656  -13662       8
   13617   13659  -13641  -13662       8   13617   13653  -13638  -13656       8
   13617   13650  -13635  -13632       8   13635   13647  -13632  -13614       8
   13602   13608  -13623  -13644       8   13590   13596  -13614  -13632       8
   13617   13578  -13590  -13614       8   13584   13587  -13575  -13569       8
   13578   13581  -13572  -13569       8   13560   13572  -13569  -13575       8
   13548   13554  -13560  -13569       8   13533   13536  -13527  -13524       8
   14334   14340  -14391  -14415       8   14322   14328  -14382  -14412       8
   14310   14316  -14373  -14409       8   14298   14304  -14367  -14406       8
   14289   14295  -14355  -14403       8   14274   14280  -14346  -14400       8
   14268   14271  -14232  -14205       8   14262   14265  -14229  -14205       8
   14256   14259  -14223  -14196       8   14250   14253  -14220  -14196       8
   14244   14247  -14217  -14193       8   14238   14241  -14214  -14193       8
   14175   14229  -14205  -14232       8   14163   14220  -14196  -14223       8
   14157   14214  -14193  -14217       8   14142   14208  -14175  -14205       8
   14136   14199  -14163  -14196       8   14133   14151  -14157  -14193       8
   14124   14178  -14145  -14139       8   14121   14169  -14139  -14145       8
   14100   14142  -14124  -14145       8   14100   14136  -14121  -14139       8
   14100   14133  -14118  -14115       8   14118   14130  -14115  -14097       8
   14085   14091  -14106  -14127       8   14073   14079  -14097  -14115       8
   14100   14061  -14073  -14097       8   14067   14070  -14058  -14052       8
   14061   14064  -14055  -14052       8   14043   14055  -14052  -14058       8
   14031   14037  -14043  -14052       8   14016   14019  -14010  -14007       8
   14817   14823  -14874  -14898       8   14805   14811  -14865  -14895       8
   14793   14799  -14856  -14892       8   14781   14787  -14850  -14889       8
   14772   14778  -14838  -14886       8   14757   14763  -14829  -14883       8
   14751   14754  -14715  -14688       8   14745   14748  -14712  -14688       8
   14739   14742  -14706  -14679       8   14733   14736  -14703  -14679       8
   14727   14730  -14700  -14676       8   14721   14724  -14697  -14676       8
   14658   14712  -14688  -14715       8   14646   14703  -14679  -14706       8
   14640   14697  -14676  -14700       8   14625   14691  -14658  -14688       8
   14619   14682  -14646  -14679       8   14616   14634  -14640  -14676       8
   14607   14661  -14628  -14622       8   14604   14652  -14622  -14628       8
   14583   14625  -14607  -14628       8   14583   14619  -14604  -14622       8
   14583   14616  -14601  -14598       8   14601   14613  -14598  -14580       8
   14568   14574  -14589  -14610       8   14556   14562  -14580  -14598       8
   14583   14544  -14556  -14580       8   14550   14553  -14541  -14535       8
   14544   14547  -14538  -14535       8   14526   14538  -14535  -14541       8
   14514   14520  -14526  -14535       8   14499   14502  -14493  -14490       8
   15300   15306  -15357  -15381       8   15288   15294  -15348  -15378       8
   15276   15282  -15339  -15375       8   15264   15270  -15333  -15372       8
   15255   15261  -15321  -15369       8   15240   15246  -15312  -15366       8
   15234   15237  -15198  -15171       8   15228   15231  -15195  -15171       8
   15222   15225  -15189  -15162       8   15216   15219  -15186  -15162       8
   15210   15213  -15183  -15159       8   15204   15207  -15180  -15159       8
   15141   15195  -15171  -15198       8   15129   15186  -15162  -15189       8
   15123   15180  -15159  -15183       8   15108   15174  -15141  -15171       8
   15102   15165  -15129  -15162       8   15099   15117  -15123  -15159       8
   15090   15144  -15111  -15105       8   15087   15135  -15105  -15111       8
   15066   15108  -15090  -15111       8   15066   15102  -15087  -15105       8
   15066   15099  -15084  -15081       8   15084   15096  -15081  -15063       8
   15051   15057  -15072  -15093       8   15039   15045  -15063  -15081       8
   15066   15027  -15039  -15063       8   15033   15036  -15024  -15018       8
   15027   15030  -15021  -15018       8   15009   15021  -15018  -15024       8
   14997   15003  -15009  -15018       8   14982   14985  -14976  -14973       8
   15783   15789  -15840  -15864       8   15771   15777  -15831  -15861       8
   15759   15765  -15822  -15858       8   15747   15753  -15816  -15855       8
   15738   15744  -15804  -15852       8   15723   15729  -15795  -15849       8
   15717   15720  -15681  -15654       8   15711   15714  -15678  -15654       8
   15705   15708  -15672  -15645       8   15699   15702  -15669  -15645       8
   15693   15696  -15666  -15642       8   15687   15690  -15663  -15642       8
   15624   15678  -15654  -15681       8   15612   15669  -15645  -15672       8
   15606   15663  -15642  -15666       8   15591   15657  -15624  -15654       8
   15585   15648  -15612  -15645       8   15582   15600  -15606  -15642       8
   15573   15627  -15594  -15588       8   15570   15618  -15588  -15594       8
   15549   15591  -15573  -15594       8   15549   15585  -15570  -15588       8
   15549   15582  -15567  -15564       8   15567   15579  -15564  -15546       8
   15534   15540  -15555  -15576       8   15522   15528  -15546  -15564       8
   15549   15510  -15522  -15546       8   15516   15519  -15507  -15501       8
   15510   15513  -15504  -15501       8   15492   15504  -15501  -15507       8
   15480   15486  -15492  -15501       8   15465   15468  -15459  -15456       8
   16266   16272  -16323  -16347       8   16254   16260  -16314  -16344       8
   16242   16248  -16305  -16341       8   16230   16236  -16299  -16338       8
   16221   16227  -16287  -16335       8   16206   16212  -16278  -16332       8
   16200   16203  -16164  -16137       8   16194   16197  -16161  -16137       8
   16188   16191  -16155  -16128       8   16182   16185  -16152  -16128       8
   16176   16179  -16149  -16125       8   16170   16173  -16146  -16125       8
   16107   16161  -16137  -16164       8   16095   16152  -16128  -16155       8
   16089   16146  -16125  -16149       8   16074   16140  -16107  -16137       8
   16068   16131  -16095  -16128       8   16065   16083  -16089  -16125       8
   16056   16110  -16077  -16071       8   16053   16101  -16071  -16077       8
   16032   16074  -16056  -16077       8   16032   16068  -16053  -16071       8
   16032   16065  -16050  -16047       8   16050   16062  -16047  -16029       8
   16017   16023  -16038  -16059       8   16005   16011  -16029  -16047       8
   16032   15993  -16005  -16029       8   15999   16002  -15990  -15984       8
   15993   15996  -15987  -15984       8   15975   15987  -15984  -15990       8
   15963   15969  -15975  -15984       8   15948   15951  -15942  -15939       8
   16749   16755  -16806  -16830       8   16737   16743  -16797  -16827       8
   16725   16731  -16788  -16824       8   16713   16719  -16782  -16821       8
   16704   16710  -16770  -16818       8   16689   16695  -16761  -16815       8
   16683   16686  -16647  -16620       8   16677   16680  -16644  -16620       8
   16671   16674  -16638  -16611       8   16665   16668  -16635  -16611       8
   16659   16662  -16632  -16608       8   16653   16656  -16629  -16608       8
   16590   16644  -16620  -16647       8   16578   16635  -16611  -16638       8
   16572   16629  -16608  -16632       8   16557   16623  -16590  -16620       8
   16551   16614  -16578  -16611       8   16548   16566  -16572  -16608       8
   16539   16593  -16560  -16554       8   16536   16584  -16554  -16560       8
   16515   16557  -16539  -16560       8   16515   16551  -16536  -16554       8
   16515   16548  -16533  -16530       8   16533   16545  -16530  -16512       8
   16500   16506  -16521  -16542       8   16488   16494  -16512  -16530       8
   16515   16476  -16488  -16512       8   16482   16485  -16473  -16467       8
   16476   16479  -16470  -16467       8   16458   16470  -16467  -16473       8
   16446   16452  -16458  -16467       8   16431   16434  -16425  -16422       8
   17232   17238  -17289  -17313       8   17220   17226  -17280  -17310       8
   17208   17214  -17271  -17307       8   17196   17202  -17265  -17304       8
   17187   17193  -17253  -17301       8   17172   17178  -17244  -17298       8
   17166   17169  -17130  -17103       8   17160   17163  -17127  -17103       8
   17154   17157  -17121  -17094       8   17148   17151  -17118  -17094       8
   17142   17145  -17115  -17091       8   17136   17139  -17112  -17091       8
   17073   17127  -17103  -17130       8   17061   17118  -17094  -17121       8
   17055   17112  -17091  -17115       8   17040   17106  -17073  -17103       8
   17034   17097  -17061  -17094       8   17031   17049  -17055  -17091       8
   17022   17076  -17043  -17037       8   17019   17067  -17037  -17043       8
   16998   17040  -17022  -17043       8   16998   17034  -17019  -17037       8
   16998   17031  -17016  -17013       8   17016   17028  -17013  -16995       8
   16983   16989  -17004  -17025       8   16971   16977  -16995  -17013       8
   16998   16959  -16971  -16995       8   16965   16968  -16956  -16950       8
   16959   16962  -16953  -16950       8   16941   16953  -16950  -16956       8
   16929   16935  -16941  -16950       8   16914   16917  -16908  -16905       8
   17715   17721  -17772  -17796       8   17703   17709  -17763  -17793       8
   17691   17697  -17754  -17790       8   17679   17685  -17748  -17787       8
   17670   17676  -17736  -17784       8   17655   17661  -17727  -17781       8
   17649   17652  -17613  -17586       8   17643   17646  -17610  -17586       8
   17637   17640  -17604  -17577       8   17631   17634  -17601  -17577       8
   17625   17628  -17598  -17574       8   17619   17622  -17595  -17574       8
   17556   17610  -17586  -17613       8   17544   17601  -17577  -17604       8
   17538   17595  -17574  -17598       8   17523   17589  -17556  -17586       8
   17517   17580  -17544  -17577       8   17514   17532  -17538  -17574       8
   17505   17559  -17526  -17520       8   17502   17550  -17520  -17526       8
   17481   17523  -17505  -17526       8   17481   17517  -17502  -17520       8
   17481   17514  -17499  -17496       8   17499   17511  -17496  -17478       8
   17466   17472  -17487  -17508       8   17454   17460  -17478  -17496       8
   17481   17442  -17454  -17478       8   17448   17451  -17439  -17433       8
   17442   17445  -17436  -17433       8   17424   17436  -17433  -17439       8
   17412   17418  -17424  -17433       8   17397   17400  -17391  -17388       8
   18198   18204  -18255  -18279       8   18186   18192  -18246  -18276       8
   18174   18180  -18237  -18273       8   18162   18168  -18231  -18270       8
   18153   18159  -18219  -18267       8   18138   18144  -18210  -18264       8
   18132   18135  -18096  -18069       8   18126   18129  -18093  -18069       8
   18120   18123  -18087  -18060       8   18114   18117  -18084  -18060       8
   18108   18111  -18081  -18057       8   18102   18105  -18078  -18057       8
   18039   18093  -18069  -18096       8   18027   18084  -18060  -18087       8
   18021   18078  -18057  -18081       8   18006   18072  -18039  -18069       8
   18000   18063  -18027  -18060       8   17997   18015  -18021  -18057       8
   17988   18042  -18009  -18003       8   17985   18033  -18003  -18009       8
   17964   18006  -17988  -18009       8   17964   18000  -17985  -18003       8
   17964   17997  -17982  -17979       8   17982   17994  -17979  -17961       8
   17949   17955  -17970  -17991       8   17937   17943  -17961  -17979       8
   17964   17925  -17937  -17961       8   17931   17934  -17922  -17916       8
   17925   17928  -17919  -17916       8   17907   17919  -17916  -17922       8
   17895   17901  -17907  -17916       8   17880   17883  -17874  -17871       8
   18681   18687  -18738  -18762       8   18669   18675  -18729  -18759       8
   18657   18663  -18720  -18756       8   18645   18651  -18714  -18753       8
   18636   18642  -18702  -18750       8   18621   18627  -18693  -18747       8
   18615   18618  -18579  -18552       8   18609   18612  -18576  -18552       8
   18603   18606  -18570  -18543       8   18597   18600  -18567  -18543       8
   18591   18594  -18564  -18540       8   18585   18588  -18561  -18540       8
   18522   18576  -18552  -18579       8   18510   18567  -18543  -18570       8
   18504   18561  -18540  -18564       8   18489   18555  -18522  -18552       8
   18483   18546  -18510  -18543       8   18480   18498  -18504  -18540       8
   18471   18525  -18492  -18486       8   18468   18516  -18486  -18492       8
   18447   18489  -18471  -18492       8   18447   18483  -18468  -18486       8
   18447   18480  -18465  -18462       8   18465   18477  -18462  -18444       8
   18432   18438  -18453  -18474       8   18420   18426  -18444  -18462       8
   18447   18408  -18420  -18444       8   18414   18417  -18405  -18399       8
   18408   18411  -18402  -18399       8   18390   18402  -18399  -18405       8
   18378   18384  -18390  -18399       8   18363   18366  -18357  -18354       8
   19164   19170  -19221  -19245       8   19152   19158  -19212  -19242       8
   19140   19146  -19203  -19239       8   19128   19134  -19197  -19236       8
   19119   19125  -19185  -19233       8   19104   19110  -19176  -19230       8
   19098   19101  -19062  -19035       8   19092   19095  -19059  -19035       8
   19086   19089  -19053  -19026       8   19080   19083  -19050  -19026       8
   19074   19077  -19047  -19023       8   19068   19071  -19044  -19023       8
   19005   19059  -19035  -19062       8   18993   19050  -19026  -19053       8
   18987   19044  -19023  -19047       8   18972   19038  -19005  -19035       8
   18966   19029  -18993  -19026       8   18963   18981  -18987  -19023       8
   18954   19008  -18975  -18969       8   18951   18999  -18969  -18975       8
   18930   18972  -18954  -18975       8   18930   18966  -18951  -18969       8
   18930   18963  -18948  -18945       8   18948   18960  -18945  -18927       8
   18915   18921  -18936  -18957       8   18903   18909  -18927  -18945       8
   18930   18891  -18903  -18927       8   18897   18900  -18888  -18882       8
   18891   18894  -18885  -18882       8   18873   18885  -18882  -18888       8
   18861   18867  -18873  -18882       8   18846   18849  -18840  -18837       8
   19647   19653  -19704  -19728       8   19635   19641  -19695  -19725       8
   19623   19629  -19686  -19722       8   19611   19617  -19680  -19719       8
   19602   19608  -19668  -19716       8   19587   19593  -19659  -19713       8
   19581   19584  -19545  -19518       8   19575   19578  -19542  -19518       8
   19569   19572  -19536  -19509       8   19563   19566  -19533  -19509       8
   19557   19560  -19530  -19506       8   19551   19554  -19527  -19506       8
   19488   19542  -19518  -19545       8   19476   19533  -19509  -19536       8
   19470   19527  -19506  -19530       8   19455   19521  -19488  -19518       8
   19449   19512  -19476  -19509       8   19446   19464  -19470  -19506       8
   19437   19491  -19458  -19452       8   19434   19482  -19452  -19458       8
   19413   19455  -19437  -19458       8   19413   19449  -19434  -19452       8
   19413   19446  -19431  -19428       8   19431   19443  -19428  -19410       8
   19398   19404  -19419  -19440       8   19386   19392  -19410  -19428       8
   19413   19374  -19386  -19410       8   19380   19383  -19371  -19365       8
   19374   19377  -19368  -19365       8   19356   19368  -19365  -19371       8
   19344   19350  -19356  -19365       8   19329   19332  -19323  -19320       8
   20130   20136  -20187  -20211       8   20118   20124  -20178  -20208       8
   20106   20112  -20169  -20205       8   20094   20100  -20163  -20202       8
   20085   20091  -20151  -20199       8   20070   20076  -20142  -20196       8
   20064   20067  -20028  -20001       8   20058   20061  -20025  -20001       8
   20052   20055  -20019  -19992       8   20046   20049  -20016  -19992       8
   20040   20043  -20013  -19989       8   20034   20037  -20010  -19989       8
   19971   20025  -20001  -20028       8   19959   20016  -19992  -20019       8
   19953   20010  -19989  -20013       8   19938   20004  -19971  -20001       8
   19932   19995  -19959  -19992       8   19929   19947  -19953  -19989       8
   19920   19974  -19941  -19935       8   19917   19965  -19935  -19941       8
   19896   19938  -19920  -19941       8   19896   19932  -19917  -19935       8
   19896   19929  -19914  -19911       8   19914   19926  -19911  -19893       8
   19881   19887  -19902  -19923       8   19869   19875  -19893  -19911       8
   19896   19857  -19869  -19893       8   19863   19866  -19854  -19848       8
   19857   19860  -19851  -19848       8   19839   19851  -19848  -19854       8
   19827   19833  -19839  -19848       8   19812   19815  -19806  -19803       8
   20613   20619  -20670  -20694       8   20601   20607  -20661  -20691       8
   20589   20595  -20652  -20688       8   20577   20583  -20646  -20685       8
   20568   20574  -20634  -20682       8   20553   20559  -20625  -20679       8
   20547   20550  -20511  -20484       8   20541   20544  -20508  -20484       8
   20535   20538  -20502  -20475       8   20529   20532  -20499  -20475       8
   20523   20526  -20496  -20472       8   20517   20520  -20493  -20472       8
   20454   20508  -20484  -20511       8   20442   20499  -20475  -20502       8
   20436   20493  -20472  -20496       8   20421   20487  -20454  -20484       8
   20415   20478  -20442  -20475       8   20412   20430  -20436  -20472       8
   20403   20457  -20424  -20418       8   20400   20448  -20418  -20424       8
   20379   20421  -20403  -20424       8   20379   20415  -20400  -20418       8
   20379   20412  -20397  -20394       8   20397   20409  -20394  -20376       8
   20364   20370  -20385  -20406       8   20352   20358  -20376  -20394       8
   20379   20340  -20352  -20376       8   20346   20349  -20337  -20331       8
   20340   20343  -20334  -20331       8   20322   20334  -20331  -20337       8
   20310   20316  -20322  -20331       8   20295   20298  -20289  -20286       8
   21096   21102  -21153  -21177       8   21084   21090  -21144  -21174       8
   21072   21078  -21135  -21171       8   21060   21066  -21129  -21168       8
   21051   21057  -21117  -21165       8   21036   21042  -21108  -21162       8
   21030   21033  -20994  -20967       8   21024   21027  -20991  -20967       8
   21018   21021  -20985  -20958       8   21012   21015  -20982  -20958       8
   21006   21009  -20979  -20955       8   21000   21003  -20976  -20955       8
   20937   20991  -20967  -20994       8   20925   20982  -20958  -20985       8
   20919   20976  -20955  -20979       8   20904   20970  -20937  -20967       8
   20898   20961  -20925  -20958       8   20895   20913  -20919  -20955       8
   20886   20940  -20907  -20901       8   20883   20931  -20901  -20907       8
   20862   20904  -20886  -20907       8   20862   20898  -20883  -20901       8
   20862   20895  -20880  -20877       8   20880   20892  -20877  -20859       8
   20847   20853  -20868  -20889       8   20835   20841  -20859  -20877       8
   20862   20823  -20835  -20859       8   20829   20832  -20820  -20814       8
   20823   20826  -20817  -20814       8   20805   20817  -20814  -20820       8
   20793   20799  -20805  -20814       8   20778   20781  -20772  -20769       8
   21579   21585  -21636  -21660       8   21567   21573  -21627  -21657       8
   21555   21561  -21618  -21654       8   21543   21549  -21612  -21651       8
   21534   21540  -21600  -21648       8   21519   21525  -21591  -21645       8
   21513   21516  -21477  -21450       8   21507   21510  -21474  -21450       8
   21501   21504  -21468  -21441       8   21495   21498  -21465  -21441       8
   21489   21492  -21462  -21438       8   21483   21486  -21459  -21438       8
   21420   21474  -21450  -21477       8   21408   21465  -21441  -21468       8
   21402   21459  -21438  -21462       8   21387   21453  -21420  -21450       8
   21381   21444  -21408  -21441       8   21378   21396  -21402  -21438       8
   21369   21423  -21390  -21384       8   21366   21414  -21384  -21390       8
   21345   21387  -21369  -21390       8   21345   21381  -21366  -21384       8
   21345   21378  -21363  -21360       8   21363   21375  -21360  -21342       8
   21330   21336  -21351  -21372       8   21318   21324  -21342  -21360       8
   21345   21306  -21318  -21342       8   21312   21315  -21303  -21297       8
   21306   21309  -21300  -21297       8   21288   21300  -21297  -21303       8
   21276   21282  -21288  -21297       8   21261   21264  -21255  -21252       8
   22062   22068  -22119  -22143       8   22050   22056  -22110  -22140       8
   22038   22044  -22101  -22137       8   22026   22032  -22095  -22134       8
   22017   22023  -22083  -22131       8   22002   22008  -22074  -22128       8
   21996   21999  -21960  -21933       8   21990   21993  -21957  -21933       8
   21984   21987  -21951  -21924       8   21978   21981  -21948  -21924       8
   21972   21975  -21945  -21921       8   21966   21969  -21942  -21921       8
   21903   21957  -21933  -21960       8   21891   21948  -21924  -21951       8
   21885   21942  -21921  -21945       8   21870   21936  -21903  -21933       8
   21864   21927  -21891  -21924       8   21861   21879  -21885  -21921       8
   21852   21906  -21873  -21867       8   21849   21897  -21867  -21873       8
   21828   21870  -21852  -21873       8   21828   21864  -21849  -21867       8
   21828   21861  -21846  -21843       8   21846   21858  -21843  -21825       8
   21813   21819  -21834  -21855       8   21801   21807  -21825  -21843       8
   21828   21789  -21801  -21825       8   21795   21798  -21786  -21780       8
   21789   21792  -21783  -21780       8   21771   21783  -21780  -21786       8
   21759   21765  -21771  -21780       8   21744   21747  -21738  -21735       8
   22545   22551  -22602  -22626       8   22533   22539  -22593  -22623       8
   22521   22527  -22584  -22620       8   22509   22515  -22578  -22617       8
   22500   22506  -22566  -22614       8   22485   22491  -22557  -22611       8
   22479   22482  -22443  -22416       8   22473   22476  -22440  -22416       8
   22467   22470  -22434  -22407       8   22461   22464  -22431  -22407       8
   22455   22458  -22428  -22404       8   22449   22452  -22425  -22404       8
   22386   22440  -22416  -22443       8   22374   22431  -22407  -22434       8
   22368   22425  -22404  -22428       8   22353   22419  -22386  -22416       8
   22347   22410  -22374  -22407       8   22344   22362  -22368  -22404       8
   22335   22389  -22356  -22350       8   22332   22380  -22350  -22356       8
   22311   22353  -22335  -22356       8   22311   22347  -22332  -22350       8
   22311   22344  -22329  -22326       8   22329   22341  -22326  -22308       8
   22296   22302  -22317  -22338       8   22284   22290  -22308  -22326       8
   22311   22272  -22284  -22308       8   22278   22281  -22269  -22263       8
   22272   22275  -22266  -22263       8   22254   22266  -22263  -22269       8
   22242   22248  -22254  -22263       8   22227   22230  -22221  -22218       8
   23028   23034  -23085  -23109       8   23016   23022  -23076  -23106       8
   23004   23010  -23067  -23103       8   22992   22998  -23061  -23100       8
   22983   22989  -23049  -23097       8   22968   22974  -23040  -23094       8
   22962   22965  -22926  -22899       8   22956   22959  -22923  -22899       8
   22950   22953  -22917  -22890       8   22944   22947  -22914  -22890       8
   22938   22941  -22911  -22887       8   22932   22935  -22908  -22887       8
   22869   22923  -22899  -22926       8   22857   22914  -22890  -22917       8
   22851   22908  -22887  -22911       8   22836   22902  -22869  -22899       8
   22830   22893  -22857  -22890       8   22827   22845  -22851  -22887       8
   22818   22872  -22839  -22833       8   22815   22863  -22833  -22839       8
   22794   22836  -22818  -22839       8   22794   22830  -22815  -22833       8
   22794   22827  -22812  -22809       8   22812   22824  -22809  -22791       8
   22779   22785  -22800  -22821       8   22767   22773  -22791  -22809       8
   22794   22755  -22767  -22791       8   22761   22764  -22752  -22746       8
   22755   22758  -22749  -22746       8   22737   22749  -22746  -22752       8
   22725   22731  -22737  -22746       8   22710   22713  -22704  -22701       8
   23511   23517  -23568  -23592       8   23499   23505  -23559  -23589       8
   23487   23493  -23550  -23586       8   23475   23481  -23544  -23583       8
   23466   23472  -23532  -23580       8   23451   23457  -23523  -23577       8
   23445   23448  -23409  -23382       8   23439   23442  -23406  -23382       8
   23433   23436  -23400  -23373       8   23427   23430  -23397  -23373       8
   23421   23424  -23394  -23370       8   23415   23418  -23391  -23370       8
   23352   23406  -23382  -23409       8   23340   23397  -23373  -23400       8
   23334   23391  -23370  -23394       8   23319   23385  -23352  -23382       8
   23313   23376  -23340  -23373       8   23310   23328  -23334  -23370       8
   23301   23355  -23322  -23316       8   23298   23346  -23316  -23322       8
   23277   23319  -23301  -23322       8   23277   23313  -23298  -23316       8
   23277   23310  -23295  -23292       8   23295   23307  -23292  -23274       8
   23262   23268  -23283  -23304       8   23250   23256  -23274  -23292       8
   23277   23238  -23250  -23274       8   23244   23247  -23235  -23229       8
   23238   23241  -23232  -23229       8   23220   23232  -23229  -23235       8
   23208   23214  -23220  -23229       8   23193   23196  -23187  -23184       8
   23994   24000  -24051  -24075       8   23982   23988  -24042  -24072       8
   23970   23976  -24033  -24069       8   23958   23964  -24027  -24066       8
   23949   23955  -24015  -24063       8   23934   23940  -24006  -24060       8
   23928   23931  -23892  -23865       8   23922   23925  -23889  -23865       8
   23916   23919  -23883  -23856       8   23910   23913  -23880  -23856       8
   23904   23907  -23877  -23853       8   23898   23901  -23874  -23853       8
   23835   23889  -23865  -23892       8   23823   23880  -23856  -23883       8
   23817   23874  -23853  -23877       8   23802   23868  -23835  -23865       8
   23796   23859  -23823  -23856       8   23793   23811  -23817  -23853       8
   23784   23838  -23805  -23799       8   23781   23829  -23799  -23805       8
   23760   23802  -23784  -23805       8   23760   23796  -23781  -23799       8
   23760   23793  -23778  -23775       8   23778   23790  -23775  -23757       8
   23745   23751  -23766  -23787       8   23733   23739  -23757  -23775       8
   23760   23721  -23733  -23757       8   23727   23730  -23718  -23712       8
   23721   23724  -23715  -23712       8   23703   23715  -23712  -23718       8
   23691   23697  -23703  -23712       8   23676   23679  -23670  -23667       8
   24477   24483  -24534  -24558       8   24465   24471  -24525  -24555       8
   24453   24459  -24516  -24552       8   24441   24447  -24510  -24549       8
   24432   24438  -24498  -24546       8   24417   24423  -24489  -24543       8
   24411   24414  -24375  -24348       8   24405   24408  -24372  -24348       8
   24399   24402  -24366  -24339       8   24393   24396  -24363  -24339       8
   24387   24390  -24360  -24336       8   24381   24384  -24357  -24336       8
   24318   24372  -24348  -24375       8   24306   24363  -24339  -24366       8
   24300   24357  -24336  -24360       8   24285   24351  -24318  -24348       8
   24279   24342  -24306  -24339       8   24276   24294  -24300  -24336       8
   24267   24321  -24288  -24282       8   24264   24312  -24282  -24288       8
   24243   24285  -24267  -24288       8   24243   24279  -24264  -24282       8
   24243   24276  -24261  -24258       8   24261   24273  -24258  -24240       8
   24228   24234  -24249  -24270       8   24216   24222  -24240  -24258       8
   24243   24204  -24216  -24240       8   24210   24213  -24201  -24195       8
   24204   24207  -24198  -24195       8   24186   24198  -24195  -24201       8
   24174   24180  -24186  -24195       8   24159   24162  -24153  -24150       8
   24960   24966  -25017  -25041       8   24948   24954  -25008  -25038       8
   24936   24942  -24999  -25035       8   24924   24930  -24993  -25032       8
   24915   24921  -24981  -25029       8   24900   24906  -24972  -25026       8
   24894   24897  -24858  -24831       8   24888   24891  -24855  -24831       8
   24882   24885  -24849  -24822       8   24876   24879  -24846  -24822       8
   24870   24873  -24843  -24819       8   24864   24867  -24840  -24819       8
   24801   24855  -24831  -24858       8   24789   24846  -24822  -24849       8
   24783   24840  -24819  -24843       8   24768   24834  -24801  -24831       8
   24762   24825  -24789  -24822       8   24759   24777  -24783  -24819       8
   24750   24804  -24771  -24765       8   24747   24795  -24765  -24771       8
   24726   24768  -24750  -24771       8   24726   24762  -24747  -24765       8
   24726   24759  -24744  -24741       8   24744   24756  -24741  -24723       8
   24711   24717  -24732  -24753       8   24699   24705  -24723  -24741       8
   24726   24687  -24699  -24723       8   24693   24696  -24684  -24678       8
   24687   24690  -24681  -24678       8   24669   24681  -24678  -24684       8
   24657   24663  -24669  -24678       8   24642   24645  -24636  -24633       8
   25443   25449  -25500  -25524       8   25431   25437  -25491  -25521       8
   25419   25425  -25482  -25518       8   25407   25413  -25476  -25515       8
   25398   25404  -25464  -25512       8   25383   25389  -25455  -25509       8
   25377   25380  -25341  -25314       8   25371   25374  -25338  -25314       8
   25365   25368  -25332  -25305       8   25359   25362  -25329  -25305       8
   25353   25356  -25326  -25302       8   25347   25350  -25323  -25302       8
   25284   25338  -25314  -25341       8   25272   25329  -25305  -25332       8
   25266   25323  -25302  -25326       8   25251   25317  -25284  -25314       8
   25245   25308  -25272  -25305       8   25242   25260  -25266  -25302       8
   25233   25287  -25254  -25248       8   25230   25278  -25248  -25254       8
   25209   25251  -25233  -25254       8   25209   25245  -25230  -25248       8
   25209   25242  -25227  -25224       8   25227   25239  -25224  -25206       8
   25194   25200  -25215  -25236       8   25182   25188  -25206  -25224       8
   25209   25170  -25182  -25206       8   25176   25179  -25167  -25161       8
   25170   25173  -25164  -25161       8   25152   25164  -25161  -25167       8
   25140   25146  -25152  -25161       8   25125   25128  -25119  -25116       8
   25926   25932  -25983  -26007       8   25914   25920  -25974  -26004       8
   25902   25908  -25965  -26001       8   25890   25896  -25959  -25998       8
   25881   25887  -25947  -25995       8   25866   25872  -25938  -25992       8
   25860   25863  -25824  -25797       8   25854   25857  -25821  -25797       8
   25848   25851  -25815  -25788       8   25842   25845  -25812  -25788       8
   25836   25839  -25809  -25785       8   25830   25833  -25806  -25785       8
   25767   25821  -25797  -25824       8   25755   25812  -25788  -25815       8
   25749   25806  -25785  -25809       8   25734   25800  -25767  -25797       8
   25728   25791  -25755  -25788       8   25725   25743  -25749  -25785       8
   25716   25770  -25737  -25731       8   25713   25761  -25731  -25737       8
   25692   25734  -25716  -25737       8   25692   25728  -25713  -25731       8
   25692   25725  -25710  -25707       8   25710   25722  -25707  -25689       8
   25677   25683  -25698  -25719       8   25665   25671  -25689  -25707       8
   25692   25653  -25665  -25689       8   25659   25662  -25650  -25644       8
   25653   25656  -25647  -25644       8   25635   25647  -25644  -25650       8
   25623   25629  -25635  -25644       8   25608   25611  -25602  -25599       8
   26409   26415  -26466  -26490       8   26397   26403  -26457  -26487       8
   26385   26391  -26448  -26484       8   26373   26379  -26442  -26481       8
   26364   26370  -26430  -26478       8   26349   26355  -26421  -26475       8
   26343   26346  -26307  -26280       8   26337   26340  -26304  -26280       8
   26331   26334  -26298  -26271       8   26325   26328  -26295  -26271       8
   26319   26322  -26292  -26268       8   26313   26316  -26289  -26268       8
   26250   26304  -26280  -26307       8   26238   26295  -26271  -26298       8
   26232   26289  -26268  -26292       8   26217   26283  -26250  -26280       8
   26211   26274  -26238  -26271       8   26208   26226  -26232  -26268       8
   26199   26253  -26220  -26214       8   26196   26244  -26214  -26220       8
   26175   26217  -26199  -26220       8   26175   26211  -26196  -26214       8
   26175   26208  -26193  -26190       8   26193   26205  -26190  -26172       8
   26160   26166  -26181  -26202       8   26148   26154  -26172  -26190       8
   26175   26136  -26148  -26172       8   26142   26145  -26133  -26127       8
   26136   26139  -26130  -26127       8   26118   26130  -26127  -26133       8
   26106   26112  -26118  -26127       8   26091   26094  -26085  -26082       8
   26892   26898  -26949  -26973       8   26880   26886  -26940  -26970       8
   26868   26874  -26931  -26967       8   26856   26862  -26925  -26964       8
   26847   26853  -26913  -26961       8   26832   26838  -26904  -26958       8
   26826   26829  -26790  -26763       8   26820   26823  -26787  -26763       8
   26814   26817  -26781  -26754       8   26808   26811  -26778  -26754       8
   26802   26805  -26775  -26751       8   26796   26799  -26772  -26751       8
   26733   26787  -26763  -26790       8   26721   26778  -26754  -26781       8
   26715   26772  -26751  -26775       8   26700   26766  -26733  -26763       8
   26694   26757  -26721  -26754       8   26691   26709  -26715  -26751       8
   26682   26736  -26703  -26697       8   26679   26727  -26697  -26703       8
   26658   26700  -26682  -26703       8   26658   26694  -26679  -26697       8
   26658   26691  -26676  -26673       8   26676   26688  -26673  -26655       8
   26643   26649  -26664  -26685       8   26631   26637  -26655  -26673       8
   26658   26619  -26631  -26655       8   26625   26628  -26616  -26610       8
   26619   26622  -26613  -26610       8   26601   26613  -26610  -26616       8
   26589   26595  -26601  -26610       8   26574   26577  -26568  -26565       8
   27375   27381  -27432  -27456       8   27363   27369  -27423  -27453       8
   27351   27357  -27414  -27450       8   27339   27345  -27408  -27447       8
   27330   27336  -27396  -27444       8   27315   27321  -27387  -27441       8
   27309   27312  -27273  -27246       8   27303   27306  -27270  -27246       8
   27297   27300  -27264  -27237       8   27291   27294  -27261  -27237       8
   27285   27288  -27258  -27234       8   27279   27282  -27255  -27234       8
   27216   27270  -27246  -27273       8   27204   27261  -27237  -27264       8
   27198   27255  -27234  -27258       8   27183   27249  -27216  -27246       8
   27177   27240  -27204  -27237       8   27174   27192  -27198  -27234       8
   27165   27219  -27186  -27180       8   27162   27210  -27180  -27186       8
   27141   27183  -27165  -27186       8   27141   27177  -27162  -27180       8
   27141   27174  -27159  -27156       8   27159   27171  -27156  -27138       8
   27126   27132  -27147  -27168       8   27114   27120  -27138  -27156       8
   27141   27102  -27114  -27138       8   27108   27111  -27099  -27093       8
   27102   27105  -27096  -27093       8   27084   27096  -27093  -27099       8
   27072   27078  -27084  -27093       8   27057   27060  -27051  -27048       8
   27858   27864  -27915  -27939       8   27846   27852  -27906  -27936       8
   27834   27840  -27897  -27933       8   27822   27828  -27891  -27930       8
   27813   27819  -27879  -27927       8   27798   27804  -27870  -27924       8
   27792   27795  -27756  -27729       8   27786   27789  -27753  -27729       8
   27780   27783  -27747  -27720       8   27774   27777  -27744  -27720       8
   27768   27771  -27741  -27717       8   27762   27765  -27738  -27717       8
   27699   27753  -27729  -27756       8   27687   27744  -27720  -27747       8
   27681   27738  -27717  -27741       8   27666   27732  -27699  -27729       8
   27660   27723  -27687  -27720       8   27657   27675  -27681  -27717       8
   27648   27702  -27669  -27663       8   27645   27693  -27663  -27669       8
   27624   27666  -27648  -27669       8   27624   27660  -27645  -27663       8
   27624   27657  -27642  -27639       8   27642   27654  -27639  -27621       8
   27609   27615  -27630  -27651       8   27597   27603  -27621  -27639       8
   27624   27585  -27597  -27621       8   27591   27594  -27582  -27576       8
   27585   27588  -27579  -27576       8   27567   27579  -27576  -27582       8
   27555   27561  -27567  -27576       8   27540   27543  -27534  -27531       8
   28341   28347  -28398  -28422       8   28329   28335  -28389  -28419       8
   28317   28323  -28380  -28416       8   28305   28311  -28374  -28413       8
   28296   28302  -28362  -28410       8   28281   28287  -28353  -28407       8
   28275   28278  -28239  -28212       8   28269   28272  -28236  -28212       8
   28263   28266  -28230  -28203       8   28257   28260  -28227  -28203       8
   28251   28254  -28224  -28200       8   28245   28248  -28221  -28200       8
   28182   28236  -28212  -28239       8   28170   28227  -28203  -28230       8
   28164   28221  -28200  -28224       8   28149   28215  -28182  -28212       8
   28143   28206  -28170  -28203       8   28140   28158  -28164  -28200       8
   28131   28185  -28152  -28146       8   28128   28176  -28146  -28152       8
   28107   28149  -28131  -28152       8   28107   28143  -28128  -28146       8
   28107   28140  -28125  -28122       8   28125   28137  -28122  -28104       8
   28092   28098  -28113  -28134       8   28080   28086  -28104  -28122       8
   28107   28068  -28080  -28104       8   28074   28077  -28065  -28059       8
   28068   28071  -28062  -28059       8   28050   28062  -28059  -28065       8
   28038   28044  -28050  -28059       8   28023   28026  -28017  -28014       8
   28824   28830  -28881  -28905       8   28812   28818  -28872  -28902       8
   28800   28806  -28863  -28899       8   28788   28794  -28857  -28896       8
   28779   28785  -28845  -28893       8   28764   28770  -28836  -28890       8
   28758   28761  -28722  -28695       8   28752   28755  -28719  -28695       8
   28746   28749  -28713  -28686       8   28740   28743  -28710  -28686       8
   28734   28737  -28707  -28683       8   28728   28731  -28704  -28683       8
   28665   28719  -28695  -28722       8   28653   28710  -28686  -28713       8
   28647   28704  -28683  -28707       8   28632   28698  -28665  -28695       8
   28626   28689  -28653  -28686       8   28623   28641  -28647  -28683       8
   28614   28668  -28635  -28629       8   28611   28659  -28629  -28635       8
   28590   28632  -28614  -28635       8   28590   28626  -28611  -28629       8
   28590   28623  -28608  -28605       8   28608   28620  -28605  -28587       8
   28575   28581  -28596  -28617       8   28563   28569  -28587  -28605       8
   28590   28551  -28563  -28587       8   28557   28560  -28548  -28542       8
   28551   28554  -28545  -28542       8   28533   28545  -28542  -28548       8
   28521   28527  -28533  -28542       8   28506   28509  -28500  -28497       8
   29307   29313  -29364  -29388       8   29295   29301  -29355  -29385       8
   29283   29289  -29346  -29382       8   29271   29277  -29340  -29379       8
   29262   29268  -29328  -29376       8   29247   29253  -29319  -29373       8
   29241   29244  -29205  -29178       8   29235   29238  -29202  -29178       8
   29229   29232  -29196  -29169       8   29223   29226  -29193  -29169       8
   29217   29220  -29190  -29166       8   29211   29214  -29187  -29166       8
   29148   29202  -29178  -29205       8   29136   29193  -29169  -29196       8
   29130   29187  -29166  -29190       8   29115   29181  -29148  -29178       8
   29109   29172  -29136  -29169       8   29106   29124  -29130  -29166       8
   29097   29151  -29118  -29112       8   29094   29142  -29112  -29118       8
   29073   29115  -29097  -29118       8   29073   29109  -29094  -29112       8
   29073   29106  -29091  -29088       8   29091   29103  -29088  -29070       8
   29058   29064  -29079  -29100       8   29046   29052  -29070  -29088       8
   29073   29034  -29046  -29070       8   29040   29043  -29031  -29025       8
   29034   29037  -29028  -29025       8   29016   29028  -29025  -29031       8
   29004   29010  -29016  -29025       8   28989   28992  -28983  -28980       8
   29790   29796  -29847  -29871       8   29778   29784  -29838  -29868       8
   29766   29772  -29829  -29865       8   29754   29760  -29823  -29862       8
   29745   29751  -29811  -29859       8   29730   29736  -29802  -29856       8
   29724   29727  -29688  -29661       8   29718   29721  -29685  -29661       8
   29712   29715  -29679  -29652       8   29706   29709  -29676  -29652       8
   29700   29703  -29673  -29649       8   29694   29697  -29670  -29649       8
   29631   29685  -29661  -29688       8   29619   29676  -29652  -29679       8
   29613   29670  -29649  -29673       8   29598   29664  -29631  -29661       8
   29592   29655  -29619  -29652       8   29589   29607  -29613  -29649       8
   29580   29634  -29601  -29595       8   29577   29625  -29595  -29601       8
   29556   29598  -29580  -29601       8   29556   29592  -29577  -29595       8
   29556   29589  -29574  -29571       8   29574   29586  -29571  -29553       8
   29541   29547  -29562  -29583       8   29529   29535  -29553  -29571       8
   29556   29517  -29529  -29553       8   29523   29526  -29514  -29508       8
   29517   29520  -29511  -29508       8   29499   29511  -29508  -29514       8
   29487   29493  -29499  -29508       8   29472   29475  -29466  -29463       8
   30273   30279  -30330  -30354       8   30261   30267  -30321  -30351       8
   30249   30255  -30312  -30348       8   30237   30243  -30306  -30345       8
   30228   30234  -30294  -30342       8   30213   30219  -30285  -30339       8
   30207   30210  -30171  -30144       8   30201   30204  -30168  -30144       8
   30195   30198  -30162  -30135       8   30189   30192  -30159  -30135       8
   30183   30186  -30156  -30132       8   30177   30180  -30153  -30132       8
   30114   30168  -30144  -30171       8   30102   30159  -30135  -30162       8
   30096   30153  -30132  -30156       8   30081   30147  -30114  -30144       8
   30075   30138  -30102  -30135       8   30072   30090  -30096  -30132       8
   30063   30117  -30084  -30078       8   30060   30108  -30078  -30084       8
   30039   30081  -30063  -30084       8   30039   30075  -30060  -30078       8
   30039   30072  -30057  -30054       8   30057   30069  -30054  -30036       8
   30024   30030  -30045  -30066       8   30012   30018  -30036  -30054       8
   30039   30000  -30012  -30036       8   30006   30009  -29997  -29991       8
   30000   30003  -29994  -29991       8   29982   29994  -29991  -29997       8
   29970   29976  -29982  -29991       8   29955   29958  -29949  -29946       8
   30756   30762  -30813  -30837       8   30744   30750  -30804  -30834       8
   30732   30738  -30795  -30831       8   30720   30726  -30789  -30828       8
   30711   30717  -30777  -30825       8   30696   30702  -30768  -30822       8
   30690   30693  -30654  -30627       8   30684   30687  -30651  -30627       8
   30678   30681  -30645  -30618       8   30672   30675  -30642  -30618       8
   30666   30669  -30639  -30615       8   30660   30663  -30636  -30615       8
   30597   30651  -30627  -30654       8   30585   30642  -30618  -30645       8
   30579   30636  -30615  -30639       8   30564   30630  -30597  -30627       8
   30558   30621  -30585  -30618       8   30555   30573  -30579  -30615       8
   30546   30600  -30567  -30561       8   30543   30591  -30561  -30567       8
   30522   30564  -30546  -30567       8   30522   30558  -30543  -30561       8
   30522   30555  -30540  -30537       8   30540   30552  -30537  -30519       8
   30507   30513  -30528  -30549       8   30495   30501  -30519  -30537       8
   30522   30483  -30495  -30519       8   30489   30492  -30480  -30474       8
   30483   30486  -30477  -30474       8   30465   30477  -30474  -30480       8
   30453   30459  -30465  -30474       8   30438   30441  -30432  -30429       8
   31239   31245  -31296  -31320       8   31227   31233  -31287  -31317       8
   31215   31221  -31278  -31314       8   31203   31209  -31272  -31311       8
   31194   31200  -31260  -31308       8   31179   31185  -31251  -31305       8
   31173   31176  -31137  -31110       8   31167   31170  -31134  -31110       8
   31161   31164  -31128  -31101       8   31155   31158  -31125  -31101       8
   31149   31152  -31122  -31098       8   31143   31146  -31119  -31098       8
   31080   31134  -31110  -31137       8   31068   31125  -31101  -31128       8
   31062   31119  -31098  -31122       8   31047   31113  -31080  -31110       8
   31041   31104  -31068  -31101       8   31038   31056  -31062  -31098       8
   31029   31083  -31050  -31044       8   31026   31074  -31044  -31050       8
   31005   31047  -31029  -31050       8   31005   31041  -31026  -31044       8
   31005   31038  -31023  -31020       8   31023   31035  -31020  -31002       8
   30990   30996  -31011  -31032       8   30978   30984  -31002  -31020       8
   31005   30966  -30978  -31002       8   30972   30975  -30963  -30957       8
   30966   30969  -30960  -30957       8   30948   30960  -30957  -30963       8
   30936   30942  -30948  -30957       8   30921   30924  -30915  -30912       8
   31722   31728  -31779  -31803       8   31710   31716  -31770  -31800       8
   31698   31704  -31761  -31797       8   31686   31692  -31755  -31794       8
   31677   31683  -31743  -31791       8   31662   31668  -31734  -31788       8
   31656   31659  -31620  -31593       8   31650   31653  -31617  -31593       8
   31644   31647  -31611  -31584       8   31638   31641  -31608  -31584       8
   31632   31635  -31605  -31581       8   31626   31629  -31602  -31581       8
   31563   31617  -31593  -31620       8   31551   31608  -31584  -31611       8
   31545   31602  -31581  -31605       8   31530   31596  -31563  -31593       8
   31524   31587  -31551  -31584       8   31521   31539  -31545  -31581       8
   31512   31566  -31533  -31527       8   31509   31557  -31527  -31533       8
   31488   31530  -31512  -31533       8   31488   31524  -31509  -31527       8
   31488   31521  -31506  -31503       8   31506   31518  -31503  -31485       8
   31473   31479  -31494  -31515       8   31461   31467  -31485  -31503       8
   31488   31449  -31461  -31485       8   31455   31458  -31446  -31440       8
   31449   31452  -31443  -31440       8   31431   31443  -31440  -31446       8
   31419   31425  -31431  -31440       8   31404   31407  -31398  -31395       8
   32205   32211  -32262  -32286       8   32193   32199  -32253  -32283       8
   32181   32187  -32244  -32280       8   32169   32175  -32238  -32277       8
   32160   32166  -32226  -32274       8   32145   32151  -32217  -32271       8
   32139   32142  -32103  -32076       8   32133   32136  -32100  -32076       8
   32127   32130  -32094  -32067       8   32121   32124  -32091  -32067       8
   32115   32118  -32088  -32064       8   32109   32112  -32085  -32064       8
   32046   32100  -32076  -32103       8   32034   32091  -32067  -32094       8
   32028   32085  -32064  -32088       8   32013   32079  -32046  -32076       8
   32007   32070  -32034  -32067       8   32004   32022  -32028  -32064       8
   31995   32049  -32016  -32010       8   31992   32040  -32010  -32016       8
   31971   32013  -31995  -32016       8   31971   32007  -31992  -32010       8
   31971   32004  -31989  -31986       8   31989   32001  -31986  -31968       8
   31956   31962  -31977  -31998       8   31944   31950  -31968  -31986       8
   31971   31932  -31944  -31968       8   31938   31941  -31929  -31923       8
   31932   31935  -31926  -31923       8   31914   31926  -31923  -31929       8
   31902   31908  -31914  -31923       8   31887   31890  -31881  -31878       8
   32688   32694  -32745  -32769       8   32676   32682  -32736  -32766       8
   32664   32670  -32727  -32763       8   32652   32658  -32721  -32760       8
   32643   32649  -32709  -32757       8   32628   32634  -32700  -32754       8
   32622   32625  -32586  -32559       8   32616   32619  -32583  -32559       8
   32610   32613  -32577  -32550       8   32604   32607  -32574  -32550       8
   32598   32601  -32571  -32547       8   32592   32595  -32568  -32547       8
   32529   32583  -32559  -32586       8   32517   32574  -32550  -32577       8
   32511   32568  -32547  -32571       8   32496   32562  -32529  -32559       8
   32490   32553  -32517  -32550       8   32487   32505  -32511  -32547       8
   32478   32532  -32499  -32493       8   32475   32523  -32493  -32499       8
   32454   32496  -32478  -32499       8   32454   32490  -32475  -32493       8
   32454   32487  -32472  -32469       8   32472   32484  -32469  -32451       8
   32439   32445  -32460  -32481       8   32427   32433  -32451  -32469       8
   32454   32415  -32427  -32451       8   32421   32424  -32412  -32406       8
   32415   32418  -32409  -32406       8   32397   32409  -32406  -32412       8
   32385   32391  -32397  -32406       8   32370   32373  -32364  -32361       8
   33171   33177  -33228  -33252       8   33159   33165  -33219  -33249       8
   33147   33153  -33210  -33246       8   33135   33141  -33204  -33243       8
   33126   33132  -33192  -33240       8   33111   33117  -33183  -33237       8
   33105   33108  -33069  -33042       8   33099   33102  -33066  -33042       8
   33093   33096  -33060  -33033       8   33087   33090  -33057  -33033       8
   33081   33084  -33054  -33030       8   33075   33078  -33051  -33030       8
   33012   33066  -33042  -33069       8   33000   33057  -33033  -33060       8
   32994   33051  -33030  -33054       8   32979   33045  -33012  -33042       8
   32973   33036  -33000  -33033       8   32970   32988  -32994  -33030       8
   32961   33015  -32982  -32976       8   32958   33006  -32976  -32982       8
   32937   32979  -32961  -32982       8   32937   32973  -32958  -32976       8
   32937   32970  -32955  -32952       8   32955   32967  -32952  -32934       8
   32922   32928  -32943  -32964       8   32910   32916  -32934  -32952       8
   32937   32898  -32910  -32934       8   32904   32907  -32895  -32889       8
   32898   32901  -32892  -32889       8   32880   32892  -32889  -32895       8
   32868   32874  -32880  -32889       8   32853   32856  -32847  -32844       8
   33654   33660  -33711  -33735       8   33642   33648  -33702  -33732       8
   33630   33636  -33693  -33729       8   33618   33624  -33687  -33726       8
   33609   33615  -33675  -33723       8   33594   33600  -33666  -33720       8
   33588   33591  -33552  -33525       8   33582   33585  -33549  -33525       8
   33576   33579  -33543  -33516       8   33570   33573  -33540  -33516       8
   33564   33567  -33537  -33513       8   33558   33561  -33534  -33513       8
   33495   33549  -33525  -33552       8   33483   33540  -33516  -33543       8
   33477   33534  -33513  -33537       8   33462   33528  -33495  -33525       8
   33456   33519  -33483  -33516       8   33453   33471  -33477  -33513       8
   33444   33498  -33465  -33459       8   33441   33489  -33459  -33465       8
   33420   33462  -33444  -33465       8   33420   33456  -33441  -33459       8
   33420   33453  -33438  -33435       8   33438   33450  -33435  -33417       8
   33405   33411  -33426  -33447       8   33393   33399  -33417  -33435       8
   33420   33381  -33393  -33417       8   33387   33390  -33378  -33372       8
   33381   33384  -33375  -33372       8   33363   33375  -33372  -33378       8
   33351   33357  -33363  -33372       8   33336   33339  -33330  -33327       8
   34137   34143  -34194  -34218       8   34125   34131  -34185  -34215       8
   34113   34119  -34176  -34212       8   34101   34107  -34170  -34209       8
   34092   34098  -34158  -34206       8   34077   34083  -34149  -34203       8
   34071   34074  -34035  -34008       8   34065   34068  -34032  -34008       8
   34059   34062  -34026  -33999       8   34053   34056  -34023  -33999       8
   34047   34050  -34020  -33996       8   34041   34044  -34017  -33996       8
   33978   34032  -34008  -34035       8   33966   34023  -33999  -34026       8
   33960   34017  -33996  -34020       8   33945   34011  -33978  -34008       8
   33939   34002  -33966  -33999       8   33936   33954  -33960  -33996       8
   33927   33981  -33948  -33942       8   33924   33972  -33942  -33948       8
   33903   33945  -33927  -33948       8   33903   33939  -33924  -33942       8
   33903   33936  -33921  -33918       8   33921   33933  -33918  -33900       8
   33888   33894  -33909  -33930       8   33876   33882  -33900  -33918       8
   33903   33864  -33876  -33900       8   33870   33873  -33861  -33855       8
   33864   33867  -33858  -33855       8   33846   33858  -33855  -33861       8
   33834   33840  -33846  -33855       8   33819   33822  -33813  -33810       8
   34620   34626  -34677  -34701       8   34608   34614  -34668  -34698       8
   34596   34602  -34659  -34695       8   34584   34590  -34653  -34692       8
   34575   34581  -34641  -34689       8   34560   34566  -34632  -34686       8
   34554   34557  -34518  -34491       8   34548   34551  -34515  -34491       8
   34542   34545  -34509  -34482       8   34536   34539  -34506  -34482       8
   34530   34533  -34503  -34479       8   34524   34527  -34500  -34479       8
   34461   34515  -34491  -34518       8   34449   34506  -34482  -34509       8
   34443   34500  -34479  -34503       8   34428   34494  -34461  -34491       8
   34422   34485  -34449  -34482       8   34419   34437  -34443  -34479       8
   34410   34464  -34431  -34425       8   34407   34455  -34425  -34431       8
   34386   34428  -34410  -34431       8   34386   34422  -34407  -34425       8
   34386   34419  -34404  -34401       8   34404   34416  -34401  -34383       8
   34371   34377  -34392  -34413       8   34359   34365  -34383  -34401       8
   34386   34347  -34359  -34383       8   34353   34356  -34344  -34338       8
   34347   34350  -34341  -34338       8   34329   34341  -34338  -34344       8
   34317   34323  -34329  -34338       8   34302   34305  -34296  -34293       8
   35103   35109  -35160  -35184       8   35091   35097  -35151  -35181       8
   35079   35085  -35142  -35178       8   35067   35073  -35136  -35175       8
   35058   35064  -35124  -35172       8   35043   35049  -35115  -35169       8
   35037   35040  -35001  -34974       8   35031   35034  -34998  -34974       8
   35025   35028  -34992  -34965       8   35019   35022  -34989  -34965       8
   35013   35016  -34986  -34962       8   35007   35010  -34983  -34962       8
   34944   34998  -34974  -35001       8   34932   34989  -34965  -34992       8
   34926   34983  -34962  -34986       8   34911   34977  -34944  -34974       8
   34905   34968  -34932  -34965       8   34902   34920  -34926  -34962       8
   34893   34947  -34914  -34908       8   34890   34938  -34908  -34914       8
   34869   34911  -34893  -34914       8   34869   34905  -34890  -34908       8
   34869   34902  -34887  -34884       8   34887   34899  -34884  -34866       8
   34854   34860  -34875  -34896       8   34842   34848  -34866  -34884       8
   34869   34830  -34842  -34866       8   34836   34839  -34827  -34821       8
   34830   34833  -34824  -34821       8   34812   34824  -34821  -34827       8
   34800   34806  -34812  -34821       8   34785   34788  -34779  -34776       8
   35586   35592  -35643  -35667       8   35574   35580  -35634  -35664       8
   35562   35568  -35625  -35661       8   35550   35556  -35619  -35658       8
   35541   35547  -35607  -35655       8   35526   35532  -35598  -35652       8
   35520   35523  -35484  -35457       8   35514   35517  -35481  -35457       8
   35508   35511  -35475  -35448       8   35502   35505  -35472  -35448       8
   35496   35499  -35469  -35445       8   35490   35493  -35466  -35445       8
   35427   35481  -35457  -35484       8   35415   35472  -35448  -35475       8
   35409   35466  -35445  -35469       8   35394   35460  -35427  -35457       8
   35388   35451  -35415  -35448       8   35385   35403  -35409  -35445       8
   35376   35430  -35397  -35391       8   35373   35421  -35391  -35397       8
   35352   35394  -35376  -35397       8   35352   35388  -35373  -35391       8
   35352   35385  -35370  -35367       8   35370   35382  -35367  -35349       8
   35337   35343  -35358  -35379       8   35325   35331  -35349  -35367       8
   35352   35313  -35325  -35349       8   35319   35322  -35310  -35304       8
   35313   35316  -35307  -35304       8   35295   35307  -35304  -35310       8
   35283   35289  -35295  -35304       8   35268   35271  -35262  -35259       8
   36069   36075  -36126  -36150       8   36057   36063  -36117  -36147       8
   36045   36051  -36108  -36144       8   36033   36039  -36102  -36141       8
   36024   36030  -36090  -36138       8   36009   36015  -36081  -36135       8
   36003   36006  -35967  -35940       8   35997   36000  -35964  -35940       8
   35991   35994  -35958  -35931       8   35985   35988  -35955  -35931       8
   35979   35982  -35952  -35928       8   35973   35976  -35949  -35928       8
   35910   35964  -35940  -35967       8   35898   35955  -35931  -35958       8
   35892   35949  -35928  -35952       8   35877   35943  -35910  -35940       8
   35871   35934  -35898  -35931       8   35868   35886  -35892  -35928       8
   35859   35913  -35880  -35874       8   35856   35904  -35874  -35880       8
   35835   35877  -35859  -35880       8   35835   35871  -35856  -35874       8
   35835   35868  -35853  -35850       8   35853   35865  -35850  -35832       8
   35820   35826  -35841  -35862       8   35808   35814  -35832  -35850       8
   35835   35796  -35808  -35832       8   35802   35805  -35793  -35787       8
   35796   35799  -35790  -35787       8   35778   35790  -35787  -35793       8
   35766   35772  -35778  -35787       8   35751   35754  -35745  -35742       8
   36552   36558  -36609  -36633       8   36540   36546  -36600  -36630       8
   36528   36534  -36591  -36627       8   36516   36522  -36585  -36624       8
   36507   36513  -36573  -36621       8   36492   36498  -36564  -36618       8
   36486   36489  -36450  -36423       8   36480   36483  -36447  -36423       8
   36474   36477  -36441  -36414       8   36468   36471  -36438  -36414       8
   36462   36465  -36435  -36411       8   36456   36459  -36432  -36411       8
   36393   36447  -36423  -36450       8   36381   36438  -36414  -36441       8
   36375   36432  -36411  -36435       8   36360   36426  -36393  -36423       8
   36354   36417  -36381  -36414       8   36351   36369  -36375  -36411       8
   36342   36396  -36363  -36357       8   36339   36387  -36357  -36363       8
   36318   36360  -36342  -36363       8   36318   36354  -36339  -36357       8
   36318   36351  -36336  -36333       8   36336   36348  -36333  -36315       8
   36303   36309  -36324  -36345       8   36291   36297  -36315  -36333       8
   36318   36279  -36291  -36315       8   36285   36288  -36276  -36270       8
   36279   36282  -36273  -36270       8   36261   36273  -36270  -36276       8
   36249   36255  -36261  -36270       8   36234   36237  -36228  -36225       8
   37035   37041  -37092  -37116       8   37023   37029  -37083  -37113       8
   37011   37017  -37074  -37110       8   36999   37005  -37068  -37107       8
   36990   36996  -37056  -37104       8   36975   36981  -37047  -37101       8
   36969   36972  -36933  -36906       8   36963   36966  -36930  -36906       8
   36957   36960  -36924  -36897       8   36951   36954  -36921  -36897       8
   36945   36948  -36918  -36894       8   36939   36942  -36915  -36894       8
   36876   36930  -36906  -36933       8   36864   36921  -36897  -36924       8
   36858   36915  -36894  -36918       8   36843   36909  -36876  -36906       8
   36837   36900  -36864  -36897       8   36834   36852  -36858  -36894       8
   36825   36879  -36846  -36840       8   36822   36870  -36840  -36846       8
   36801   36843  -36825  -36846       8   36801   36837  -36822  -36840       8
   36801   36834  -36819  -36816       8   36819   36831  -36816  -36798       8
   36786   36792  -36807  -36828       8   36774   36780  -36798  -36816       8
   36801   36762  -36774  -36798       8   36768   36771  -36759  -36753       8
   36762   36765  -36756  -36753       8   36744   36756  -36753  -36759       8
   36732   36738  -36744  -36753       8   36717   36720  -36711  -36708       8
   37518   37524  -37575  -37599       8   37506   37512  -37566  -37596       8
   37494   37500  -37557  -37593       8   37482   37488  -37551  -37590       8
   37473   37479  -37539  -37587       8   37458   37464  -37530  -37584       8
   37452   37455  -37416  -37389       8   37446   37449  -37413  -37389       8
   37440   37443  -37407  -37380       8   37434   37437  -37404  -37380       8
   37428   37431  -37401  -37377       8   37422   37425  -37398  -37377       8
   37359   37413  -37389  -37416       8   37347   37404  -37380  -37407       8
   37341   37398  -37377  -37401       8   37326   37392  -37359  -37389       8
   37320   37383  -37347  -37380       8   37317   37335  -37341  -37377       8
   37308   37362  -37329  -37323       8   37305   37353  -37323  -37329       8
   37284   37326  -37308  -37329       8   37284   37320  -37305  -37323       8
   37284   37317  -37302  -37299       8   37302   37314  -37299  -37281       8
   37269   37275  -37290  -37311       8   37257   37263  -37281  -37299       8
   37284   37245  -37257  -37281       8   37251   37254  -37242  -37236       8
   37245   37248  -37239  -37236       8   37227   37239  -37236  -37242       8
   37215   37221  -37227  -37236       8   37200   37203  -37194  -37191       8
   38001   38007  -38058  -38082       8   37989   37995  -38049  -38079       8
   37977   37983  -38040  -38076       8   37965   37971  -38034  -38073       8
   37956   37962  -38022  -38070       8   37941   37947  -38013  -38067       8
   37935   37938  -37899  -37872       8   37929   37932  -37896  -37872       8
   37923   37926  -37890  -37863       8   37917   37920  -37887  -37863       8
   37911   37914  -37884  -37860       8   37905   37908  -37881  -37860       8
   37842   37896  -37872  -37899       8   37830   37887  -37863  -37890       8
   37824   37881  -37860  -37884       8   37809   37875  -37842  -37872       8
   37803   37866  -37830  -37863       8   37800   37818  -37824  -37860       8
   37791   37845  -37812  -37806       8   37788   37836  -37806  -37812       8
   37767   37809  -37791  -37812       8   37767   37803  -37788  -37806       8
   37767   37800  -37785  -37782       8   37785   37797  -37782  -37764       8
   37752   37758  -37773  -37794       8   37740   37746  -37764  -37782       8
   37767   37728  -37740  -37764       8   37734   37737  -37725  -37719       8
   37728   37731  -37722  -37719       8   37710   37722  -37719  -37725       8
   37698   37704  -37710  -37719       8   37683   37686  -37677  -37674       8
   38484   38490  -38541  -38565       8   38472   38478  -38532  -38562       8
   38460   38466  -38523  -38559       8   38448   38454  -38517  -38556       8
   38439   38445  -38505  -38553       8   38424   38430  -38496  -38550       8
   38418   38421  -38382  -38355       8   38412   38415  -38379  -38355       8
   38406   38409  -38373  -38346       8   38400   38403  -38370  -38346       8
   38394   38397  -38367  -38343       8   38388   38391  -38364  -38343       8
   38325   38379  -38355  -38382       8   38313   38370  -38346  -38373       8
   38307   38364  -38343  -38367       8   38292   38358  -38325  -38355       8
   38286   38349  -38313  -38346       8   38283   38301  -38307  -38343       8
   38274   38328  -38295  -38289       8   38271   38319  -38289  -38295       8
   38250   38292  -38274  -38295       8   38250   38286  -38271  -38289       8
   38250   38283  -38268  -38265       8   38268   38280  -38265  -38247       8
   38235   38241  -38256  -38277       8   38223   38229  -38247  -38265       8
   38250   38211  -38223  -38247       8   38217   38220  -38208  -38202       8
   38211   38214  -38205  -38202       8   38193   38205  -38202  -38208       8
   38181   38187  -38193  -38202       8   38166   38169  -38160  -38157       8
   38967   38973  -39024  -39048       8   38955   38961  -39015  -39045       8
   38943   38949  -39006  -39042       8   38931   38937  -39000  -39039       8
   38922   38928  -38988  -39036       8   38907   38913  -38979  -39033       8
   38901   38904  -38865  -38838       8   38895   38898  -38862  -38838       8
   38889   38892  -38856  -38829       8   38883   38886  -38853  -38829       8
   38877   38880  -38850  -38826       8   38871   38874  -38847  -38826       8
   38808   38862  -38838  -38865       8   38796   38853  -38829  -38856       8
   38790   38847  -38826  -38850       8   38775   38841  -38808  -38838       8
   38769   38832  -38796  -38829       8   38766   38784  -38790  -38826       8
   38757   38811  -38778  -38772       8   38754   38802  -38772  -38778       8
   38733   38775  -38757  -38778       8   38733   38769  -38754  -38772       8
   38733   38766  -38751  -38748       8   38751   38763  -38748  -38730       8
   38718   38724  -38739  -38760       8   38706   38712  -38730  -38748       8
   38733   38694  -38706  -38730       8   38700   38703  -38691  -38685       8
   38694   38697  -38688  -38685       8   38676   38688  -38685  -38691       8
   38664   38670  -38676  -38685       8   38649   38652  -38643  -38640       8
   39450   39456  -39507  -39531       8   39438   39444  -39498  -39528       8
   39426   39432  -39489  -39525       8   39414   39420  -39483  -39522       8
   39405   39411  -39471  -39519       8   39390   39396  -39462  -39516       8
   39384   39387  -39348  -39321       8   39378   39381  -39345  -39321       8
   39372   39375  -39339  -39312       8   39366   39369  -39336  -39312       8
   39360   39363  -39333  -39309       8   39354   39357  -39330  -39309       8
   39291   39345  -39321  -39348       8   39279   39336  -39312  -39339       8
   39273   39330  -39309  -39333       8   39258   39324  -39291  -39321       8
   39252   39315  -39279  -39312       8   39249   39267  -39273  -39309       8
   39240   39294  -39261  -39255       8   39237   39285  -39255  -39261       8
   39216   39258  -39240  -39261       8   39216   39252  -39237  -39255       8
   39216   39249  -39234  -39231       8   39234   39246  -39231  -39213       8
   39201   39207  -39222  -39243       8   39189   39195  -39213  -39231       8
   39216   39177  -39189  -39213       8   39183   39186  -39174  -39168       8
   39177   39180  -39171  -39168       8   39159   39171  -39168  -39174       8
   39147   39153  -39159  -39168       8   39132   39135  -39126  -39123       8
   39933   39939  -39990  -40014       8   39921   39927  -39981  -40011       8
   39909   39915  -39972  -40008       8   39897   39903  -39966  -40005       8
   39888   39894  -39954  -40002       8   39873   39879  -39945  -39999       8
   39867   39870  -39831  -39804       8   39861   39864  -39828  -39804       8
   39855   39858  -39822  -39795       8   39849   39852  -39819  -39795       8
   39843   39846  -39816  -39792       8   39837   39840  -39813  -39792       8
   39774   39828  -39804  -39831       8   39762   39819  -39795  -39822       8
   39756   39813  -39792  -39816       8   39741   39807  -39774  -39804       8
   39735   39798  -39762  -39795       8   39732   39750  -39756  -39792       8
   39723   39777  -39744  -39738       8   39720   39768  -39738  -39744       8
   39699   39741  -39723  -39744       8   39699   39735  -39720  -39738       8
   39699   39732  -39717  -39714       8   39717   39729  -39714  -39696       8
   39684   39690  -39705  -39726       8   39672   39678  -39696  -39714       8
   39699   39660  -39672  -39696       8   39666   39669  -39657  -39651       8
   39660   39663  -39654  -39651       8   39642   39654  -39651  -39657       8
   39630   39636  -39642  -39651       8   39615   39618  -39609  -39606       8
   40416   40422  -40473  -40497       8   40404   40410  -40464  -40494       8
   40392   40398  -40455  -40491       8   40380   40386  -40449  -40488       8
   40371   40377  -40437  -40485       8   40356   40362  -40428  -40482       8
   40350   40353  -40314  -40287       8   40344   40347  -40311  -40287       8
   40338   40341  -40305  -40278       8   40332   40335  -40302  -40278       8
   40326   40329  -40299  -40275       8   40320   40323  -40296  -40275       8
   40257   40311  -40287  -40314       8   40245   40302  -40278  -40305       8
   40239   40296  -40275  -40299       8   40224   40290  -40257  -40287       8
   40218   40281  -40245  -40278       8   40215   40233  -40239  -40275       8
   40206   40260  -40227  -40221       8   40203   40251  -40221  -40227       8
   40182   40224  -40206  -40227       8   40182   40218  -40203  -40221       8
   40182   40215  -40200  -40197       8   40200   40212  -40197  -40179       8
   40167   40173  -40188  -40209       8   40155   40161  -40179  -40197       8
   40182   40143  -40155  -40179       8   40149   40152  -40140  -40134       8
   40143   40146  -40137  -40134       8   40125   40137  -40134  -40140       8
   40113   40119  -40125  -40134       8   40098   40101  -40092  -40089       8
   40899   40905  -40956  -40980       8   40887   40893  -40947  -40977       8
   40875   40881  -40938  -40974       8   40863   40869  -40932  -40971       8
   40854   40860  -40920  -40968       8   40839   40845  -40911  -40965       8
   40833   40836  -40797  -40770       8   40827   40830  -40794  -40770       8
   40821   40824  -40788  -40761       8   40815   40818  -40785  -40761       8
   40809   40812  -40782  -40758       8   40803   40806  -40779  -40758       8
   40740   40794  -40770  -40797       8   40728   40785  -40761  -40788       8
   40722   40779  -40758  -40782       8   40707   40773  -40740  -40770       8
   40701   40764  -40728  -40761       8   40698   40716  -40722  -40758       8
   40689   40743  -40710  -40704       8   40686   40734  -40704  -40710       8
   40665   40707  -40689  -40710       8   40665   40701  -40686  -40704       8
   40665   40698  -40683  -40680       8   40683   40695  -40680  -40662       8
   40650   40656  -40671  -40692       8   40638   40644  -40662  -40680       8
   40665   40626  -40638  -40662       8   40632   40635  -40623  -40617       8
   40626   40629  -40620  -40617       8   40608   40620  -40617  -40623       8
   40596   40602  -40608  -40617       8   40581   40584  -40575  -40572       8
   41382   41388  -41439  -41463       8   41370   41376  -41430  -41460       8
   41358   41364  -41421  -41457       8   41346   41352  -41415  -41454       8
   41337   41343  -41403  -41451       8   41322   41328  -41394  -41448       8
   41316   41319  -41280  -41253       8   41310   41313  -41277  -41253       8
   41304   41307  -41271  -41244       8   41298   41301  -41268  -41244       8
   41292   41295  -41265  -41241       8   41286   41289  -41262  -41241       8
   41223   41277  -41253  -41280       8   41211   41268  -41244  -41271       8
   41205   41262  -41241  -41265       8   41190   41256  -41223  -41253       8
   41184   41247  -41211  -41244       8   41181   41199  -41205  -41241       8
   41172   41226  -41193  -41187       8   41169   41217  -41187  -41193       8
   41148   41190  -41172  -41193       8   41148   41184  -41169  -41187       8
   41148   41181  -41166  -41163       8   41166   41178  -41163  -41145       8
   41133   41139  -41154  -41175       8   41121   41127  -41145  -41163       8
   41148   41109  -41121  -41145       8   41115   41118  -41106  -41100       8
   41109   41112  -41103  -41100       8   41091   41103  -41100  -41106       8
   41079   41085  -41091  -41100       8   41064   41067  -41058  -41055       8
   41865   41871  -41922  -41946       8   41853   41859  -41913  -41943       8
   41841   41847  -41904  -41940       8   41829   41835  -41898  -41937       8
   41820   41826  -41886  -41934       8   41805   41811  -41877  -41931       8
   41799   41802  -41763  -41736       8   41793   41796  -41760  -41736       8
   41787   41790  -41754  -41727       8   41781   41784  -41751  -41727       8
   41775   41778  -41748  -41724       8   41769   41772  -41745  -41724       8
   41706   41760  -41736  -41763       8   41694   41751  -41727  -41754       8
   41688   41745  -41724  -41748       8   41673   41739  -41706  -41736       8
   41667   41730  -41694  -41727       8   41664   41682  -41688  -41724       8
   41655   41709  -41676  -41670       8   41652   41700  -41670  -41676       8
   41631   41673  -41655  -41676       8   41631   41667  -41652  -41670       8
   41631   41664  -41649  -41646       8   41649   41661  -41646  -41628       8
   41616   41622  -41637  -41658       8   41604   41610  -41628  -41646       8
   41631   41592  -41604  -41628       8   41598   41601  -41589  -41583       8
   41592   41595  -41586  -41583       8   41574   41586  -41583  -41589       8
   41562   41568  -41574  -41583       8   41547   41550  -41541  -41538       8
   42348   42354  -42405  -42429       8   42336   42342  -42396  -42426       8
   42324   42330  -42387  -42423       8   42312   42318  -42381  -42420       8
   42303   42309  -42369  -42417       8   42288   42294  -42360  -42414       8
   42282   42285  -42246  -42219       8   42276   42279  -42243  -42219       8
   42270   42273  -42237  -42210       8   42264   42267  -42234  -42210       8
   42258   42261  -42231  -42207       8   42252   42255  -42228  -42207       8
   42189   42243  -42219  -42246       8   42177   42234  -42210  -42237       8
   42171   42228  -42207  -42231       8   42156   42222  -42189  -42219       8
   42150   42213  -42177  -42210       8   42147   42165  -42171  -42207       8
   42138   42192  -42159  -42153       8   42135   42183  -42153  -42159       8
   42114   42156  -42138  -42159       8   42114   42150  -42135  -42153       8
   42114   42147  -42132  -42129       8   42132   42144  -42129  -42111       8
   42099   42105  -42120  -42141       8   42087   42093  -42111  -42129       8
   42114   42075  -42087  -42111       8   42081   42084  -42072  -42066       8
   42075   42078  -42069  -42066       8   42057   42069  -42066  -42072       8
   42045   42051  -42057  -42066       8   42030   42033  -42024  -42021       8
   42831   42837  -42888  -42912       8   42819   42825  -42879  -42909       8
   42807   42813  -42870  -42906       8   42795   42801  -42864  -42903       8
   42786   42792  -42852  -42900       8   42771   42777  -42843  -42897       8
   42765   42768  -42729  -42702       8   42759   42762  -42726  -42702       8
   42753   42756  -42720  -42693       8   42747   42750  -42717  -42693       8
   42741   42744  -42714  -42690       8   42735   42738  -42711  -42690       8
   42672   42726  -42702  -42729       8   42660   42717  -42693  -42720       8
   42654   42711  -42690  -42714       8   42639   42705  -42672  -42702       8
   42633   42696  -42660  -42693       8   42630   42648  -42654  -42690       8
   42621   42675  -42642  -42636       8   42618   42666  -42636  -42642       8
   42597   42639  -42621  -42642       8   42597   42633  -42618  -42636       8
   42597   42630  -42615  -42612       8   42615   42627  -42612  -42594       8
   42582   42588  -42603  -42624       8   42570   42576  -42594  -42612       8
   42597   42558  -42570  -42594       8   42564   42567  -42555  -42549       8
   42558   42561  -42552  -42549       8   42540   42552  -42549  -42555       8
   42528   42534  -42540  -42549       8   42513   42516  -42507  -42504       8
   43314   43320  -43371  -43395       8   43302   43308  -43362  -43392       8
   43290   43296  -43353  -43389       8   43278   43284  -43347  -43386       8
   43269   43275  -43335  -43383       8   43254   43260  -43326  -43380       8
   43248   43251  -43212  -43185       8   43242   43245  -43209  -43185       8
   43236   43239  -43203  -43176       8   43230   43233  -43200  -43176       8
   43224   43227  -43197  -43173       8   43218   43221  -43194  -43173       8
   43155   43209  -43185  -43212       8   43143   43200  -43176  -43203       8
   43137   43194  -43173  -43197       8   43122   43188  -43155  -43185       8
   43116   43179  -43143  -43176       8   43113   43131  -43137  -43173       8
   43104   43158  -43125  -43119       8   43101   43149  -43119  -43125       8
   43080   43122  -43104  -43125       8   43080   43116  -43101  -43119       8
   43080   43113  -43098  -43095       8   43098   43110  -43095  -43077       8
   43065   43071  -43086  -43107       8   43053   43059  -43077  -43095       8
   43080   43041  -43053  -43077       8   43047   43050  -43038  -43032       8
   43041   43044  -43035  -43032       8   43023   43035  -43032  -43038       8
   43011   43017  -43023  -43032       8   42996   42999  -42990  -42987       8
   43797   43803  -43854  -43878       8   43785   43791  -43845  -43875       8
   43773   43779  -43836  -43872       8   43761   43767  -43830  -43869       8
   43752   43758  -43818  -43866       8   43737   43743  -43809  -43863       8
   43731   43734  -43695  -43668       8   43725   43728  -43692  -43668       8
   43719   43722  -43686  -43659       8   43713   43716  -43683  -43659       8
   43707   43710  -43680  -43656       8   43701   43704  -43677  -43656       8
   43638   43692  -43668  -43695       8   43626   43683  -43659  -43686       8
   43620   43677  -43656  -43680       8   43605   43671  -43638  -43668       8
   43599   43662  -43626  -43659       8   43596   43614  -43620  -43656       8
   43587   43641  -43608  -43602       8   43584   43632  -43602  -43608       8
   43563   43605  -43587  -43608       8   43563   43599  -43584  -43602       8
   43563   43596  -43581  -43578       8   43581   43593  -43578  -43560       8
   43548   43554  -43569  -43590       8   43536   43542  -43560  -43578       8
   43563   43524  -43536  -43560       8   43530   43533  -43521  -43515       8
   43524   43527  -43518  -43515       8   43506   43518  -43515  -43521       8
   43494   43500  -43506  -43515       8   43479   43482  -43473  -43470       8
   44280   44286  -44337  -44361       8   44268   44274  -44328  -44358       8
   44256   44262  -44319  -44355       8   44244   44250  -44313  -44352       8
   44235   44241  -44301  -44349       8   44220   44226  -44292  -44346       8
   44214   44217  -44178  -44151       8   44208   44211  -44175  -44151       8
   44202   44205  -44169  -44142       8   44196   44199  -44166  -44142       8
   44190   44193  -44163  -44139       8   44184   44187  -44160  -44139       8
   44121   44175  -44151  -44178       8   44109   44166  -44142  -44169       8
   44103   44160  -44139  -44163       8   44088   44154  -44121  -44151       8
   44082   44145  -44109  -44142       8   44079   44097  -44103  -44139       8
   44070   44124  -44091  -44085       8   44067   44115  -44085  -44091       8
   44046   44088  -44070  -44091       8   44046   44082  -44067  -44085       8
   44046   44079  -44064  -44061       8   44064   44076  -44061  -44043       8
   44031   44037  -44052  -44073       8   44019   44025  -44043  -44061       8
   44046   44007  -44019  -44043       8   44013   44016  -44004  -43998       8
   44007   44010  -44001  -43998       8   43989   44001  -43998  -44004       8
   43977   43983  -43989  -43998       8   43962   43965  -43956  -43953       8
   44763   44769  -44820  -44844       8   44751   44757  -44811  -44841       8
   44739   44745  -44802  -44838       8   44727   44733  -44796  -44835       8
   44718   44724  -44784  -44832       8   44703   44709  -44775  -44829       8
   44697   44700  -44661  -44634       8   44691   44694  -44658  -44634       8
   44685   44688  -44652  -44625       8   44679   44682  -44649  -44625       8
   44673   44676  -44646  -44622       8   44667   44670  -44643  -44622       8
   44604   44658  -44634  -44661       8   44592   44649  -44625  -44652       8
   44586   44643  -44622  -44646       8   44571   44637  -44604  -44634       8
   44565   44628  -44592  -44625       8   44562   44580  -44586  -44622       8
   44553   44607  -44574  -44568       8   44550   44598  -44568  -44574       8
   44529   44571  -44553  -44574       8   44529   44565  -44550  -44568       8
   44529   44562  -44547  -44544       8   44547   44559  -44544  -44526       8
   44514   44520  -44535  -44556       8   44502   44508  -44526  -44544       8
   44529   44490  -44502  -44526       8   44496   44499  -44487  -44481       8
   44490   44493  -44484  -44481       8   44472   44484  -44481  -44487       8
   44460   44466  -44472  -44481       8   44445   44448  -44439  -44436       8
   45246   45252  -45303  -45327       8   45234   45240  -45294  -45324       8
   45222   45228  -45285  -45321       8   45210   45216  -45279  -45318       8
   45201   45207  -45267  -45315       8   45186   45192  -45258  -45312       8
   45180   45183  -45144  -45117       8   45174   45177  -45141  -45117       8
   45168   45171  -45135  -45108       8   45162   45165  -45132  -45108       8
   45156   45159  -45129  -45105       8   45150   45153  -45126  -45105       8
   45087   45141  -45117  -45144       8   45075   45132  -45108  -45135       8
   45069   45126  -45105  -45129       8   45054   45120  -45087  -45117       8
   45048   45111  -45075  -45108       8   45045   45063  -45069  -45105       8
   45036   45090  -45057  -45051       8   45033   45081  -45051  -45057       8
   45012   45054  -45036  -45057       8   45012   45048  -45033  -45051       8
   45012   45045  -45030  -45027       8   45030   45042  -45027  -45009       8
   44997   45003  -45018  -45039       8   44985   44991  -45009  -45027       8
   45012   44973  -44985  -45009       8   44979   44982  -44970  -44964       8
   44973   44976  -44967  -44964       8   44955   44967  -44964  -44970       8
   44943   44949  -44955  -44964       8   44928   44931  -44922  -44919       8
   45729   45735  -45786  -45810       8   45717   45723  -45777  -45807       8
   45705   45711  -45768  -45804       8   45693   45699  -45762  -45801       8
   45684   45690  -45750  -45798       8   45669   45675  -45741  -45795       8
   45663   45666  -45627  -45600       8   45657   45660  -45624  -45600       8
   45651   45654  -45618  -45591       8   45645   45648  -45615  -45591       8
   45639   45642  -45612  -45588       8   45633   45636  -45609  -45588       8
   45570   45624  -45600  -45627       8   45558   45615  -45591  -45618       8
   45552   45609  -45588  -45612       8   45537   45603  -45570  -45600       8
   45531   45594  -45558  -45591       8   45528   45546  -45552  -45588       8
   45519   45573  -45540  -45534       8   45516   45564  -45534  -45540       8
   45495   45537  -45519  -45540       8   45495   45531  -45516  -45534       8
   45495   45528  -45513  -45510       8   45513   45525  -45510  -45492       8
   45480   45486  -45501  -45522       8   45468   45474  -45492  -45510       8
   45495   45456  -45468  -45492       8   45462   45465  -45453  -45447       8
   45456   45459  -45450  -45447       8   45438   45450  -45447  -45453       8
   45426   45432  -45438  -45447       8   45411   45414  -45405  -45402       8
   46212   46218  -46269  -46293       8   46200   46206  -46260  -46290       8
   46188   46194  -46251  -46287       8   46176   46182  -46245  -46284       8
   46167   46173  -46233  -46281       8   46152   46158  -46224  -46278       8
   46146   46149  -46110  -46083       8   46140   46143  -46107  -46083       8
   46134   46137  -46101  -46074       8   46128   46131  -46098  -46074       8
   46122   46125  -46095  -46071       8   46116   46119  -46092  -46071       8
   46053   46107  -46083  -46110       8   46041   46098  -46074  -46101       8
   46035   46092  -46071  -46095       8   46020   46086  -46053  -46083       8
   46014   46077  -46041  -46074       8   46011   46029  -46035  -46071       8
   46002   46056  -46023  -46017       8   45999   46047  -46017  -46023       8
   45978   46020  -46002  -46023       8   45978   46014  -45999  -46017       8
   45978   46011  -45996  -45993       8   45996   46008  -45993  -45975       8
   45963   45969  -45984  -46005       8   45951   45957  -45975  -45993       8
   45978   45939  -45951  -45975       8   45945   45948  -45936  -45930       8
   45939   45942  -45933  -45930       8   45921   45933  -45930  -45936       8
   45909   45915  -45921  -45930       8   45894   45897  -45888  -45885       8
   46695   46701  -46752  -46776       8   46683   46689  -46743  -46773       8
   46671   46677  -46734  -46770       8   46659   46665  -46728  -46767       8
   46650   46656  -46716  -46764       8   46635   46641  -46707  -46761       8
   46629   46632  -46593  -46566       8   46623   46626  -46590  -46566       8
   46617   46620  -46584  -46557       8   46611   46614  -46581  -46557       8
   46605   46608  -46578  -46554       8   46599   46602  -46575  -46554       8
   46536   46590  -46566  -46593       8   46524   46581  -46557  -46584       8
   46518   46575  -46554  -46578       8   46503   46569  -46536  -46566       8
   46497   46560  -46524  -46557       8   46494   46512  -46518  -46554       8
   46485   46539  -46506  -46500       8   46482   46530  -46500  -46506       8
   46461   46503  -46485  -46506       8   46461   46497  -46482  -46500       8
   46461   46494  -46479  -46476       8   46479   46491  -46476  -46458       8
   46446   46452  -46467  -46488       8   46434   46440  -46458  -46476       8
   46461   46422  -46434  -46458       8   46428   46431  -46419  -46413       8
   46422   46425  -46416  -46413       8   46404   46416  -46413  -46419       8
   46392   46398  -46404  -46413       8   46377   46380  -46371  -46368       8
   47178   47184  -47235  -47259       8   47166   47172  -47226  -47256       8
   47154   47160  -47217  -47253       8   47142   47148  -47211  -47250       8
   47133   47139  -47199  -47247       8   47118   47124  -47190  -47244       8
   47112   47115  -47076  -47049       8   47106   47109  -47073  -47049       8
   47100   47103  -47067  -47040       8   47094   47097  -47064  -47040       8
   47088   47091  -47061  -47037       8   47082   47085  -47058  -47037       8
   47019   47073  -47049  -47076       8   47007   47064  -47040  -47067       8
   47001   47058  -47037  -47061       8   46986   47052  -47019  -47049       8
   46980   47043  -47007  -47040       8   46977   46995  -47001  -47037       8
   46968   47022  -46989  -46983       8   46965   47013  -46983  -46989       8
   46944   46986  -46968  -46989       8   46944   46980  -46965  -46983       8
   46944   46977  -46962  -46959       8   46962   46974  -46959  -46941       8
   46929   46935  -46950  -46971       8   46917   46923  -46941  -46959       8
   46944   46905  -46917  -46941       8   46911   46914  -46902  -46896       8
   46905   46908  -46899  -46896       8   46887   46899  -46896  -46902       8
   46875   46881  -46887  -46896       8   46860   46863  -46854  -46851       8
   47661   47667  -47718  -47742       8   47649   47655  -47709  -47739       8
   47637   47643  -47700  -47736       8   47625   47631  -47694  -47733       8
   47616   47622  -47682  -47730       8   47601   47607  -47673  -47727       8
   47595   47598  -47559  -47532       8   47589   47592  -47556  -47532       8
   47583   47586  -47550  -47523       8   47577   47580  -47547  -47523       8
   47571   47574  -47544  -47520       8   47565   47568  -47541  -47520       8
   47502   47556  -47532  -47559       8   47490   47547  -47523  -47550       8
   47484   47541  -47520  -47544       8   47469   47535  -47502  -47532       8
   47463   47526  -47490  -47523       8   47460   47478  -47484  -47520       8
   47451   47505  -47472  -47466       8   47448   47496  -47466  -47472       8
   47427   47469  -47451  -47472       8   47427   47463  -47448  -47466       8
   47427   47460  -47445  -47442       8   47445   47457  -47442  -47424       8
   47412   47418  -47433  -47454       8   47400   47406  -47424  -47442       8
   47427   47388  -47400  -47424       8   47394   47397  -47385  -47379       8
   47388   47391  -47382  -47379       8   47370   47382  -47379  -47385       8
   47358   47364  -47370  -47379       8   47343   47346  -47337  -47334       8
   48144   48150  -48201  -48225       8   48132   48138  -48192  -48222       8
   48120   48126  -48183  -48219       8   48108   48114  -48177  -48216       8
   48099   48105  -48165  -48213       8   48084   48090  -48156  -48210       8
   48078   48081  -48042  -48015       8   48072   48075  -48039  -48015       8
   48066   48069  -48033  -48006       8   48060   48063  -48030  -48006       8
   48054   48057  -48027  -48003       8   48048   48051  -48024  -48003       8
   47985   48039  -48015  -48042       8   47973   48030  -48006  -48033       8
   47967   48024  -48003  -48027       8   47952   48018  -47985  -48015       8
   47946   48009  -47973  -48006       8   47943   47961  -47967  -48003       8
   47934   47988  -47955  -47949       8   47931   47979  -47949  -47955       8
   47910   47952  -47934  -47955       8   47910   47946  -47931  -47949       8
   47910   47943  -47928  -47925       8   47928   47940  -47925  -47907       8
   47895   47901  -47916  -47937       8   47883   47889  -47907  -47925       8
   47910   47871  -47883  -47907       8   47877   47880  -47868  -47862       8
   47871   47874  -47865  -47862       8   47853   47865  -47862  -47868       8
   47841   47847  -47853  -47862       8   47826   47829  -47820  -47817       8
   48627   48633  -48684  -48708       8   48615   48621  -48675  -48705       8
   48603   48609  -48666  -48702       8   48591   48597  -48660  -48699       8
   48582   48588  -48648  -48696       8   48567   48573  -48639  -48693       8
   48561   48564  -48525  -48498       8   48555   48558  -48522  -48498       8
   48549   48552  -48516  -48489       8   48543   48546  -48513  -48489       8
   48537   48540  -48510  -48486       8   48531   48534  -48507  -48486       8
   48468   48522  -48498  -48525       8   48456   48513  -48489  -48516       8
   48450   48507  -48486  -48510       8   48435   48501  -48468  -48498       8
   48429   48492  -48456  -48489       8   48426   48444  -48450  -48486       8
   48417   48471  -48438  -48432       8   48414   48462  -48432  -48438       8
   48393   48435  -48417  -48438       8   48393   48429  -48414  -48432       8
   48393   48426  -48411  -48408       8   48411   48423  -48408  -48390       8
   48378   48384  -48399  -48420       8   48366   48372  -48390  -48408       8
   48393   48354  -48366  -48390       8   48360   48363  -48351  -48345       8
   48354   48357  -48348  -48345       8   48336   48348  -48345  -48351       8
   48324   48330  -48336  -48345       8   48309   48312  -48303  -48300       8
   49110   49116  -49167  -49191       8   49098   49104  -49158  -49188       8
   49086   49092  -49149  -49185       8   49074   49080  -49143  -49182       8
   49065   49071  -49131  -49179       8   49050   49056  -49122  -49176       8
   49044   49047  -49008  -48981       8   49038   49041  -49005  -48981       8
   49032   49035  -48999  -48972       8   49026   49029  -48996  -48972       8
   49020   49023  -48993  -48969       8   49014   49017  -48990  -48969       8
   48951   49005  -48981  -49008       8   48939   48996  -48972  -48999       8
   48933   48990  -48969  -48993       8   48918   48984  -48951  -48981       8
   48912   48975  -48939  -48972       8   48909   48927  -48933  -48969       8
   48900   48954  -48921  -48915       8   48897   48945  -48915  -48921       8
   48876   48918  -48900  -48921       8   48876   48912  -48897  -48915       8
   48876   48909  -48894  -48891       8   48894   48906  -48891  -48873       8
   48861   48867  -48882  -48903       8   48849   48855  -48873  -48891       8
   48876   48837  -48849  -48873       8   48843   48846  -48834  -48828       8
   48837   48840  -48831  -48828       8   48819   48831  -48828  -48834       8
   48807   48813  -48819  -48828       8   48792   48795  -48786  -48783       8
   49593   49599  -49650  -49674       8   49581   49587  -49641  -49671       8
   49569   49575  -49632  -49668       8   49557   49563  -49626  -49665       8
   49548   49554  -49614  -49662       8   49533   49539  -49605  -49659       8
   49527   49530  -49491  -49464       8   49521   49524  -49488  -49464       8
   49515   49518  -49482  -49455       8   49509   49512  -49479  -49455       8
   49503   49506  -49476  -49452       8   49497   49500  -49473  -49452       8
   49434   49488  -49464  -49491       8   49422   49479  -49455  -49482       8
   49416   49473  -49452  -49476       8   49401   49467  -49434  -49464       8
   49395   49458  -49422  -49455       8   49392   49410  -49416  -49452       8
   49383   49437  -49404  -49398       8   49380   49428  -49398  -49404       8
   49359   49401  -49383  -49404       8   49359   49395  -49380  -49398       8
   49359   49392  -49377  -49374       8   49377   49389  -49374  -49356       8
   49344   49350  -49365  -49386       8   49332   49338  -49356  -49374       8
   49359   49320  -49332  -49356       8   49326   49329  -49317  -49311       8
   49320   49323  -49314  -49311       8   49302   49314  -49311  -49317       8
   49290   49296  -49302  -49311       8   49275   49278  -49269  -49266       8
   50076   50082  -50133  -50157       8   50064   50070  -50124  -50154       8
   50052   50058  -50115  -50151       8   50040   50046  -50109  -50148       8
   50031   50037  -50097  -50145       8   50016   50022  -50088  -50142       8
   50010   50013  -49974  -49947       8   50004   50007  -49971  -49947       8
   49998   50001  -49965  -49938       8   49992   49995  -49962  -49938       8
   49986   49989  -49959  -49935       8   49980   49983  -49956  -49935       8
   49917   49971  -49947  -49974       8   49905   49962  -49938  -49965       8
   49899   49956  -49935  -49959       8   49884   49950  -49917  -49947       8
   49878   49941  -49905  -49938       8   49875   49893  -49899  -49935       8
   49866   49920  -49887  -49881       8   49863   49911  -49881  -49887       8
   49842   49884  -49866  -49887       8   49842   49878  -49863  -49881       8
   49842   49875  -49860  -49857       8   49860   49872  -49857  -49839       8
   49827   49833  -49848  -49869       8   49815   49821  -49839  -49857       8
   49842   49803  -49815  -49839       8   49809   49812  -49800  -49794       8
   49803   49806  -49797  -49794       8   49785   49797  -49794  -49800       8
   49773   49779  -49785  -49794       8   49758   49761  -49752  -49749       8
   50559   50565  -50616  -50640       8   50547   50553  -50607  -50637       8
   50535   50541  -50598  -50634       8   50523   50529  -50592  -50631       8
   50514   50520  -50580  -50628       8   50499   50505  -50571  -50625       8
   50493   50496  -50457  -50430       8   50487   50490  -50454  -50430       8
   50481   50484  -50448  -50421       8   50475   50478  -50445  -50421       8
   50469   50472  -50442  -50418       8   50463   50466  -50439  -50418       8
   50400   50454  -50430  -50457       8   50388   50445  -50421  -50448       8
   50382   50439  -50418  -50442       8   50367   50433  -50400  -50430       8
   50361   50424  -50388  -50421       8   50358   50376  -50382  -50418       8
   50349   50403  -50370  -50364       8   50346   50394  -50364  -50370       8
   50325   50367  -50349  -50370       8   50325   50361  -50346  -50364       8
   50325   50358  -50343  -50340       8   50343   50355  -50340  -50322       8
   50310   50316  -50331  -50352       8   50298   50304  -50322  -50340       8
   50325   50286  -50298  -50322       8   50292   50295  -50283  -50277       8
   50286   50289  -50280  -50277       8   50268   50280  -50277  -50283       8
   50256   50262  -50268  -50277       8   50241   50244  -50235  -50232       8
   51042   51048  -51099  -51123       8   51030   51036  -51090  -51120       8
   51018   51024  -51081  -51117       8   51006   51012  -51075  -51114       8
   50997   51003  -51063  -51111       8   50982   50988  -51054  -51108       8
   50976   50979  -50940  -50913       8   50970   50973  -50937  -50913       8
   50964   50967  -50931  -50904       8   50958   50961  -50928  -50904       8
   50952   50955  -50925  -50901       8   50946   50949  -50922  -50901       8
   50883   50937  -50913  -50940       8   50871   50928  -50904  -50931       8
   50865   50922  -50901  -50925       8   50850   50916  -50883  -50913       8
   50844   50907  -50871  -50904       8   50841   50859  -50865  -50901       8
   50832   50886  -50853  -50847       8   50829   50877  -50847  -50853       8
   50808   50850  -50832  -50853       8   50808   50844  -50829  -50847       8
   50808   50841  -50826  -50823       8   50826   50838  -50823  -50805       8
   50793   50799  -50814  -50835       8   50781   50787  -50805  -50823       8
   50808   50769  -50781  -50805       8   50775   50778  -50766  -50760       8
   50769   50772  -50763  -50760       8   50751   50763  -50760  -50766       8
   50739   50745  -50751  -50760       8   50724   50727  -50718  -50715       8
   51525   51531  -51582  -51606       8   51513   51519  -51573  -51603       8
   51501   51507  -51564  -51600       8   51489   51495  -51558  -51597       8
   51480   51486  -51546  -51594       8   51465   51471  -51537  -51591       8
   51459   51462  -51423  -51396       8   51453   51456  -51420  -51396       8
   51447   51450  -51414  -51387       8   51441   51444  -51411  -51387       8
   51435   51438  -51408  -51384       8   51429   51432  -51405  -51384       8
   51366   51420  -51396  -51423       8   51354   51411  -51387  -51414       8
   51348   51405  -51384  -51408       8   51333   51399  -51366  -51396       8
   51327   51390  -51354  -51387       8   51324   51342  -51348  -51384       8
   51315   51369  -51336  -51330       8   51312   51360  -51330  -51336       8
   51291   51333  -51315  -51336       8   51291   51327  -51312  -51330       8
   51291   51324  -51309  -51306       8   51309   51321  -51306  -51288       8
   51276   51282  -51297  -51318       8   51264   51270  -51288  -51306       8
   51291   51252  -51264  -51288       8   51258   51261  -51249  -51243       8
   51252   51255  -51246  -51243       8   51234   51246  -51243  -51249       8
   51222   51228  -51234  -51243       8   51207   51210  -51201  -51198       8
   52008   52014  -52065  -52089       8   51996   52002  -52056  -52086       8
   51984   51990  -52047  -52083       8   51972   51978  -52041  -52080       8
   51963   51969  -52029  -52077       8   51948   51954  -52020  -52074       8
   51942   51945  -51906  -51879       8   51936   51939  -51903  -51879       8
   51930   51933  -51897  -51870       8   51924   51927  -51894  -51870       8
   51918   51921  -51891  -51867       8   51912   51915  -51888  -51867       8
   51849   51903  -51879  -51906       8   51837   51894  -51870  -51897       8
   51831   51888  -51867  -51891       8   51816   51882  -51849  -51879       8
   51810   51873  -51837  -51870       8   51807   51825  -51831  -51867       8
   51798   51852  -51819  -51813       8   51795   51843  -51813  -51819       8
   51774   51816  -51798  -51819       8   51774   51810  -51795  -51813       8
   51774   51807  -51792  -51789       8   51792   51804  -51789  -51771       8
   51759   51765  -51780  -51801       8   51747   51753  -51771  -51789       8
   51774   51735  -51747  -51771       8   51741   51744  -51732  -51726       8
   51735   51738  -51729  -51726       8   51717   51729  -51726  -51732       8
   51705   51711  -51717  -51726       8   51690   51693  -51684  -51681       8
   52491   52497  -52548  -52572       8   52479   52485  -52539  -52569       8
   52467   52473  -52530  -52566       8   52455   52461  -52524  -52563       8
   52446   52452  -52512  -52560       8   52431   52437  -52503  -52557       8
   52425   52428  -52389  -52362       8   52419   52422  -52386  -52362       8
   52413   52416  -52380  -52353       8   52407   52410  -52377  -52353       8
   52401   52404  -52374  -52350       8   52395   52398  -52371  -52350       8
   52332   52386  -52362  -52389       8   52320   52377  -52353  -52380       8
   52314   52371  -52350  -52374       8   52299   52365  -52332  -52362       8
   52293   52356  -52320  -52353       8   52290   52308  -52314  -52350       8
   52281   52335  -52302  -52296       8   52278   52326  -52296  -52302       8
   52257   52299  -52281  -52302       8   52257   52293  -52278  -52296       8
   52257   52290  -52275  -52272       8   52275   52287  -52272  -52254       8
   52242   52248  -52263  -52284       8   52230   52236  -52254  -52272       8
   52257   52218  -52230  -52254       8   52224   52227  -52215  -52209       8
   52218   52221  -52212  -52209       8   52200   52212  -52209  -52215       8
   52188   52194  -52200  -52209       8   52173   52176  -52167  -52164       8
   52974   52980  -53031  -53055       8   52962   52968  -53022  -53052       8
   52950   52956  -53013  -53049       8   52938   52944  -53007  -53046       8
   52929   52935  -52995  -53043       8   52914   52920  -52986  -53040       8
   52908   52911  -52872  -52845       8   52902   52905  -52869  -52845       8
   52896   52899  -52863  -52836       8   52890   52893  -52860  -52836       8
   52884   52887  -52857  -52833       8   52878   52881  -52854  -52833       8
   52815   52869  -52845  -52872       8   52803   52860  -52836  -52863       8
   52797   52854  -52833  -52857       8   52782   52848  -52815  -52845       8
   52776   52839  -52803  -52836       8   52773   52791  -52797  -52833       8
   52764   52818  -52785  -52779       8   52761   52809  -52779  -52785       8
   52740   52782  -52764  -52785       8   52740   52776  -52761  -52779       8
   52740   52773  -52758  -52755       8   52758   52770  -52755  -52737       8
   52725   52731  -52746  -52767       8   52713   52719  -52737  -52755       8
   52740   52701  -52713  -52737       8   52707   52710  -52698  -52692       8
   52701   52704  -52695  -52692       8   52683   52695  -52692  -52698       8
   52671   52677  -52683  -52692       8   52656   52659  -52650  -52647       8
   53457   53463  -53514  -53538       8   53445   53451  -53505  -53535       8
   53433   53439  -53496  -53532       8   53421   53427  -53490  -53529       8
   53412   53418  -53478  -53526       8   53397   53403  -53469  -53523       8
   53391   53394  -53355  -53328       8   53385   53388  -53352  -53328       8
   53379   53382  -53346  -53319       8   53373   53376  -53343  -53319       8
   53367   53370  -53340  -53316       8   53361   53364  -53337  -53316       8
   53298   53352  -53328  -53355       8   53286   53343  -53319  -53346       8
   53280   53337  -53316  -53340       8   53265   53331  -53298  -53328       8
   53259   53322  -53286  -53319       8   53256   53274  -53280  -53316       8
   53247   53301  -53268  -53262       8   53244   53292  -53262  -53268       8
   53223   53265  -53247  -53268       8   53223   53259  -53244  -53262       8
   53223   53256  -53241  -53238       8   53241   53253  -53238  -53220       8
   53208   53214  -53229  -53250       8   53196   53202  -53220  -53238       8
   53223   53184  -53196  -53220       8   53190   53193  -53181  -53175       8
   53184   53187  -53178  -53175       8   53166   53178  -53175  -53181       8
   53154   53160  -53166  -53175       8   53139   53142  -53133  -53130       8
   53940   53946  -53997  -54021       8   53928   53934  -53988  -54018       8
   53916   53922  -53979  -54015       8   53904   53910  -53973  -54012       8
   53895   53901  -53961  -54009       8   53880   53886  -53952  -54006       8
   53874   53877  -53838  -53811       8   53868   53871  -53835  -53811       8
   53862   53865  -53829  -53802       8   53856   53859  -53826  -53802       8
   53850   53853  -53823  -53799       8   53844   53847  -53820  -53799       8
   53781   53835  -53811  -53838       8   53769   53826  -53802  -53829       8
   53763   53820  -53799  -53823       8   53748   53814  -53781  -53811       8
   53742   53805  -53769  -53802       8   53739   53757  -53763  -53799       8
   53730   53784  -53751  -53745       8   53727   53775  -53745  -53751       8
   53706   53748  -53730  -53751       8   53706   53742  -53727  -53745       8
   53706   53739  -53724  -53721       8   53724   53736  -53721  -53703       8
   53691   53697  -53712  -53733       8   53679   53685  -53703  -53721       8
   53706   53667  -53679  -53703       8   53673   53676  -53664  -53658       8
   53667   53670  -53661  -53658       8   53649   53661  -53658  -53664       8
   53637   53643  -53649  -53658       8   53622   53625  -53616  -53613       8
   54423   54429  -54480  -54504       8   54411   54417  -54471  -54501       8
   54399   54405  -54462  -54498       8   54387   54393  -54456  -54495       8
   54378   54384  -54444  -54492       8   54363   54369  -54435  -54489       8
   54357   54360  -54321  -54294       8   54351   54354  -54318  -54294       8
   54345   54348  -54312  -54285       8   54339   54342  -54309  -54285       8
   54333   54336  -54306  -54282       8   54327   54330  -54303  -54282       8
   54264   54318  -54294  -54321       8   54252   54309  -54285  -54312       8
   54246   54303  -54282  -54306       8   54231   54297  -54264  -54294       8
   54225   54288  -54252  -54285       8   54222   54240  -54246  -54282       8
   54213   54267  -54234  -54228       8   54210   54258  -54228  -54234       8
   54189   54231  -54213  -54234       8   54189   54225  -54210  -54228       8
   54189   54222  -54207  -54204       8   54207   54219  -54204  -54186       8
   54174   54180  -54195  -54216       8   54162   54168  -54186  -54204       8
   54189   54150  -54162  -54186       8   54156   54159  -54147  -54141       8
   54150   54153  -54144  -54141       8   54132   54144  -54141  -54147       8
   54120   54126  -54132  -54141       8   54105   54108  -54099  -54096       8
   54906   54912  -54963  -54987       8   54894   54900  -54954  -54984       8
   54882   54888  -54945  -54981       8   54870   54876  -54939  -54978       8
   54861   54867  -54927  -54975       8   54846   54852  -54918  -54972       8
   54840   54843  -54804  -54777       8   54834   54837  -54801  -54777       8
   54828   54831  -54795  -54768       8   54822   54825  -54792  -54768       8
   54816   54819  -54789  -54765       8   54810   54813  -54786  -54765       8
   54747   54801  -54777  -54804       8   54735   54792  -54768  -54795       8
   54729   54786  -54765  -54789       8   54714   54780  -54747  -54777       8
   54708   54771  -54735  -54768       8   54705   54723  -54729  -54765       8
   54696   54750  -54717  -54711       8   54693   54741  -54711  -54717       8
   54672   54714  -54696  -54717       8   54672   54708  -54693  -54711       8
   54672   54705  -54690  -54687       8   54690   54702  -54687  -54669       8
   54657   54663  -54678  -54699       8   54645   54651  -54669  -54687       8
   54672   54633  -54645  -54669       8   54639   54642  -54630  -54624       8
   54633   54636  -54627  -54624       8   54615   54627  -54624  -54630       8
   54603   54609  -54615  -54624       8   54588   54591  -54582  -54579       8
   55389   55395  -55446  -55470       8   55377   55383  -55437  -55467       8
   55365   55371  -55428  -55464       8   55353   55359  -55422  -55461       8
   55344   55350  -55410  -55458       8   55329   55335  -55401  -55455       8
   55323   55326  -55287  -55260       8   55317   55320  -55284  -55260       8
   55311   55314  -55278  -55251       8   55305   55308  -55275  -55251       8
   55299   55302  -55272  -55248       8   55293   55296  -55269  -55248       8
   55230   55284  -55260  -55287       8   55218   55275  -55251  -55278       8
   55212   55269  -55248  -55272       8   55197   55263  -55230  -55260       8
   55191   55254  -55218  -55251       8   55188   55206  -55212  -55248       8
   55179   55233  -55200  -55194       8   55176   55224  -55194  -55200       8
   55155   55197  -55179  -55200       8   55155   55191  -55176  -55194       8
   55155   55188  -55173  -55170       8   55173   55185  -55170  -55152       8
   55140   55146  -55161  -55182       8   55128   55134  -55152  -55170       8
   55155   55116  -55128  -55152       8   55122   55125  -55113  -55107       8
   55116   55119  -55110  -55107       8   55098   55110  -55107  -55113       8
   55086   55092  -55098  -55107       8   55071   55074  -55065  -55062       8
   55872   55878  -55929  -55953       8   55860   55866  -55920  -55950       8
   55848   55854  -55911  -55947       8   55836   55842  -55905  -55944       8
   55827   55833  -55893  -55941       8   55812   55818  -55884  -55938       8
   55806   55809  -55770  -55743       8   55800   55803  -55767  -55743       8
   55794   55797  -55761  -55734       8   55788   55791  -55758  -55734       8
   55782   55785  -55755  -55731       8   55776   55779  -55752  -55731       8
   55713   55767  -55743  -55770       8   55701   55758  -55734  -55761       8
   55695   55752  -55731  -55755       8   55680   55746  -55713  -55743       8
   55674   55737  -55701  -55734       8   55671   55689  -55695  -55731       8
   55662   55716  -55683  -55677       8   55659   55707  -55677  -55683       8
   55638   55680  -55662  -55683       8   55638   55674  -55659  -55677       8
   55638   55671  -55656  -55653       8   55656   55668  -55653  -55635       8
   55623   55629  -55644  -55665       8   55611   55617  -55635  -55653       8
   55638   55599  -55611  -55635       8   55605   55608  -55596  -55590       8
   55599   55602  -55593  -55590       8   55581   55593  -55590  -55596       8
   55569   55575  -55581  -55590       8   55554   55557  -55548  -55545       8
   56355   56361  -56412  -56436       8   56343   56349  -56403  -56433       8
   56331   56337  -56394  -56430       8   56319   56325  -56388  -56427       8
   56310   56316  -56376  -56424       8   56295   56301  -56367  -56421       8
   56289   56292  -56253  -56226       8   56283   56286  -56250  -56226       8
   56277   56280  -56244  -56217       8   56271   56274  -56241  -56217       8
   56265   56268  -56238  -56214       8   56259   56262  -56235  -56214       8
   56196   56250  -56226  -56253       8   56184   56241  -56217  -56244       8
   56178   56235  -56214  -56238       8   56163   56229  -56196  -56226       8
   56157   56220  -56184  -56217       8   56154   56172  -56178  -56214       8
   56145   56199  -56166  -56160       8   56142   56190  -56160  -56166       8
   56121   56163  -56145  -56166       8   56121   56157  -56142  -56160       8
   56121   56154  -56139  -56136       8   56139   56151  -56136  -56118       8
   56106   56112  -56127  -56148       8   56094   56100  -56118  -56136       8
   56121   56082  -56094  -56118       8   56088   56091  -56079  -56073       8
   56082   56085  -56076  -56073       8   56064   56076  -56073  -56079       8
   56052   56058  -56064  -56073       8   56037   56040  -56031  -56028       8
   56838   56844  -56895  -56919       8   56826   56832  -56886  -56916       8
   56814   56820  -56877  -56913       8   56802   56808  -56871  -56910       8
   56793   56799  -56859  -56907       8   56778   56784  -56850  -56904       8
   56772   56775  -56736  -56709       8   56766   56769  -56733  -56709       8
   56760   56763  -56727  -56700       8   56754   56757  -56724  -56700       8
   56748   56751  -56721  -56697       8   56742   56745  -56718  -56697       8
   56679   56733  -56709  -56736       8   56667   56724  -56700  -56727       8
   56661   56718  -56697  -56721       8   56646   56712  -56679  -56709       8
   56640   56703  -56667  -56700       8   56637   56655  -56661  -56697       8
   56628   56682  -56649  -56643       8   56625   56673  -56643  -56649       8
   56604   56646  -56628  -56649       8   56604   56640  -56625  -56643       8
   56604   56637  -56622  -56619       8   56622   56634  -56619  -56601       8
   56589   56595  -56610  -56631       8   56577   56583  -56601  -56619       8
   56604   56565  -56577  -56601       8   56571   56574  -56562  -56556       8
   56565   56568  -56559  -56556       8   56547   56559  -56556  -56562       8
   56535   56541  -56547  -56556       8   56520   56523  -56514  -56511       8
   57321   57327  -57378  -57402       8   57309   57315  -57369  -57399       8
   57297   57303  -57360  -57396       8   57285   57291  -57354  -57393       8
   57276   57282  -57342  -57390       8   57261   57267  -57333  -57387       8
   57255   57258  -57219  -57192       8   57249   57252  -57216  -57192       8
   57243   57246  -57210  -57183       8   57237   57240  -57207  -57183       8
   57231   57234  -57204  -57180       8   57225   57228  -57201  -57180       8
   57162   57216  -57192  -57219       8   57150   57207  -57183  -57210       8
   57144   57201  -57180  -57204       8   57129   57195  -57162  -57192       8
   57123   57186  -57150  -57183       8   57120   57138  -57144  -57180       8
   57111   57165  -57132  -57126       8   57108   57156  -57126  -57132       8
   57087   57129  -57111  -57132       8   57087   57123  -57108  -57126       8
   57087   57120  -57105  -57102       8   57105   57117  -57102  -57084       8
   57072   57078  -57093  -57114       8   57060   57066  -57084  -57102       8
   57087   57048  -57060  -57084       8   57054   57057  -57045  -57039       8
   57048   57051  -57042  -57039       8   57030   57042  -57039  -57045       8
   57018   57024  -57030  -57039       8   57003   57006  -56997  -56994       8
   57804   57810  -57861  -57885       8   57792   57798  -57852  -57882       8
   57780   57786  -57843  -57879       8   57768   57774  -57837  -57876       8
   57759   57765  -57825  -57873       8   57744   57750  -57816  -57870       8
   57738   57741  -57702  -57675       8   57732   57735  -57699  -57675       8
   57726   57729  -57693  -57666       8   57720   57723  -57690  -57666       8
   57714   57717  -57687  -57663       8   57708   57711  -57684  -57663       8
   57645   57699  -57675  -57702       8   57633   57690  -57666  -57693       8
   57627   57684  -57663  -57687       8   57612   57678  -57645  -57675       8
   57606   57669  -57633  -57666       8   57603   57621  -57627  -57663       8
   57594   57648  -57615  -57609       8   57591   57639  -57609  -57615       8
   57570   57612  -57594  -57615       8   57570   57606  -57591  -57609       8
   57570   57603  -57588  -57585       8   57588   57600  -57585  -57567       8
   57555   57561  -57576  -57597       8   57543   57549  -57567  -57585       8
   57570   57531  -57543  -57567       8   57537   57540  -57528  -57522       8
   57531   57534  -57525  -57522       8   57513   57525  -57522  -57528       8
   57501   57507  -57513  -57522       8   57486   57489  -57480  -57477       8
   58287   58293  -58344  -58368       8   58275   58281  -58335  -58365       8
   58263   58269  -58326  -58362       8   58251   58257  -58320  -58359       8
   58242   58248  -58308  -58356       8   58227   58233  -58299  -58353       8
   58221   58224  -58185  -58158       8   58215   58218  -58182  -58158       8
   58209   58212  -58176  -58149       8   58203   58206  -58173  -58149       8
   58197   58200  -58170  -58146       8   58191   58194  -58167  -58146       8
   58128   58182  -58158  -58185       8   58116   58173  -58149  -58176       8
   58110   58167  -58146  -58170       8   58095   58161  -58128  -58158       8
   58089   58152  -58116  -58149       8   58086   58104  -58110  -58146       8
   58077   58131  -58098  -58092       8   58074   58122  -58092  -58098       8
   58053   58095  -58077  -58098       8   58053   58089  -58074  -58092       8
   58053   58086  -58071  -58068       8   58071   58083  -58068  -58050       8
   58038   58044  -58059  -58080       8   58026   58032  -58050  -58068       8
   58053   58014  -58026  -58050       8   58020   58023  -58011  -58005       8
   58014   58017  -58008  -58005       8   57996   58008  -58005  -58011       8
   57984   57990  -57996  -58005       8   57969   57972  -57963  -57960       8
   58770   58776  -58827  -58851       8   58758   58764  -58818  -58848       8
   58746   58752  -58809  -58845       8   58734   58740  -58803  -58842       8
   58725   58731  -58791  -58839       8   58710   58716  -58782  -58836       8
   58704   58707  -58668  -58641       8   58698   58701  -58665  -58641       8
   58692   58695  -58659  -58632       8   58686   58689  -58656  -58632       8
   58680   58683  -58653  -58629       8   58674   58677  -58650  -58629       8
   58611   58665  -58641  -58668       8   58599   58656  -58632  -58659       8
   58593   58650  -58629  -58653       8   58578   58644  -58611  -58641       8
   58572   58635  -58599  -58632       8   58569   58587  -58593  -58629       8
   58560   58614  -58581  -58575       8   58557   58605  -58575  -58581       8
   58536   58578  -58560  -58581       8   58536   58572  -58557  -58575       8
   58536   58569  -58554  -58551       8   58554   58566  -58551  -58533       8
   58521   58527  -58542  -58563       8   58509   58515  -58533  -58551       8
   58536   58497  -58509  -58533       8   58503   58506  -58494  -58488       8
   58497   58500  -58491  -58488       8   58479   58491  -58488  -58494       8
   58467   58473  -58479  -58488       8   58452   58455  -58446  -58443       8
   59253   59259  -59310  -59334       8   59241   59247  -59301  -59331       8
   59229   59235  -59292  -59328       8   59217   59223  -59286  -59325       8
   59208   59214  -59274  -59322       8   59193   59199  -59265  -59319       8
   59187   59190  -59151  -59124       8   59181   59184  -59148  -59124       8
   59175   59178  -59142  -59115       8   59169   59172  -59139  -59115       8
   59163   59166  -59136  -59112       8   59157   59160  -59133  -59112       8
   59094   59148  -59124  -59151       8   59082   59139  -59115  -59142       8
   59076   59133  -59112  -59136       8   59061   59127  -59094  -59124       8
   59055   59118  -59082  -59115       8   59052   59070  -59076  -59112       8
   59043   59097  -59064  -59058       8   59040   59088  -59058  -59064       8
   59019   59061  -59043  -59064       8   59019   59055  -59040  -59058       8
   59019   59052  -59037  -59034       8   59037   59049  -59034  -59016       8
   59004   59010  -59025  -59046       8   58992   58998  -59016  -59034       8
   59019   58980  -58992  -59016       8   58986   58989  -58977  -58971       8
   58980   58983  -58974  -58971       8   58962   58974  -58971  -58977       8
   58950   58956  -58962  -58971       8   58935   58938  -58929  -58926       8
   59736   59742  -59793  -59817       8   59724   59730  -59784  -59814       8
   59712   59718  -59775  -59811       8   59700   59706  -59769  -59808       8
   59691   59697  -59757  -59805       8   59676   59682  -59748  -59802       8
   59670   59673  -59634  -59607       8   59664   59667  -59631  -59607       8
   59658   59661  -59625  -59598       8   59652   59655  -59622  -59598       8
   59646   59649  -59619  -59595       8   59640   59643  -59616  -59595       8
   59577   59631  -59607  -59634       8   59565   59622  -59598  -59625       8
   59559   59616  -59595  -59619       8   59544   59610  -59577  -59607       8
   59538   59601  -59565  -59598       8   59535   59553  -59559  -59595       8
   59526   59580  -59547  -59541       8   59523   59571  -59541  -59547       8
   59502   59544  -59526  -59547       8   59502   59538  -59523  -59541       8
   59502   59535  -59520  -59517       8   59520   59532  -59517  -59499       8
   59487   59493  -59508  -59529       8   59475   59481  -59499  -59517       8
   59502   59463  -59475  -59499       8   59469   59472  -59460  -59454       8
   59463   59466  -59457  -59454       8   59445   59457  -59454  -59460       8
   59433   59439  -59445  -59454       8   59418   59421  -59412  -59409       8
   60219   60225  -60276  -60300       8   60207   60213  -60267  -60297       8
   60195   60201  -60258  -60294       8   60183   60189  -60252  -60291       8
   60174   60180  -60240  -60288       8   60159   60165  -60231  -60285       8
   60153   60156  -60117  -60090       8   60147   60150  -60114  -60090       8
   60141   60144  -60108  -60081       8   60135   60138  -60105  -60081       8
   60129   60132  -60102  -60078       8   60123   60126  -60099  -60078       8
   60060   60114  -60090  -60117       8   60048   60105  -60081  -60108       8
   60042   60099  -60078  -60102       8   60027   60093  -60060  -60090       8
   60021   60084  -60048  -60081       8   60018   60036  -60042  -60078       8
   60009   60063  -60030  -60024       8   60006   60054  -60024  -60030       8
   59985   60027  -60009  -60030       8   59985   60021  -60006  -60024       8
   59985   60018  -60003  -60000       8   60003   60015  -60000  -59982       8
   59970   59976  -59991  -60012       8   59958   59964  -59982  -60000       8
   59985   59946  -59958  -59982       8   59952   59955  -59943  -59937       8
   59946   59949  -59940  -59937       8   59928   59940  -59937  -59943       8
   59916   59922  -59928  -59937       8   59901   59904  -59895  -59892       8
   60702   60708  -60759  -60783       8   60690   60696  -60750  -60780       8
   60678   60684  -60741  -60777       8   60666   60672  -60735  -60774       8
   60657   60663  -60723  -60771       8   60642   60648  -60714  -60768       8
   60636   60639  -60600  -60573       8   60630   60633  -60597  -60573       8
   60624   60627  -60591  -60564       8   60618   60621  -60588  -60564       8
   60612   60615  -60585  -60561       8   60606   60609  -60582  -60561       8
   60543   60597  -60573  -60600       8   60531   60588  -60564  -60591       8
   60525   60582  -60561  -60585       8   60510   60576  -60543  -60573       8
   60504   60567  -60531  -60564       8   60501   60519  -60525  -60561       8
   60492   60546  -60513  -60507       8   60489   60537  -60507  -60513       8
   60468   60510  -60492  -60513       8   60468   60504  -60489  -60507       8
   60468   60501  -60486  -60483       8   60486   60498  -60483  -60465       8
   60453   60459  -60474  -60495       8   60441   60447  -60465  -60483       8
   60468   60429  -60441  -60465       8   60435   60438  -60426  -60420       8
   60429   60432  -60423  -60420       8   60411   60423  -60420  -60426       8
   60399   60405  -60411  -60420       8   60384   60387  -60378  -60375       8
   61185   61191  -61242  -61266       8   61173   61179  -61233  -61263       8
   61161   61167  -61224  -61260       8   61149   61155  -61218  -61257       8
   61140   61146  -61206  -61254       8   61125   61131  -61197  -61251       8
   61119   61122  -61083  -61056       8   61113   61116  -61080  -61056       8
   61107   61110  -61074  -61047       8   61101   61104  -61071  -61047       8
   61095   61098  -61068  -61044       8   61089   61092  -61065  -61044       8
   61026   61080  -61056  -61083       8   61014   61071  -61047  -61074       8
   61008   61065  -61044  -61068       8   60993   61059  -61026  -61056       8
   60987   61050  -61014  -61047       8   60984   61002  -61008  -61044       8
   60975   61029  -60996  -60990       8   60972   61020  -60990  -60996       8
   60951   60993  -60975  -60996       8   60951   60987  -60972  -60990       8
   60951   60984  -60969  -60966       8   60969   60981  -60966  -60948       8
   60936   60942  -60957  -60978       8   60924   60930  -60948  -60966       8
   60951   60912  -60924  -60948       8   60918   60921  -60909  -60903       8
   60912   60915  -60906  -60903       8   60894   60906  -60903  -60909       8
   60882   60888  -60894  -60903       8   60867   60870  -60861  -60858       8
   61668   61674  -61725  -61749       8   61656   61662  -61716  -61746       8
   61644   61650  -61707  -61743       8   61632   61638  -61701  -61740       8
   61623   61629  -61689  -61737       8   61608   61614  -61680  -61734       8
   61602   61605  -61566  -61539       8   61596   61599  -61563  -61539       8
   61590   61593  -61557  -61530       8   61584   61587  -61554  -61530       8
   61578   61581  -61551  -61527       8   61572   61575  -61548  -61527       8
   61509   61563  -61539  -61566       8   61497   61554  -61530  -61557       8
   61491   61548  -61527  -61551       8   61476   61542  -61509  -61539       8
   61470   61533  -61497  -61530       8   61467   61485  -61491  -61527       8
   61458   61512  -61479  -61473       8   61455   61503  -61473  -61479       8
   61434   61476  -61458  -61479       8   61434   61470  -61455  -61473       8
   61434   61467  -61452  -61449       8   61452   61464  -61449  -61431       8
   61419   61425  -61440  -61461       8   61407   61413  -61431  -61449       8
   61434   61395  -61407  -61431       8   61401   61404  -61392  -61386       8
   61395   61398  -61389  -61386       8   61377   61389  -61386  -61392       8
   61365   61371  -61377  -61386       8   61350   61353  -61344  -61341       8
   62151   62157  -62208  -62232       8   62139   62145  -62199  -62229       8
   62127   62133  -62190  -62226       8   62115   62121  -62184  -62223       8
   62106   62112  -62172  -62220       8   62091   62097  -62163  -62217       8
   62085   62088  -62049  -62022       8   62079   62082  -62046  -62022       8
   62073   62076  -62040  -62013       8   62067   62070  -62037  -62013       8
   62061   62064  -62034  -62010       8   62055   62058  -62031  -62010       8
   61992   62046  -62022  -62049       8   61980   62037  -62013  -62040       8
   61974   62031  -62010  -62034       8   61959   62025  -61992  -62022       8
   61953   62016  -61980  -62013       8   61950   61968  -61974  -62010       8
   61941   61995  -61962  -61956       8   61938   61986  -61956  -61962       8
   61917   61959  -61941  -61962       8   61917   61953  -61938  -61956       8
   61917   61950  -61935  -61932       8   61935   61947  -61932  -61914       8
   61902   61908  -61923  -61944       8   61890   61896  -61914  -61932       8
   61917   61878  -61890  -61914       8   61884   61887  -61875  -61869       8
   61878   61881  -61872  -61869       8   61860   61872  -61869  -61875       8
   61848   61854  -61860  -61869       8   61833   61836  -61827  -61824       8
   62634   62640  -62691  -62715       8   62622   62628  -62682  -62712       8
   62610   62616  -62673  -62709       8   62598   62604  -62667  -62706       8
   62589   62595  -62655  -62703       8   62574   62580  -62646  -62700       8
   62568   62571  -62532  -62505       8   62562   62565  -62529  -62505       8
   62556   62559  -62523  -62496       8   62550   62553  -62520  -62496       8
   62544   62547  -62517  -62493       8   62538   62541  -62514  -62493       8
   62475   62529  -62505  -62532       8   62463   62520  -62496  -62523       8
   62457   62514  -62493  -62517       8   62442   62508  -62475  -62505       8
   62436   62499  -62463  -62496       8   62433   62451  -62457  -62493       8
   62424   62478  -62445  -62439       8   62421   62469  -62439  -62445       8
   62400   62442  -62424  -62445       8   62400   62436  -62421  -62439       8
   62400   62433  -62418  -62415       8   62418   62430  -62415  -62397       8
   62385   62391  -62406  -62427       8   62373   62379  -62397  -62415       8
   62400   62361  -62373  -62397       8   62367   62370  -62358  -62352       8
   62361   62364  -62355  -62352       8   62343   62355  -62352  -62358       8
   62331   62337  -62343  -62352       8   62316   62319  -62310  -62307       8
   63117   63123  -63174  -63198       8   63105   63111  -63165  -63195       8
   63093   63099  -63156  -63192       8   63081   63087  -63150  -63189       8
   63072   63078  -63138  -63186       8   63057   63063  -63129  -63183       8
   63051   63054  -63015  -62988       8   63045   63048  -63012  -62988       8
   63039   63042  -63006  -62979       8   63033   63036  -63003  -62979       8
   63027   63030  -63000  -62976       8   63021   63024  -62997  -62976       8
   62958   63012  -62988  -63015       8   62946   63003  -62979  -63006       8
   62940   62997  -62976  -63000       8   62925   62991  -62958  -62988       8
   62919   62982  -62946  -62979       8   62916   62934  -62940  -62976       8
   62907   62961  -62928  -62922       8   62904   62952  -62922  -62928       8
   62883   62925  -62907  -62928       8   62883   62919  -62904  -62922       8
   62883   62916  -62901  -62898       8   62901   62913  -62898  -62880       8
   62868   62874  -62889  -62910       8   62856   62862  -62880  -62898       8
   62883   62844  -62856  -62880       8   62850   62853  -62841  -62835       8
   62844   62847  -62838  -62835       8   62826   62838  -62835  -62841       8
   62814   62820  -62826  -62835       8   62799   62802  -62793  -62790       8
   63600   63606  -63657  -63681       8   63588   63594  -63648  -63678       8
   63576   63582  -63639  -63675       8   63564   63570  -63633  -63672       8
   63555   63561  -63621  -63669       8   63540   63546  -63612  -63666       8
   63534   63537  -63498  -63471       8   63528   63531  -63495  -63471       8
   63522   63525  -63489  -63462       8   63516   63519  -63486  -63462       8
   63510   63513  -63483  -63459       8   63504   63507  -63480  -63459       8
   63441   63495  -63471  -63498       8   63429   63486  -63462  -63489       8
   63423   63480  -63459  -63483       8   63408   63474  -63441  -63471       8
   63402   63465  -63429  -63462       8   63399   63417  -63423  -63459       8
   63390   63444  -63411  -63405       8   63387   63435  -63405  -63411       8
   63366   63408  -63390  -63411       8   63366   63402  -63387  -63405       8
   63366   63399  -63384  -63381       8   63384   63396  -63381  -63363       8
   63351   63357  -63372  -63393       8   63339   63345  -63363  -63381       8
   63366   63327  -63339  -63363       8   63333   63336  -63324  -63318       8
   63327   63330  -63321  -63318       8   63309   63321  -63318  -63324       8
   63297   63303  -63309  -63318       8   63282   63285  -63276  -63273       8
   64083   64089  -64140  -64164       8   64071   64077  -64131  -64161       8
   64059   64065  -64122  -64158       8   64047   64053  -64116  -64155       8
   64038   64044  -64104  -64152       8   64023   64029  -64095  -64149       8
   64017   64020  -63981  -63954       8   64011   64014  -63978  -63954       8
   64005   64008  -63972  -63945       8   63999   64002  -63969  -63945       8
   63993   63996  -63966  -63942       8   63987   63990  -63963  -63942       8
   63924   63978  -63954  -63981       8   63912   63969  -63945  -63972       8
   63906   63963  -63942  -63966       8   63891   63957  -63924  -63954       8
   63885   63948  -63912  -63945       8   63882   63900  -63906  -63942       8
   63873   63927  -63894  -63888       8   63870   63918  -63888  -63894       8
   63849   63891  -63873  -63894       8   63849   63885  -63870  -63888       8
   63849   63882  -63867  -63864       8   63867   63879  -63864  -63846       8
   63834   63840  -63855  -63876       8   63822   63828  -63846  -63864       8
   63849   63810  -63822  -63846       8   63816   63819  -63807  -63801       8
   63810   63813  -63804  -63801       8   63792   63804  -63801  -63807       8
   63780   63786  -63792  -63801       8   63765   63768  -63759  -63756       8
   64566   64572  -64623  -64647       8   64554   64560  -64614  -64644       8
   64542   64548  -64605  -64641       8   64530   64536  -64599  -64638       8
   64521   64527  -64587  -64635       8   64506   64512  -64578  -64632       8
   64500   64503  -64464  -64437       8   64494   64497  -64461  -64437       8
   64488   64491  -64455  -64428       8   64482   64485  -64452  -64428       8
   64476   64479  -64449  -64425       8   64470   64473  -64446  -64425       8
   64407   64461  -64437  -64464       8   64395   64452  -64428  -64455       8
   64389   64446  -64425  -64449       8   64374   64440  -64407  -64437       8
   64368   64431  -64395  -64428       8   64365   64383  -64389  -64425       8
   64356   64410  -64377  -64371       8   64353   64401  -64371  -64377       8
   64332   64374  -64356  -64377       8   64332   64368  -64353  -64371       8
   64332   64365  -64350  -64347       8   64350   64362  -64347  -64329       8
   64317   64323  -64338  -64359       8   64305   64311  -64329  -64347       8
   64332   64293  -64305  -64329       8   64299   64302  -64290  -64284       8
   64293   64296  -64287  -64284       8   64275   64287  -64284  -64290       8
   64263   64269  -64275  -64284       8   64248   64251  -64242  -64239       8
   65049   65055  -65106  -65130       8   65037   65043  -65097  -65127       8
   65025   65031  -65088  -65124       8   65013   65019  -65082  -65121       8
   65004   65010  -65070  -65118       8   64989   64995  -65061  -65115       8
   64983   64986  -64947  -64920       8   64977   64980  -64944  -64920       8
   64971   64974  -64938  -64911       8   64965   64968  -64935  -64911       8
   64959   64962  -64932  -64908       8   64953   64956  -64929  -64908       8
   64890   64944  -64920  -64947       8   64878   64935  -64911  -64938       8
   64872   64929  -64908  -64932       8   64857   64923  -64890  -64920       8
   64851   64914  -64878  -64911       8   64848   64866  -64872  -64908       8
   64839   64893  -64860  -64854       8   64836   64884  -64854  -64860       8
   64815   64857  -64839  -64860       8   64815   64851  -64836  -64854       8
   64815   64848  -64833  -64830       8   64833   64845  -64830  -64812       8
   64800   64806  -64821  -64842       8   64788   64794  -64812  -64830       8
   64815   64776  -64788  -64812       8   64782   64785  -64773  -64767       8
   64776   64779  -64770  -64767       8   64758   64770  -64767  -64773       8
   64746   64752  -64758  -64767       8   64731   64734  -64725  -64722       8
   65532   65538  -65589  -65613       8   65520   65526  -65580  -65610       8
   65508   65514  -65571  -65607       8   65496   65502  -65565  -65604       8
   65487   65493  -65553  -65601       8   65472   65478  -65544  -65598       8
   65466   65469  -65430  -65403       8   65460   65463  -65427  -65403       8
   65454   65457  -65421  -65394       8   65448   65451  -65418  -65394       8
   65442   65445  -65415  -65391       8   65436   65439  -65412  -65391       8
   65373   65427  -65403  -65430       8   65361   65418  -65394  -65421       8
   65355   65412  -65391  -65415       8   65340   65406  -65373  -65403       8
   65334   65397  -65361  -65394       8   65331   65349  -65355  -65391       8
   65322   65376  -65343  -65337       8   65319   65367  -65337  -65343       8
   65298   65340  -65322  -65343       8   65298   65334  -65319  -65337       8
   65298   65331  -65316  -65313       8   65316   65328  -65313  -65295       8
   65283   65289  -65304  -65325       8   65271   65277  -65295  -65313       8
   65298   65259  -65271  -65295       8   65265   65268  -65256  -65250       8
   65259   65262  -65253  -65250       8   65241   65253  -65250  -65256       8
   65229   65235  -65241  -65250       8   65214   65217  -65208  -65205       8
   66015   66021  -66072  -66096       8   66003   66009  -66063  -66093       8
   65991   65997  -66054  -66090       8   65979   65985  -66048  -66087       8
   65970   65976  -66036  -66084       8   65955   65961  -66027  -66081       8
   65949   65952  -65913  -65886       8   65943   65946  -65910  -65886       8
   65937   65940  -65904  -65877       8   65931   65934  -65901  -65877       8
   65925   65928  -65898  -65874       8   65919   65922  -65895  -65874       8
   65856   65910  -65886  -65913       8   65844   65901  -65877  -65904       8
   65838   65895  -65874  -65898       8   65823   65889  -65856  -65886       8
   65817   65880  -65844  -65877       8   65814   65832  -65838  -65874       8
   65805   65859  -65826  -65820       8   65802   65850  -65820  -65826       8
   65781   65823  -65805  -65826       8   65781   65817  -65802  -65820       8
   65781   65814  -65799  -65796       8   65799   65811  -65796  -65778       8
   65766   65772  -65787  -65808       8   65754   65760  -65778  -65796       8
   65781   65742  -65754  -65778       8   65748   65751  -65739  -65733       8
   65742   65745  -65736  -65733       8   65724   65736  -65733  -65739       8
   65712   65718  -65724  -65733       8   65697   65700  -65691  -65688       8
   66498   66504  -66555  -66579       8   66486   66492  -66546  -66576       8
   66474   66480  -66537  -66573       8   66462   66468  -66531  -66570       8
   66453   66459  -66519  -66567       8   66438   66444  -66510  -66564       8
   66432   66435  -66396  -66369       8   66426   66429  -66393  -66369       8
   66420   66423  -66387  -66360       8   66414   66417  -66384  -66360       8
   66408   66411  -66381  -66357       8   66402   66405  -66378  -66357       8
   66339   66393  -66369  -66396       8   66327   66384  -66360  -66387       8
   66321   66378  -66357  -66381       8   66306   66372  -66339  -66369       8
   66300   66363  -66327  -66360       8   66297   66315  -66321  -66357       8
   66288   66342  -66309  -66303       8   66285   66333  -66303  -66309       8
   66264   66306  -66288  -66309       8   66264   66300  -66285  -66303       8
   66264   66297  -66282  -66279       8   66282   66294  -66279  -66261       8
   66249   66255  -66270  -66291       8   66237   66243  -66261  -66279       8
   66264   66225  -66237  -66261       8   66231   66234  -66222  -66216       8
   66225   66228  -66219  -66216       8   66207   66219  -66216  -66222       8
   66195   66201  -66207  -66216       8   66180   66183  -66174  -66171       8
   66981   66987  -67038  -67062       8   66969   66975  -67029  -67059       8
   66957   66963  -67020  -67056       8   66945   66951  -67014  -67053       8
   66936   66942  -67002  -67050       8   66921   66927  -66993  -67047       8
   66915   66918  -66879  -66852       8   66909   66912  -66876  -66852       8
   66903   66906  -66870  -66843       8   66897   66900  -66867  -66843       8
   66891   66894  -66864  -66840       8   66885   66888  -66861  -66840       8
   66822   66876  -66852  -66879       8   66810   66867  -66843  -66870       8
   66804   66861  -66840  -66864       8   66789   66855  -66822  -66852       8
   66783   66846  -66810  -66843       8   66780   66798  -66804  -66840       8
   66771   66825  -66792  -66786       8   66768   66816  -66786  -66792       8
   66747   66789  -66771  -66792       8   66747   66783  -66768  -66786       8
   66747   66780  -66765  -66762       8   66765   66777  -66762  -66744       8
   66732   66738  -66753  -66774       8   66720   66726  -66744  -66762       8
   66747   66708  -66720  -66744       8   66714   66717  -66705  -66699       8
   66708   66711  -66702  -66699       8   66690   66702  -66699  -66705       8
   66678   66684  -66690  -66699       8   66663   66666  -66657  -66654       8
   67464   67470  -67521  -67545       8   67452   67458  -67512  -67542       8
   67440   67446  -67503  -67539       8   67428   67434  -67497  -67536       8
   67419   67425  -67485  -67533       8   67404   67410  -67476  -67530       8
   67398   67401  -67362  -67335       8   67392   67395  -67359  -67335       8
   67386   67389  -67353  -67326       8   67380   67383  -67350  -67326       8
   67374   67377  -67347  -67323       8   67368   67371  -67344  -67323       8
   67305   67359  -67335  -67362       8   67293   67350  -67326  -67353       8
   67287   67344  -67323  -67347       8   67272   67338  -67305  -67335       8
   67266   67329  -67293  -67326       8   67263   67281  -67287  -67323       8
   67254   67308  -67275  -67269       8   67251   67299  -67269  -67275       8
   67230   67272  -67254  -67275       8   67230   67266  -67251  -67269       8
   67230   67263  -67248  -67245       8   67248   67260  -67245  -67227       8
   67215   67221  -67236  -67257       8   67203   67209  -67227  -67245       8
   67230   67191  -67203  -67227       8   67197   67200  -67188  -67182       8
   67191   67194  -67185  -67182       8   67173   67185  -67182  -67188       8
   67161   67167  -67173  -67182       8   67146   67149  -67140  -67137       8
   67947   67953  -68004  -68028       8   67935   67941  -67995  -68025       8
   67923   67929  -67986  -68022       8   67911   67917  -67980  -68019       8
   67902   67908  -67968  -68016       8   67887   67893  -67959  -68013       8
   67881   67884  -67845  -67818       8   67875   67878  -67842  -67818       8
   67869   67872  -67836  -67809       8   67863   67866  -67833  -67809       8
   67857   67860  -67830  -67806       8   67851   67854  -67827  -67806       8
   67788   67842  -67818  -67845       8   67776   67833  -67809  -67836       8
   67770   67827  -67806  -67830       8   67755   67821  -67788  -67818       8
   67749   67812  -67776  -67809       8   67746   67764  -67770  -67806       8
   67737   67791  -67758  -67752       8   67734   67782  -67752  -67758       8
   67713   67755  -67737  -67758       8   67713   67749  -67734  -67752       8
   67713   67746  -67731  -67728       8   67731   67743  -67728  -67710       8
   67698   67704  -67719  -67740       8   67686   67692  -67710  -67728       8
   67713   67674  -67686  -67710       8   67680   67683  -67671  -67665       8
   67674   67677  -67668  -67665       8   67656   67668  -67665  -67671       8
   67644   67650  -67656  -67665       8   67629   67632  -67623  -67620       8
   68430   68436  -68487  -68511       8   68418   68424  -68478  -68508       8
   68406   68412  -68469  -68505       8   68394   68400  -68463  -68502       8
   68385   68391  -68451  -68499       8   68370   68376  -68442  -68496       8
   68364   68367  -68328  -68301       8   68358   68361  -68325  -68301       8
   68352   68355  -68319  -68292       8   68346   68349  -68316  -68292       8
   68340   68343  -68313  -68289       8   68334   68337  -68310  -68289       8
   68271   68325  -68301  -68328       8   68259   68316  -68292  -68319       8
   68253   68310  -68289  -68313       8   68238   68304  -68271  -68301       8
   68232   68295  -68259  -68292       8   68229   68247  -68253  -68289       8
   68220   68274  -68241  -68235       8   68217   68265  -68235  -68241       8
   68196   68238  -68220  -68241       8   68196   68232  -68217  -68235       8
   68196   68229  -68214  -68211       8   68214   68226  -68211  -68193       8
   68181   68187  -68202  -68223       8   68169   68175  -68193  -68211       8
   68196   68157  -68169  -68193       8   68163   68166  -68154  -68148       8
   68157   68160  -68151  -68148       8   68139   68151  -68148  -68154       8
   68127   68133  -68139  -68148       8   68112   68115  -68106  -68103       8
   68913   68919  -68970  -68994       8   68901   68907  -68961  -68991       8
   68889   68895  -68952  -68988       8   68877   68883  -68946  -68985       8
   68868   68874  -68934  -68982       8   68853   68859  -68925  -68979       8
   68847   68850  -68811  -68784       8   68841   68844  -68808  -68784       8
   68835   68838  -68802  -68775       8   68829   68832  -68799  -68775       8
   68823   68826  -68796  -68772       8   68817   68820  -68793  -68772       8
   68754   68808  -68784  -68811       8   68742   68799  -68775  -68802       8
   68736   68793  -68772  -68796       8   68721   68787  -68754  -68784       8
   68715   68778  -68742  -68775       8   68712   68730  -68736  -68772       8
   68703   68757  -68724  -68718       8   68700   68748  -68718  -68724       8
   68679   68721  -68703  -68724       8   68679   68715  -68700  -68718       8
   68679   68712  -68697  -68694       8   68697   68709  -68694  -68676       8
   68664   68670  -68685  -68706       8   68652   68658  -68676  -68694       8
   68679   68640  -68652  -68676       8   68646   68649  -68637  -68631       8
   68640   68643  -68634  -68631       8   68622   68634  -68631  -68637       8
   68610   68616  -68622  -68631       8   68595   68598  -68589  -68586       8
   69396   69402  -69453  -69477       8   69384   69390  -69444  -69474       8
   69372   69378  -69435  -69471       8   69360   69366  -69429  -69468       8
   69351   69357  -69417  -69465       8   69336   69342  -69408  -69462       8
   69330   69333  -69294  -69267       8   69324   69327  -69291  -69267       8
   69318   69321  -69285  -69258       8   69312   69315  -69282  -69258       8
   69306   69309  -69279  -69255       8   69300   69303  -69276  -69255       8
   69237   69291  -69267  -69294       8   69225   69282  -69258  -69285       8
   69219   69276  -69255  -69279       8   69204   69270  -69237  -69267       8
   69198   69261  -69225  -69258       8   69195   69213  -69219  -69255       8
   69186   69240  -69207  -69201       8   69183   69231  -69201  -69207       8
   69162   69204  -69186  -69207       8   69162   69198  -69183  -69201       8
   69162   69195  -69180  -69177       8   69180   69192  -69177  -69159       8
   69147   69153  -69168  -69189       8   69135   69141  -69159  -69177       8
   69162   69123  -69135  -69159       8   69129   69132  -69120  -69114       8
   69123   69126  -69117  -69114       8   69105   69117  -69114  -69120       8
   69093   69099  -69105  -69114       8   69078   69081  -69072  -69069       8
   69879   69885  -69936  -69960       8   69867   69873  -69927  -69957       8
   69855   69861  -69918  -69954       8   69843   69849  -69912  -69951       8
   69834   69840  -69900  -69948       8   69819   69825  -69891  -69945       8
   69813   69816  -69777  -69750       8   69807   69810  -69774  -69750       8
   69801   69804  -69768  -69741       8   69795   69798  -69765  -69741       8
   69789   69792  -69762  -69738       8   69783   69786  -69759  -69738       8
   69720   69774  -69750  -69777       8   69708   69765  -69741  -69768       8
   69702   69759  -69738  -69762       8   69687   69753  -69720  -69750       8
   69681   69744  -69708  -69741       8   69678   69696  -69702  -69738       8
   69669   69723  -69690  -69684       8   69666   69714  -69684  -69690       8
   69645   69687  -69669  -69690       8   69645   69681  -69666  -69684       8
   69645   69678  -69663  -69660       8   69663   69675  -69660  -69642       8
   69630   69636  -69651  -69672       8   69618   69624  -69642  -69660       8
   69645   69606  -69618  -69642       8   69612   69615  -69603  -69597       8
   69606   69609  -69600  -69597       8   69588   69600  -69597  -69603       8
   69576   69582  -69588  -69597       8   69561   69564  -69555  -69552       8
   70362   70368  -70419  -70443       8   70350   70356  -70410  -70440       8
   70338   70344  -70401  -70437       8   70326   70332  -70395  -70434       8
   70317   70323  -70383  -70431       8   70302   70308  -70374  -70428       8
   70296   70299  -70260  -70233       8   70290   70293  -70257  -70233       8
   70284   70287  -70251  -70224       8   70278   70281  -70248  -70224       8
   70272   70275  -70245  -70221       8   70266   70269  -70242  -70221       8
   70203   70257  -70233  -70260       8   70191   70248  -70224  -70251       8
   70185   70242  -70221  -70245       8   70170   70236  -70203  -70233       8
   70164   70227  -70191  -70224       8   70161   70179  -70185  -70221       8
   70152   70206  -70173  -70167       8   70149   70197  -70167  -70173       8
   70128   70170  -70152  -70173       8   70128   70164  -70149  -70167       8
   70128   70161  -70146  -70143       8   70146   70158  -70143  -70125       8
   70113   70119  -70134  -70155       8   70101   70107  -70125  -70143       8
   70128   70089  -70101  -70125       8   70095   70098  -70086  -70080       8
   70089   70092  -70083  -70080       8   70071   70083  -70080  -70086       8
   70059   70065  -70071  -70080       8   70044   70047  -70038  -70035       8
   70845   70851  -70902  -70926       8   70833   70839  -70893  -70923       8
   70821   70827  -70884  -70920       8   70809   70815  -70878  -70917       8
   70800   70806  -70866  -70914       8   70785   70791  -70857  -70911       8
   70779   70782  -70743  -70716       8   70773   70776  -70740  -70716       8
   70767   70770  -70734  -70707       8   70761   70764  -70731  -70707       8
   70755   70758  -70728  -70704       8   70749   70752  -70725  -70704       8
   70686   70740  -70716  -70743       8   70674   70731  -70707  -70734       8
   70668   70725  -70704  -70728       8   70653   70719  -70686  -70716       8
   70647   70710  -70674  -70707       8   70644   70662  -70668  -70704       8
   70635   70689  -70656  -70650       8   70632   70680  -70650  -70656       8
   70611   70653  -70635  -70656       8   70611   70647  -70632  -70650       8
   70611   70644  -70629  -70626       8   70629   70641  -70626  -70608       8
   70596   70602  -70617  -70638       8   70584   70590  -70608  -70626       8
   70611   70572  -70584  -70608       8   70578   70581  -70569  -70563       8
   70572   70575  -70566  -70563       8   70554   70566  -70563  -70569       8
   70542   70548  -70554  -70563       8   70527   70530  -70521  -70518       8
   71328   71334  -71385  -71409       8   71316   71322  -71376  -71406       8
   71304   71310  -71367  -71403       8   71292   71298  -71361  -71400       8
   71283   71289  -71349  -71397       8   71268   71274  -71340  -71394       8
   71262   71265  -71226  -71199       8   71256   71259  -71223  -71199       8
   71250   71253  -71217  -71190       8   71244   71247  -71214  -71190       8
   71238   71241  -71211  -71187       8   71232   71235  -71208  -71187       8
   71169   71223  -71199  -71226       8   71157   71214  -71190  -71217       8
   71151   71208  -71187  -71211       8   71136   71202  -71169  -71199       8
   71130   71193  -71157  -71190       8   71127   71145  -71151  -71187       8
   71118   71172  -71139  -71133       8   71115   71163  -71133  -71139       8
   71094   71136  -71118  -71139       8   71094   71130  -71115  -71133       8
   71094   71127  -71112  -71109       8   71112   71124  -71109  -71091       8
   71079   71085  -71100  -71121       8   71067   71073  -71091  -71109       8
   71094   71055  -71067  -71091       8   71061   71064  -71052  -71046       8
   71055   71058  -71049  -71046       8   71037   71049  -71046  -71052       8
   71025   71031  -71037  -71046       8   71010   71013  -71004  -71001       8
   71811   71817  -71868  -71892       8   71799   71805  -71859  -71889       8
   71787   71793  -71850  -71886       8   71775   71781  -71844  -71883       8
   71766   71772  -71832  -71880       8   71751   71757  -71823  -71877       8
   71745   71748  -71709  -71682       8   71739   71742  -71706  -71682       8
   71733   71736  -71700  -71673       8   71727   71730  -71697  -71673       8
   71721   71724  -71694  -71670       8   71715   71718  -71691  -71670       8
   71652   71706  -71682  -71709       8   71640   71697  -71673  -71700       8
   71634   71691  -71670  -71694       8   71619   71685  -71652  -71682       8
   71613   71676  -71640  -71673       8   71610   71628  -71634  -71670       8
   71601   71655  -71622  -71616       8   71598   71646  -71616  -71622       8
   71577   71619  -71601  -71622       8   71577   71613  -71598  -71616       8
   71577   71610  -71595  -71592       8   71595   71607  -71592  -71574       8
   71562   71568  -71583  -71604       8   71550   71556  -71574  -71592       8
   71577   71538  -71550  -71574       8   71544   71547  -71535  -71529       8
   71538   71541  -71532  -71529       8   71520   71532  -71529  -71535       8
   71508   71514  -71520  -71529       8   71493   71496  -71487  -71484       8
   72294   72300  -72351  -72375       8   72282   72288  -72342  -72372       8
   72270   72276  -72333  -72369       8   72258   72264  -72327  -72366       8
   72249   72255  -72315  -72363       8   72234   72240  -72306  -72360       8
   72228   72231  -72192  -72165       8   72222   72225  -72189  -72165       8
   72216   72219  -72183  -72156       8   72210   72213  -72180  -72156       8
   72204   72207  -72177  -72153       8   72198   72201  -72174  -72153       8
   72135   72189  -72165  -72192       8   72123   72180  -72156  -72183       8
   72117   72174  -72153  -72177       8   72102   72168  -72135  -72165       8
   72096   72159  -72123  -72156       8   72093   72111  -72117  -72153       8
   72084   72138  -72105  -72099       8   72081   72129  -72099  -72105       8
   72060   72102  -72084  -72105       8   72060   72096  -72081  -72099       8
   72060   72093  -72078  -72075       8   72078   72090  -72075  -72057       8
   72045   72051  -72066  -72087       8   72033   72039  -72057  -72075       8
   72060   72021  -72033  -72057       8   72027   72030  -72018  -72012       8
   72021   72024  -72015  -72012       8   72003   72015  -72012  -72018       8
   71991   71997  -72003  -72012       8   71976   71979  -71970  -71967       8
%FLAG EXCLUDED_ATOMS_LIST                                                       
%FORMAT(10I8)                                                                   
       2       3       4       5       6       7       8       9      10      11
      12       3       4       5       6       7       8       9      10      11
      12      13      14      15       4       5       6       7       8       5
       9      10      11      12      13      14      16       9      10      11
      12      13      15      16       7       8       8       0      10      11
      13      14      15      16      17      18      13      14      12      13
      14      15      16      17      18      13      15      14      15      16
      17      18      19      20      21      22      16      16      17      18
      19      20      21      22      23      24      25      26      27      28
      29      30      18      19      20      21      22      23      24      25
      26      31      32      33      19      20      21      22      27      28
      29      30      34      35      36      20      23      24      25      26
      31      32      37      38      39      40      23      24      25      26
      31      33      37      22      27      28      29      30      34      35
      41      27      28      29      30      34      36      41      24      25
      31      32      33      37      38      39      40      42      43      44
      45      46      47      31      32      26      31      32      33      37
      38      42      31      33      28      29      34      35      36      41
      48      34      35      30      34      35      36      41      48      34
      36      32      33      37      38      39      40      42      43      49
      50      37      38      39      40      42      43      44      45      46
      47      51      52      53      54      55      56      57      58      37
      35      36      41      48      59      60      61      41      41      38
      39      40      42      43      49      50      51      52      62      39
      40      42      43      44      45      46      47      49      50      51
      52      63      40      43      44      45      46      47      53      54
      55      58      64      65      66      43      44      45      46      47
      55      56      57      58      67      68      69      48      59      60
      61      43      49      50      51      62      63      49      51      52
      62      63      70      71      45      47      53      54      55      64
      65      72      73      74      46      47      53      54      55      58
      65      66      68      69      74      47      56      57      58      67
      68      75      76      77      55      56      57      58      65      66
      68      69      77      59      60      61      50      51      52      62
      63      70      71      51      62      52      62      63      70      71
      78      79      80      81      63      54      55      64      65      66
      72      73      74      82      83      84      85      64      65      58
      64      65      66      74      57      67      68      58      67      68
      69      75      76      77      86      87      88      89      67      68
      69      77      60      61      61       0      63      70      71      78
      79      80      81      90      91      92      93      94      95      96
      97      65      72      73      74      82      83      84      85      98
      99     100     101     102     103     104     105      66      72      73
      74      74      68      75      76      77      86      87      88      89
     106     107     108     109     110     111     112     113      69      75
      76      77      77      71      78      79      80      81      90      91
      92      93     114     115     116      78      79      80      81      94
      95      96      97     117     118     119      73      82      83      84
      85      98      99     100     101     120     121     122      82      83
      84      85     102     103     104     105     123     124     125       0
      76      86      87      88      89     106     107     108     109     126
     127     128      86      87      88      89     110     111     112     113
     129     130     131       0      79      90      91      92      93     114
     115     132      90      91      92      93     114     116     132      81
      94      95      96      97     117     118     133      94      95      96
      97     117     119     133      83      98      99     100     101     120
     121     134      98      99     100     101     121     122     134      85
     102     103     104     105     123     124     135     102     103     104
     105     123     125     135      87     106     107     108     109     126
     127     136     106     107     108     109     126     128     136      89
     110     111     112     113     129     130     137     110     111     112
     113     129     131     137      91      92     114     115     116     132
     138     114     115      93     114     115     116     132     138     114
     116      95     117     118      97     117     118     119     133     139
      97     117     119     117     118     119     133     139      99     100
     120     121     122     134     140     120     121     101     120     121
     122     134     140     121     122     103     104     123     124     125
     135     141     123     124     105     123     124     125     135     141
     123     125     107     108     126     127     128     136     142     126
     127     109     126     127     128     136     142     126     128     111
     112     129     130     131     137     143     129     130     113     129
     130     131     137     143     129     131     115     116     132     138
     144     145     146     132     132     118     119     133     139     147
     148     149     133     133     121     134     122     134     140     150
     151     152     134     124     125     135     141     153     154     155
     135     135     127     128     136     142     156     157     158     136
     136     130     131     137     143     159     160     161     137     137
     138     144     145     146     139     147     148     149     140     150
     151     152     141     153     154     155     142     156     157     158
     143     159     160     161     144     145     146     147     148     149
     150     151     152     153     154     155     156     157     158     159
     160     161     145     146     146       0     148     149     149       0
     151     152     152       0     154     155     155       0     157     158
     158       0     160     161     161       0     163     164     165     166
     167     168     169     170     171     172     173     164     165     166
     167     168     169     170     171     172     173     174     175     176
     165     166     167     168     169     166     170     171     172     173
     174     175     177     170     171     172     173     174     176     177
     168     169     169       0     171     172     174     175     176     177
     178     179     174     175     173     174     175     176     177     178
     179     174     176     175     176     177     178     179     180     181
     182     183     177     177     178     179     180     181     182     183
     184     185     186     187     188     189     190     191     179     180
     181     182     183     184     185     186     187     192     193     194
     180     181     182     183     188     189     190     191     195     196
     197     181     184     185     186     187     192     193     198     199
     200     201     184     185     186     187     192     194     198     183
     188     189     190     191     195     196     202     188     189     190
     191     195     197     202     185     186     192     193     194     198
     199     200     201     203     204     205     206     207     208     192
     193     187     192     193     194     198     199     203     192     194
     189     190     195     196     197     202     209     195     196     191
     195     196     197     202     209     195     197     193     194     198
     199     200     201     203     204     210     211     198     199     200
     201     203     204     205     206     207     208     212     213     214
     215     216     217     218     219     198     196     197     202     209
     220     221     222     202     202     199     200     201     203     204
     210     211     212     213     223     200     201     203     204     205
     206     207     208     210     211     212     213     224     201     204
     205     206     207     208     214     215     216     219     225     226
     227     204     205     206     207     208     216     217     218     219
     228     229     230     209     220     221     222     204     210     211
     212     223     224     210     212     213     223     224     231     232
     206     208     214     215     216     225     226     233     234     235
     207     208     214     215     216     219     226     227     229     230
     235     208     217     218     219     228     229     236     237     238
     216     217     218     219     226     227     229     230     238     220
     221     222     211     212     213     223     224     231     232     212
     223     213     223     224     231     232     239     240     241     242
     224     215     216     225     226     227     233     234     235     243
     244     245     246     225     226     219     225     226     227     235
     218     228     229     219     228     229     230     236     237     238
     247     248     249     250     228     229     230     238     221     222
     222       0     224     231     232     239     240     241     242     251
     252     253     254     255     256     257     258     226     233     234
     235     243     244     245     246     259     260     261     262     263
     264     265     266     227     233     234     235     235     229     236
     237     238     247     248     249     250     267     268     269     270
     271     272     273     274     230     236     237     238     238     232
     239     240     241     242     251     252     253     254     275     276
     277     239     240     241     242     255     256     257     258     278
     279     280     234     243     244     245     246     259     260     261
     262     281     282     283     243     244     245     246     263     264
     265     266     284     285     286       0     237     247     248     249
     250     267     268     269     270     287     288     289     247     248
     249     250     271     272     273     274     290     291     292       0
     240     251     252     253     254     275     276     293     251     252
     253     254     275     277     293     242     255     256     257     258
     278     279     294     255     256     257     258     278     280     294
     244     259     260     261     262     281     282     295     259     260
     261     262     282     283     295     246     263     264     265     266
     284     285     296     263     264     265     266     284     286     296
     248     267     268     269     270     287     288     297     267     268
     269     270     287     289     297     250     271     272     273     274
     290     291     298     271     272     273     274     290     292     298
     252     253     275     276     277     293     299     275     276     254
     275     276     277     293     299     275     277     256     278     279
     258     278     279     280     294     300     258     278     280     278
     279     280     294     300     260     261     281     282     283     295
     301     281     282     262     281     282     283     295     301     282
     283     264     265     284     285     286     296     302     284     285
     266     284     285     286     296     302     284     286     268     269
     287     288     289     297     303     287     288     270     287     288
     289     297     303     287     289     272     273     290     291     292
     298     304     290     291     274     290     291     292     298     304
     290     292     276     277     293     299     305     306     307     293
     293     279     280     294     300     308     309     310     294     294
     282     295     283     295     301     311     312     313     295     285
     286     296     302     314     315     316     296     296     288     289
     297     303     317     318     319     297     297     291     292     298
     304     320     321     322     298     298     299     305     306     307
     300     308     309     310     301     311     312     313     302     314
     315     316     303     317     318     319     304     320     321     322
     305     306     307     308     309     310     311     312     313     314
     315     316     317     318     319     320     321     322     306     307
     307       0     309     310     310       0     312     313     313       0
     315     316     316       0     318     319     319       0     321     322
     322       0     324     325     326     327     328     329     330     331
     332     333     334     325     326     327     328     329     330     331
     332     333     334     335     336     337     326     327     328     329
     330     327     331     332     333     334     335     336     338     331
     332     333     334     335     337     338     329     330     330       0
     332     333     335     336     337     338     339     340     335     336
     334     335     336     337     338     339     340     335     337     336
     337     338     339     340     341     342     343     344     338     338
     339     340     341     342     343     344     345     346     347     348
     349     350     351     352     340     341     342     343     344     345
     346     347     348     353     354     355     341     342     343     344
     349     350     351     352     356     357     358     342     345     346
     347     348     353     354     359     360     361     362     345     346
     347     348     353     355     359     344     349     350     351     352
     356     357     363     349     350     351     352     356     358     363
     346     347     353     354     355     359     360     361     362     364
     365     366     367     368     369     353     354     348     353     354
     355     359     360     364     353     355     350     351     356     357
     358     363     370     356     357     352     356     357     358     363
     370     356     358     354     355     359     360     361     362     364
     365     371     372     359     360     361     362     364     365     366
     367     368     369     373     374     375     376     377     378     379
     380     359     357     358     363     370     381     382     383     363
     363     360     361     362     364     365     371     372     373     374
     384     361     362     364     365     366     367     368     369     371
     372     373     374     385     362     365     366     367     368     369
     375     376     377     380     386     387     388     365     366     367
     368     369     377     378     379     380     389     390     391     370
     381     382     383     365     371     372     373     384     385     371
     373     374     384     385     392     393     367     369     375     376
     377     386     387     394     395     396     368     369     375     376
     377     380     387     388     390     391     396     369     378     379
     380     389     390     397     398     399     377     378     379     380
     387     388     390     391     399     381     382     383     372     373
     374     384     385     392     393     373     384     374     384     385
     392     393     400     401     402     403     385     376     377     386
     387     388     394     395     396     404     405     406     407     386
     387     380     386     387     388     396     379     389     390     380
     389     390     391     397     398     399     408     409     410     411
     389     390     391     399     382     383     383       0     385     392
     393     400     401     402     403     412     413     414     415     416
     417     418     419     387     394     395     396     404     405     406
     407     420     421     422     423     424     425     426     427     388
     394     395     396     396     390     397     398     399     408     409
     410     411     428     429     430     431     432     433     434     435
     391     397     398     399     399     393     400     401     402     403
     412     413     414     415     436     437     438     400     401     402
     403     416     417     418     419     439     440     441     395     404
     405     406     407     420     421     422     423     442     443     444
     404     405     406     407     424     425     426     427     445     446
     447       0     398     408     409     410     411     428     429     430
     431     448     449     450     408     409     410     411     432     433
     434     435     451     452     453       0     401     412     413     414
     415     436     437     454     412     413     414     415     436     438
     454     403     416     417     418     419     439     440     455     416
     417     418     419     439     441     455     405     420     421     422
     423     442     443     456     420     421     422     423     443     444
     456     407     424     425     426     427     445     446     457     424
     425     426     427     445     447     457     409     428     429     430
     431     448     449     458     428     429     430     431     448     450
     458     411     432     433     434     435     451     452     459     432
     433     434     435     451     453     459     413     414     436     437
     438     454     460     436     437     415     436     437     438     454
     460     436     438     417     439     440     419     439     440     441
     455     461     419     439     441     439     440     441     455     461
     421     422     442     443     444     456     462     442     443     423
     442     443     444     456     462     443     444     425     426     445
     446     447     457     463     445     446     427     445     446     447
     457     463     445     447     429     430     448     449     450     458
     464     448     449     431     448     449     450     458     464     448
     450     433     434     451     452     453     459     465     451     452
     435     451     452     453     459     465     451     453     437     438
     454     460     466     467     468     454     454     440     441     455
     461     469     470     471     455     455     443     456     444     456
     462     472     473     474     456     446     447     457     463     475
     476     477     457     457     449     450     458     464     478     479
     480     458     458     452     453     459     465     481     482     483
     459     459     460     466     467     468     461     469     470     471
     462     472     473     474     463     475     476     477     464     478
     479     480     465     481     482     483     466     467     468     469
     470     471     472     473     474     475     476     477     478     479
     480     481     482     483     467     468     468       0     470     471
     471       0     473     474     474       0     476     477     477       0
     479     480     480       0     482     483     483       0     485     486
     487     488     489     490     491     492     493     494     495     486
     487     488     489     490     491     492     493     494     495     496
     497     498     487     488     489     490     491     488     492     493
     494     495     496     497     499     492     493     494     495     496
     498     499     490     491     491       0     493     494     496     497
     498     499     500     501     496     497     495     496     497     498
     499     500     501     496     498     497     498     499     500     501
     502     503     504     505     499     499     500     501     502     503
     504     505     506     507     508     509     510     511     512     513
     501     502     503     504     505     506     507     508     509     514
     515     516     502     503     504     505     510     511     512     513
     517     518     519     503     506     507     508     509     514     515
     520     521     522     523     506     507     508     509     514     516
     520     505     510     511     512     513     517     518     524     510
     511     512     513     517     519     524     507     508     514     515
     516     520     521     522     523     525     526     527     528     529
     530     514     515     509     514     515     516     520     521     525
     514     516     511     512     517     518     519     524     531     517
     518     513     517     518     519     524     531     517     519     515
     516     520     521     522     523     525     526     532     533     520
     521     522     523     525     526     527     528     529     530     534
     535     536     537     538     539     540     541     520     518     519
     524     531     542     543     544     524     524     521     522     523
     525     526     532     533     534     535     545     522     523     525
     526     527     528     529     530     532     533     534     535     546
     523     526     527     528     529     530     536     537     538     541
     547     548     549     526     527     528     529     530     538     539
     540     541     550     551     552     531     542     543     544     526
     532     533     534     545     546     532     534     535     545     546
     553     554     528     530     536     537     538     547     548     555
     556     557     529     530     536     537     538     541     548     549
     551     552     557     530     539     540     541     550     551     558
     559     560     538     539     540     541     548     549     551     552
     560     542     543     544     533     534     535     545     546     553
     554     534     545     535     545     546     553     554     561     562
     563     564     546     537     538     547     548     549     555     556
     557     565     566     567     568     547     548     541     547     548
     549     557     540     550     551     541     550     551     552     558
     559     560     569     570     571     572     550     551     552     560
     543     544     544       0     546     553     554     561     562     563
     564     573     574     575     576     577     578     579     580     548
     555     556     557     565     566     567     568     581     582     583
     584     585     586     587     588     549     555     556     557     557
     551     558     559     560     569     570     571     572     589     590
     591     592     593     594     595     596     552     558     559     560
     560     554     561     562     563     564     573     574     575     576
     597     598     599     561     562     563     564     577     578     579
     580     600     601     602     556     565     566     567     568     581
     582     583     584     603     604     605     565     566     567     568
     585     586     587     588     606     607     608       0     559     569
     570     571     572     589     590     591     592     609     610     611
     569     570     571     572     593     594     595     596     612     613
     614       0     562     573     574     575     576     597     598     615
     573     574     575     576     597     599     615     564     577     578
     579     580     600     601     616     577     578     579     580     600
     602     616     566     581     582     583     584     603     604     617
     581     582     583     584     604     605     617     568     585     586
     587     588     606     607     618     585     586     587     588     606
     608     618     570     589     590     591     592     609     610     619
     589     590     591     592     609     611     619     572     593     594
     595     596     612     613     620     593     594     595     596     612
     614     620     574     575     597     598     599     615     621     597
     598     576     597     598     599     615     621     597     599     578
     600     601     580     600     601     602     616     622     580     600
     602     600     601     602     616     622     582     583     603     604
     605     617     623     603     604     584     603     604     605     617
     623     604     605     586     587     606     607     608     618     624
     606     607     588     606     607     608     618     624     606     608
     590     591     609     610     611     619     625     609     610     592
     609     610     611     619     625     609     611     594     595     612
     613     614     620     626     612     613     596     612     613     614
     620     626     612     614     598     599     615     621     627     628
     629     615     615     601     602     616     622     630     631     632
     616     616     604     617     605     617     623     633     634     635
     617     607     608     618     624     636     637     638     618     618
     610     611     619     625     639     640     641     619     619     613
     614     620     626     642     643     644     620     620     621     627
     628     629     622     630     631     632     623     633     634     635
     624     636     637     638     625     639     640     641     626     642
     643     644     627     628     629     630     631     632     633     634
     635     636     637     638     639     640     641     642     643     644
     628     629     629       0     631     632     632       0     634     635
     635       0     637     638     638       0     640     641     641       0
     643     644     644       0     646     647     648     649     650     651
     652     653     654     655     656     647     648     649     650     651
     652     653     654     655     656     657     658     659     648     649
     650     651     652     649     653     654     655     656     657     658
     660     653     654     655     656     657     659     660     651     652
     652       0     654     655     657     658     659     660     661     662
     657     658     656     657     658     659     660     661     662     657
     659     658     659     660     661     662     663     664     665     666
     660     660     661     662     663     664     665     666     667     668
     669     670     671     672     673     674     662     663     664     665
     666     667     668     669     670     675     676     677     663     664
     665     666     671     672     673     674     678     679     680     664
     667     668     669     670     675     676     681     682     683     684
     667     668     669     670     675     677     681     666     671     672
     673     674     678     679     685     671     672     673     674     678
     680     685     668     669     675     676     677     681     682     683
     684     686     687     688     689     690     691     675     676     670
     675     676     677     681     682     686     675     677     672     673
     678     679     680     685     692     678     679     674     678     679
     680     685     692     678     680     676     677     681     682     683
     684     686     687     693     694     681     682     683     684     686
     687     688     689     690     691     695     696     697     698     699
     700     701     702     681     679     680     685     692     703     704
     705     685     685     682     683     684     686     687     693     694
     695     696     706     683     684     686     687     688     689     690
     691     693     694     695     696     707     684     687     688     689
     690     691     697     698     699     702     708     709     710     687
     688     689     690     691     699     700     701     702     711     712
     713     692     703     704     705     687     693     694     695     706
     707     693     695     696     706     707     714     715     689     691
     697     698     699     708     709     716     717     718     690     691
     697     698     699     702     709     710     712     713     718     691
     700     701     702     711     712     719     720     721     699     700
     701     702     709     710     712     713     721     703     704     705
     694     695     696     706     707     714     715     695     706     696
     706     707     714     715     722     723     724     725     707     698
     699     708     709     710     716     717     718     726     727     728
     729     708     709     702     708     709     710     718     701     711
     712     702     711     712     713     719     720     721     730     731
     732     733     711     712     713     721     704     705     705       0
     707     714     715     722     723     724     725     734     735     736
     737     738     739     740     741     709     716     717     718     726
     727     728     729     742     743     744     745     746     747     748
     749     710     716     717     718     718     712     719     720     721
     730     731     732     733     750     751     752     753     754     755
     756     757     713     719     720     721     721     715     722     723
     724     725     734     735     736     737     758     759     760     722
     723     724     725     738     739     740     741     761     762     763
     717     726     727     728     729     742     743     744     745     764
     765     766     726     727     728     729     746     747     748     749
     767     768     769       0     720     730     731     732     733     750
     751     752     753     770     771     772     730     731     732     733
     754     755     756     757     773     774     775       0     723     734
     735     736     737     758     759     776     734     735     736     737
     758     760     776     725     738     739     740     741     761     762
     777     738     739     740     741     761     763     777     727     742
     743     744     745     764     765     778     742     743     744     745
     765     766     778     729     746     747     748     749     767     768
     779     746     747     748     749     767     769     779     731     750
     751     752     753     770     771     780     750     751     752     753
     770     772     780     733     754     755     756     757     773     774
     781     754     755     756     757     773     775     781     735     736
     758     759     760     776     782     758     759     737     758     759
     760     776     782     758     760     739     761     762     741     761
     762     763     777     783     741     761     763     761     762     763
     777     783     743     744     764     765     766     778     784     764
     765     745     764     765     766     778     784     765     766     747
     748     767     768     769     779     785     767     768     749     767
     768     769     779     785     767     769     751     752     770     771
     772     780     786     770     771     753     770     771     772     780
     786     770     772     755     756     773     774     775     781     787
     773     774     757     773     774     775     781     787     773     775
     759     760     776     782     788     789     790     776     776     762
     763     777     783     791     792     793     777     777     765     778
     766     778     784     794     795     796     778     768     769     779
     785     797     798     799     779     779     771     772     780     786
     800     801     802     780     780     774     775     781     787     803
     804     805     781     781     782     788     789     790     783     791
     792     793     784     794     795     796     785     797     798     799
     786     800     801     802     787     803     804     805     788     789
     790     791     792     793     794     795     796     797     798     799
     800     801     802     803     804     805     789     790     790       0
     792     793     793       0     795     796     796       0     798     799
     799       0     801     802     802       0     804     805     805       0
     807     808     809     810     811     812     813     814     815     816
     817     808     809     810     811     812     813     814     815     816
     817     818     819     820     809     810     811     812     813     810
     814     815     816     817     818     819     821     814     815     816
     817     818     820     821     812     813     813       0     815     816
     818     819     820     821     822     823     818     819     817     818
     819     820     821     822     823     818     820     819     820     821
     822     823     824     825     826     827     821     821     822     823
     824     825     826     827     828     829     830     831     832     833
     834     835     823     824     825     826     827     828     829     830
     831     836     837     838     824     825     826     827     832     833
     834     835     839     840     841     825     828     829     830     831
     836     837     842     843     844     845     828     829     830     831
     836     838     842     827     832     833     834     835     839     840
     846     832     833     834     835     839     841     846     829     830
     836     837     838     842     843     844     845     847     848     849
     850     851     852     836     837     831     836     837     838     842
     843     847     836     838     833     834     839     840     841     846
     853     839     840     835     839     840     841     846     853     839
     841     837     838     842     843     844     845     847     848     854
     855     842     843     844     845     847     848     849     850     851
     852     856     857     858     859     860     861     862     863     842
     840     841     846     853     864     865     866     846     846     843
     844     845     847     848     854     855     856     857     867     844
     845     847     848     849     850     851     852     854     855     856
     857     868     845     848     849     850     851     852     858     859
     860     863     869     870     871     848     849     850     851     852
     860     861     862     863     872     873     874     853     864     865
     866     848     854     855     856     867     868     854     856     857
     867     868     875     876     850     852     858     859     860     869
     870     877     878     879     851     852     858     859     860     863
     870     871     873     874     879     852     861     862     863     872
     873     880     881     882     860     861     862     863     870     871
     873     874     882     864     865     866     855     856     857     867
     868     875     876     856     867     857     867     868     875     876
     883     884     885     886     868     859     860     869     870     871
     877     878     879     887     888     889     890     869     870     863
     869     870     871     879     862     872     873     863     872     873
     874     880     881     882     891     892     893     894     872     873
     874     882     865     866     866       0     868     875     876     883
     884     885     886     895     896     897     898     899     900     901
     902     870     877     878     879     887     888     889     890     903
     904     905     906     907     908     909     910     871     877     878
     879     879     873     880     881     882     891     892     893     894
     911     912     913     914     915     916     917     918     874     880
     881     882     882     876     883     884     885     886     895     896
     897     898     919     920     921     883     884     885     886     899
     900     901     902     922     923     924     878     887     888     889
     890     903     904     905     906     925     926     927     887     888
     889     890     907     908     909     910     928     929     930       0
     881     891     892     893     894     911     912     913     914     931
     932     933     891     892     893     894     915     916     917     918
     934     935     936       0     884     895     896     897     898     919
     920     937     895     896     897     898     919     921     937     886
     899     900     901     902     922     923     938     899     900     901
     902     922     924     938     888     903     904     905     906     925
     926     939     903     904     905     906     926     927     939     890
     907     908     909     910     928     929     940     907     908     909
     910     928     930     940     892     911     912     913     914     931
     932     941     911     912     913     914     931     933     941     894
     915     916     917     918     934     935     942     915     916     917
     918     934     936     942     896     897     919     920     921     937
     943     919     920     898     919     920     921     937     943     919
     921     900     922     923     902     922     923     924     938     944
     902     922     924     922     923     924     938     944     904     905
     925     926     927     939     945     925     926     906     925     926
     927     939     945     926     927     908     909     928     929     930
     940     946     928     929     910     928     929     930     940     946
     928     930     912     913     931     932     933     941     947     931
     932     914     931     932     933     941     947     931     933     916
     917     934     935     936     942     948     934     935     918     934
     935     936     942     948     934     936     920     921     937     943
     949     950     951     937     937     923     924     938     944     952
     953     954     938     938     926     939     927     939     945     955
     956     957     939     929     930     940     946     958     959     960
     940     940     932     933     941     947     961     962     963     941
     941     935     936     942     948     964     965     966     942     942
     943     949     950     951     944     952     953     954     945     955
     956     957     946     958     959     960     947     961     962     963
     948     964     965     966     949     950     951     952     953     954
     955     956     957     958     959     960     961     962     963     964
     965     966     950     951     951       0     953     954     954       0
     956     957     957       0     959     960     960       0     962     963
     963       0     965     966     966       0     968     969     970     971
     972     973     974     975     976     977     978     969     970     971
     972     973     974     975     976     977     978     979     980     981
     970     971     972     973     974     971     975     976     977     978
     979     980     982     975     976     977     978     979     981     982
     973     974     974       0     976     977     979     980     981     982
     983     984     979     980     978     979     980     981     982     983
     984     979     981     980     981     982     983     984     985     986
     987     988     982     982     983     984     985     986     987     988
     989     990     991     992     993     994     995     996     984     985
     986     987     988     989     990     991     992     997     998     999
     985     986     987     988     993     994     995     996    1000    1001
    1002     986     989     990     991     992     997     998    1003    1004
    1005    1006     989     990     991     992     997     999    1003     988
     993     994     995     996    1000    1001    1007     993     994     995
     996    1000    1002    1007     990     991     997     998     999    1003
    1004    1005    1006    1008    1009    1010    1011    1012    1013     997
     998     992     997     998     999    1003    1004    1008     997     999
     994     995    1000    1001    1002    1007    1014    1000    1001     996
    1000    1001    1002    1007    1014    1000    1002     998     999    1003
    1004    1005    1006    1008    1009    1015    1016    1003    1004    1005
    1006    1008    1009    1010    1011    1012    1013    1017    1018    1019
    1020    1021    1022    1023    1024    1003    1001    1002    1007    1014
    1025    1026    1027    1007    1007    1004    1005    1006    1008    1009
    1015    1016    1017    1018    1028    1005    1006    1008    1009    1010
    1011    1012    1013    1015    1016    1017    1018    1029    1006    1009
    1010    1011    1012    1013    1019    1020    1021    1024    1030    1031
    1032    1009    1010    1011    1012    1013    1021    1022    1023    1024
    1033    1034    1035    1014    1025    1026    1027    1009    1015    1016
    1017    1028    1029    1015    1017    1018    1028    1029    1036    1037
    1011    1013    1019    1020    1021    1030    1031    1038    1039    1040
    1012    1013    1019    1020    1021    1024    1031    1032    1034    1035
    1040    1013    1022    1023    1024    1033    1034    1041    1042    1043
    1021    1022    1023    1024    1031    1032    1034    1035    1043    1025
    1026    1027    1016    1017    1018    1028    1029    1036    1037    1017
    1028    1018    1028    1029    1036    1037    1044    1045    1046    1047
    1029    1020    1021    1030    1031    1032    1038    1039    1040    1048
    1049    1050    1051    1030    1031    1024    1030    1031    1032    1040
    1023    1033    1034    1024    1033    1034    1035    1041    1042    1043
    1052    1053    1054    1055    1033    1034    1035    1043    1026    1027
    1027       0    1029    1036    1037    1044    1045    1046    1047    1056
    1057    1058    1059    1060    1061    1062    1063    1031    1038    1039
    1040    1048    1049    1050    1051    1064    1065    1066    1067    1068
    1069    1070    1071    1032    1038    1039    1040    1040    1034    1041
    1042    1043    1052    1053    1054    1055    1072    1073    1074    1075
    1076    1077    1078    1079    1035    1041    1042    1043    1043    1037
    1044    1045    1046    1047    1056    1057    1058    1059    1080    1081
    1082    1044    1045    1046    1047    1060    1061    1062    1063    1083
    1084    1085    1039    1048    1049    1050    1051    1064    1065    1066
    1067    1086    1087    1088    1048    1049    1050    1051    1068    1069
    1070    1071    1089    1090    1091       0    1042    1052    1053    1054
    1055    1072    1073    1074    1075    1092    1093    1094    1052    1053
    1054    1055    1076    1077    1078    1079    1095    1096    1097       0
    1045    1056    1057    1058    1059    1080    1081    1098    1056    1057
    1058    1059    1080    1082    1098    1047    1060    1061    1062    1063
    1083    1084    1099    1060    1061    1062    1063    1083    1085    1099
    1049    1064    1065    1066    1067    1086    1087    1100    1064    1065
    1066    1067    1087    1088    1100    1051    1068    1069    1070    1071
    1089    1090    1101    1068    1069    1070    1071    1089    1091    1101
    1053    1072    1073    1074    1075    1092    1093    1102    1072    1073
    1074    1075    1092    1094    1102    1055    1076    1077    1078    1079
    1095    1096    1103    1076    1077    1078    1079    1095    1097    1103
    1057    1058    1080    1081    1082    1098    1104    1080    1081    1059
    1080    1081    1082    1098    1104    1080    1082    1061    1083    1084
    1063    1083    1084    1085    1099    1105    1063    1083    1085    1083
    1084    1085    1099    1105    1065    1066    1086    1087    1088    1100
    1106    1086    1087    1067    1086    1087    1088    1100    1106    1087
    1088    1069    1070    1089    1090    1091    1101    1107    1089    1090
    1071    1089    1090    1091    1101    1107    1089    1091    1073    1074
    1092    1093    1094    1102    1108    1092    1093    1075    1092    1093
    1094    1102    1108    1092    1094    1077    1078    1095    1096    1097
    1103    1109    1095    1096    1079    1095    1096    1097    1103    1109
    1095    1097    1081    1082    1098    1104    1110    1111    1112    1098
    1098    1084    1085    1099    1105    1113    1114    1115    1099    1099
    1087    1100    1088    1100    1106    1116    1117    1118    1100    1090
    1091    1101    1107    1119    1120    1121    1101    1101    1093    1094
    1102    1108    1122    1123    1124    1102    1102    1096    1097    1103
    1109    1125    1126    1127    1103    1103    1104    1110    1111    1112
    1105    1113    1114    1115    1106    1116    1117    1118    1107    1119
    1120    1121    1108    1122    1123    1124    1109    1125    1126    1127
    1110    1111    1112    1113    1114    1115    1116    1117    1118    1119
    1120    1121    1122    1123    1124    1125    1126    1127    1111    1112
    1112       0    1114    1115    1115       0    1117    1118    1118       0
    1120    1121    1121       0    1123    1124    1124       0    1126    1127
    1127       0    1129    1130    1131    1132    1133    1134    1135    1136
    1137    1138    1139    1130    1131    1132    1133    1134    1135    1136
    1137    1138    1139    1140    1141    1142    1131    1132    1133    1134
    1135    1132    1136    1137    1138    1139    1140    1141    1143    1136
    1137    1138    1139    1140    1142    1143    1134    1135    1135       0
    1137    1138    1140    1141    1142    1143    1144    1145    1140    1141
    1139    1140    1141    1142    1143    1144    1145    1140    1142    1141
    1142    1143    1144    1145    1146    1147    1148    1149    1143    1143
    1144    1145    1146    1147    1148    1149    1150    1151    1152    1153
    1154    1155    1156    1157    1145    1146    1147    1148    1149    1150
    1151    1152    1153    1158    1159    1160    1146    1147    1148    1149
    1154    1155    1156    1157    1161    1162    1163    1147    1150    1151
    1152    1153    1158    1159    1164    1165    1166    1167    1150    1151
    1152    1153    1158    1160    1164    1149    1154    1155    1156    1157
    1161    1162    1168    1154    1155    1156    1157    1161    1163    1168
    1151    1152    1158    1159    1160    1164    1165    1166    1167    1169
    1170    1171    1172    1173    1174    1158    1159    1153    1158    1159
    1160    1164    1165    1169    1158    1160    1155    1156    1161    1162
    1163    1168    1175    1161    1162    1157    1161    1162    1163    1168
    1175    1161    1163    1159    1160    1164    1165    1166    1167    1169
    1170    1176    1177    1164    1165    1166    1167    1169    1170    1171
    1172    1173    1174    1178    1179    1180    1181    1182    1183    1184
    1185    1164    1162    1163    1168    1175    1186    1187    1188    1168
    1168    1165    1166    1167    1169    1170    1176    1177    1178    1179
    1189    1166    1167    1169    1170    1171    1172    1173    1174    1176
    1177    1178    1179    1190    1167    1170    1171    1172    1173    1174
    1180    1181    1182    1185    1191    1192    1193    1170    1171    1172
    1173    1174    1182    1183    1184    1185    1194    1195    1196    1175
    1186    1187    1188    1170    1176    1177    1178    1189    1190    1176
    1178    1179    1189    1190    1197    1198    1172    1174    1180    1181
    1182    1191    1192    1199    1200    1201    1173    1174    1180    1181
    1182    1185    1192    1193    1195    1196    1201    1174    1183    1184
    1185    1194    1195    1202    1203    1204    1182    1183    1184    1185
    1192    1193    1195    1196    1204    1186    1187    1188    1177    1178
    1179    1189    1190    1197    1198    1178    1189    1179    1189    1190
    1197    1198    1205    1206    1207    1208    1190    1181    1182    1191
    1192    1193    1199    1200    1201    1209    1210    1211    1212    1191
    1192    1185    1191    1192    1193    1201    1184    1194    1195    1185
    1194    1195    1196    1202    1203    1204    1213    1214    1215    1216
    1194    1195    1196    1204    1187    1188    1188       0    1190    1197
    1198    1205    1206    1207    1208    1217    1218    1219    1220    1221
    1222    1223    1224    1192    1199    1200    1201    1209    1210    1211
    1212    1225    1226    1227    1228    1229    1230    1231    1232    1193
    1199    1200    1201    1201    1195    1202    1203    1204    1213    1214
    1215    1216    1233    1234    1235    1236    1237    1238    1239    1240
    1196    1202    1203    1204    1204    1198    1205    1206    1207    1208
    1217    1218    1219    1220    1241    1242    1243    1205    1206    1207
    1208    1221    1222    1223    1224    1244    1245    1246    1200    1209
    1210    1211    1212    1225    1226    1227    1228    1247    1248    1249
    1209    1210    1211    1212    1229    1230    1231    1232    1250    1251
    1252       0    1203    1213    1214    1215    1216    1233    1234    1235
    1236    1253    1254    1255    1213    1214    1215    1216    1237    1238
    1239    1240    1256    1257    1258       0    1206    1217    1218    1219
    1220    1241    1242    1259    1217    1218    1219    1220    1241    1243
    1259    1208    1221    1222    1223    1224    1244    1245    1260    1221
    1222    1223    1224    1244    1246    1260    1210    1225    1226    1227
    1228    1247    1248    1261    1225    1226    1227    1228    1248    1249
    1261    1212    1229    1230    1231    1232    1250    1251    1262    1229
    1230    1231    1232    1250    1252    1262    1214    1233    1234    1235
    1236    1253    1254    1263    1233    1234    1235    1236    1253    1255
    1263    1216    1237    1238    1239    1240    1256    1257    1264    1237
    1238    1239    1240    1256    1258    1264    1218    1219    1241    1242
    1243    1259    1265    1241    1242    1220    1241    1242    1243    1259
    1265    1241    1243    1222    1244    1245    1224    1244    1245    1246
    1260    1266    1224    1244    1246    1244    1245    1246    1260    1266
    1226    1227    1247    1248    1249    1261    1267    1247    1248    1228
    1247    1248    1249    1261    1267    1248    1249    1230    1231    1250
    1251    1252    1262    1268    1250    1251    1232    1250    1251    1252
    1262    1268    1250    1252    1234    1235    1253    1254    1255    1263
    1269    1253    1254    1236    1253    1254    1255    1263    1269    1253
    1255    1238    1239    1256    1257    1258    1264    1270    1256    1257
    1240    1256    1257    1258    1264    1270    1256    1258    1242    1243
    1259    1265    1271    1272    1273    1259    1259    1245    1246    1260
    1266    1274    1275    1276    1260    1260    1248    1261    1249    1261
    1267    1277    1278    1279    1261    1251    1252    1262    1268    1280
    1281    1282    1262    1262    1254    1255    1263    1269    1283    1284
    1285    1263    1263    1257    1258    1264    1270    1286    1287    1288
    1264    1264    1265    1271    1272    1273    1266    1274    1275    1276
    1267    1277    1278    1279    1268    1280    1281    1282    1269    1283
    1284    1285    1270    1286    1287    1288    1271    1272    1273    1274
    1275    1276    1277    1278    1279    1280    1281    1282    1283    1284
    1285    1286    1287    1288    1272    1273    1273       0    1275    1276
    1276       0    1278    1279    1279       0    1281    1282    1282       0
    1284    1285    1285       0    1287    1288    1288       0    1290    1291
    1292    1293    1294    1295    1296    1297    1298    1299    1300    1291
    1292    1293    1294    1295    1296    1297    1298    1299    1300    1301
    1302    1303    1292    1293    1294    1295    1296    1293    1297    1298
    1299    1300    1301    1302    1304    1297    1298    1299    1300    1301
    1303    1304    1295    1296    1296       0    1298    1299    1301    1302
    1303    1304    1305    1306    1301    1302    1300    1301    1302    1303
    1304    1305    1306    1301    1303    1302    1303    1304    1305    1306
    1307    1308    1309    1310    1304    1304    1305    1306    1307    1308
    1309    1310    1311    1312    1313    1314    1315    1316    1317    1318
    1306    1307    1308    1309    1310    1311    1312    1313    1314    1319
    1320    1321    1307    1308    1309    1310    1315    1316    1317    1318
    1322    1323    1324    1308    1311    1312    1313    1314    1319    1320
    1325    1326    1327    1328    1311    1312    1313    1314    1319    1321
    1325    1310    1315    1316    1317    1318    1322    1323    1329    1315
    1316    1317    1318    1322    1324    1329    1312    1313    1319    1320
    1321    1325    1326    1327    1328    1330    1331    1332    1333    1334
    1335    1319    1320    1314    1319    1320    1321    1325    1326    1330
    1319    1321    1316    1317    1322    1323    1324    1329    1336    1322
    1323    1318    1322    1323    1324    1329    1336    1322    1324    1320
    1321    1325    1326    1327    1328    1330    1331    1337    1338    1325
    1326    1327    1328    1330    1331    1332    1333    1334    1335    1339
    1340    1341    1342    1343    1344    1345    1346    1325    1323    1324
    1329    1336    1347    1348    1349    1329    1329    1326    1327    1328
    1330    1331    1337    1338    1339    1340    1350    1327    1328    1330
    1331    1332    1333    1334    1335    1337    1338    1339    1340    1351
    1328    1331    1332    1333    1334    1335    1341    1342    1343    1346
    1352    1353    1354    1331    1332    1333    1334    1335    1343    1344
    1345    1346    1355    1356    1357    1336    1347    1348    1349    1331
    1337    1338    1339    1350    1351    1337    1339    1340    1350    1351
    1358    1359    1333    1335    1341    1342    1343    1352    1353    1360
    1361    1362    1334    1335    1341    1342    1343    1346    1353    1354
    1356    1357    1362    1335    1344    1345    1346    1355    1356    1363
    1364    1365    1343    1344    1345    1346    1353    1354    1356    1357
    1365    1347    1348    1349    1338    1339    1340    1350    1351    1358
    1359    1339    1350    1340    1350    1351    1358    1359    1366    1367
    1368    1369    1351    1342    1343    1352    1353    1354    1360    1361
    1362    1370    1371    1372    1373    1352    1353    1346    1352    1353
    1354    1362    1345    1355    1356    1346    1355    1356    1357    1363
    1364    1365    1374    1375    1376    1377    1355    1356    1357    1365
    1348    1349    1349       0    1351    1358    1359    1366    1367    1368
    1369    1378    1379    1380    1381    1382    1383    1384    1385    1353
    1360    1361    1362    1370    1371    1372    1373    1386    1387    1388
    1389    1390    1391    1392    1393    1354    1360    1361    1362    1362
    1356    1363    1364    1365    1374    1375    1376    1377    1394    1395
    1396    1397    1398    1399    1400    1401    1357    1363    1364    1365
    1365    1359    1366    1367    1368    1369    1378    1379    1380    1381
    1402    1403    1404    1366    1367    1368    1369    1382    1383    1384
    1385    1405    1406    1407    1361    1370    1371    1372    1373    1386
    1387    1388    1389    1408    1409    1410    1370    1371    1372    1373
    1390    1391    1392    1393    1411    1412    1413       0    1364    1374
    1375    1376    1377    1394    1395    1396    1397    1414    1415    1416
    1374    1375    1376    1377    1398    1399    1400    1401    1417    1418
    1419       0    1367    1378    1379    1380    1381    1402    1403    1420
    1378    1379    1380    1381    1402    1404    1420    1369    1382    1383
    1384    1385    1405    1406    1421    1382    1383    1384    1385    1405
    1407    1421    1371    1386    1387    1388    1389    1408    1409    1422
    1386    1387    1388    1389    1409    1410    1422    1373    1390    1391
    1392    1393    1411    1412    1423    1390    1391    1392    1393    1411
    1413    1423    1375    1394    1395    1396    1397    1414    1415    1424
    1394    1395    1396    1397    1414    1416    1424    1377    1398    1399
    1400    1401    1417    1418    1425    1398    1399    1400    1401    1417
    1419    1425    1379    1380    1402    1403    1404    1420    1426    1402
    1403    1381    1402    1403    1404    1420    1426    1402    1404    1383
    1405    1406    1385    1405    1406    1407    1421    1427    1385    1405
    1407    1405    1406    1407    1421    1427    1387    1388    1408    1409
    1410    1422    1428    1408    1409    1389    1408    1409    1410    1422
    1428    1409    1410    1391    1392    1411    1412    1413    1423    1429
    1411    1412    1393    1411    1412    1413    1423    1429    1411    1413
    1395    1396    1414    1415    1416    1424    1430    1414    1415    1397
    1414    1415    1416    1424    1430    1414    1416    1399    1400    1417
    1418    1419    1425    1431    1417    1418    1401    1417    1418    1419
    1425    1431    1417    1419    1403    1404    1420    1426    1432    1433
    1434    1420    1420    1406    1407    1421    1427    1435    1436    1437
    1421    1421    1409    1422    1410    1422    1428    1438    1439    1440
    1422    1412    1413    1423    1429    1441    1442    1443    1423    1423
    1415    1416    1424    1430    1444    1445    1446    1424    1424    1418
    1419    1425    1431    1447    1448    1449    1425    1425    1426    1432
    1433    1434    1427    1435    1436    1437    1428    1438    1439    1440
    1429    1441    1442    1443    1430    1444    1445    1446    1431    1447
    1448    1449    1432    1433    1434    1435    1436    1437    1438    1439
    1440    1441    1442    1443    1444    1445    1446    1447    1448    1449
    1433    1434    1434       0    1436    1437    1437       0    1439    1440
    1440       0    1442    1443    1443       0    1445    1446    1446       0
    1448    1449    1449       0    1451    1452    1453    1454    1455    1456
    1457    1458    1459    1460    1461    1452    1453    1454    1455    1456
    1457    1458    1459    1460    1461    1462    1463    1464    1453    1454
    1455    1456    1457    1454    1458    1459    1460    1461    1462    1463
    1465    1458    1459    1460    1461    1462    1464    1465    1456    1457
    1457       0    1459    1460    1462    1463    1464    1465    1466    1467
    1462    1463    1461    1462    1463    1464    1465    1466    1467    1462
    1464    1463    1464    1465    1466    1467    1468    1469    1470    1471
    1465    1465    1466    1467    1468    1469    1470    1471    1472    1473
    1474    1475    1476    1477    1478    1479    1467    1468    1469    1470
    1471    1472    1473    1474    1475    1480    1481    1482    1468    1469
    1470    1471    1476    1477    1478    1479    1483    1484    1485    1469
    1472    1473    1474    1475    1480    1481    1486    1487    1488    1489
    1472    1473    1474    1475    1480    1482    1486    1471    1476    1477
    1478    1479    1483    1484    1490    1476    1477    1478    1479    1483
    1485    1490    1473    1474    1480    1481    1482    1486    1487    1488
    1489    1491    1492    1493    1494    1495    1496    1480    1481    1475
    1480    1481    1482    1486    1487    1491    1480    1482    1477    1478
    1483    1484    1485    1490    1497    1483    1484    1479    1483    1484
    1485    1490    1497    1483    1485    1481    1482    1486    1487    1488
    1489    1491    1492    1498    1499    1486    1487    1488    1489    1491
    1492    1493    1494    1495    1496    1500    1501    1502    1503    1504
    1505    1506    1507    1486    1484    1485    1490    1497    1508    1509
    1510    1490    1490    1487    1488    1489    1491    1492    1498    1499
    1500    1501    1511    1488    1489    1491    1492    1493    1494    1495
    1496    1498    1499    1500    1501    1512    1489    1492    1493    1494
    1495    1496    1502    1503    1504    1507    1513    1514    1515    1492
    1493    1494    1495    1496    1504    1505    1506    1507    1516    1517
    1518    1497    1508    1509    1510    1492    1498    1499    1500    1511
    1512    1498    1500    1501    1511    1512    1519    1520    1494    1496
    1502    1503    1504    1513    1514    1521    1522    1523    1495    1496
    1502    1503    1504    1507    1514    1515    1517    1518    1523    1496
    1505    1506    1507    1516    1517    1524    1525    1526    1504    1505
    1506    1507    1514    1515    1517    1518    1526    1508    1509    1510
    1499    1500    1501    1511    1512    1519    1520    1500    1511    1501
    1511    1512    1519    1520    1527    1528    1529    1530    1512    1503
    1504    1513    1514    1515    1521    1522    1523    1531    1532    1533
    1534    1513    1514    1507    1513    1514    1515    1523    1506    1516
    1517    1507    1516    1517    1518    1524    1525    1526    1535    1536
    1537    1538    1516    1517    1518    1526    1509    1510    1510       0
    1512    1519    1520    1527    1528    1529    1530    1539    1540    1541
    1542    1543    1544    1545    1546    1514    1521    1522    1523    1531
    1532    1533    1534    1547    1548    1549    1550    1551    1552    1553
    1554    1515    1521    1522    1523    1523    1517    1524    1525    1526
    1535    1536    1537    1538    1555    1556    1557    1558    1559    1560
    1561    1562    1518    1524    1525    1526    1526    1520    1527    1528
    1529    1530    1539    1540    1541    1542    1563    1564    1565    1527
    1528    1529    1530    1543    1544    1545    1546    1566    1567    1568
    1522    1531    1532    1533    1534    1547    1548    1549    1550    1569
    1570    1571    1531    1532    1533    1534    1551    1552    1553    1554
    1572    1573    1574       0    1525    1535    1536    1537    1538    1555
    1556    1557    1558    1575    1576    1577    1535    1536    1537    1538
    1559    1560    1561    1562    1578    1579    1580       0    1528    1539
    1540    1541    1542    1563    1564    1581    1539    1540    1541    1542
    1563    1565    1581    1530    1543    1544    1545    1546    1566    1567
    1582    1543    1544    1545    1546    1566    1568    1582    1532    1547
    1548    1549    1550    1569    1570    1583    1547    1548    1549    1550
    1570    1571    1583    1534    1551    1552    1553    1554    1572    1573
    1584    1551    1552    1553    1554    1572    1574    1584    1536    1555
    1556    1557    1558    1575    1576    1585    1555    1556    1557    1558
    1575    1577    1585    1538    1559    1560    1561    1562    1578    1579
    1586    1559    1560    1561    1562    1578    1580    1586    1540    1541
    1563    1564    1565    1581    1587    1563    1564    1542    1563    1564
    1565    1581    1587    1563    1565    1544    1566    1567    1546    1566
    1567    1568    1582    1588    1546    1566    1568    1566    1567    1568
    1582    1588    1548    1549    1569    1570    1571    1583    1589    1569
    1570    1550    1569    1570    1571    1583    1589    1570    1571    1552
    1553    1572    1573    1574    1584    1590    1572    1573    1554    1572
    1573    1574    1584    1590    1572    1574    1556    1557    1575    1576
    1577    1585    1591    1575    1576    1558    1575    1576    1577    1585
    1591    1575    1577    1560    1561    1578    1579    1580    1586    1592
    1578    1579    1562    1578    1579    1580    1586    1592    1578    1580
    1564    1565    1581    1587    1593    1594    1595    1581    1581    1567
    1568    1582    1588    1596    1597    1598    1582    1582    1570    1583
    1571    1583    1589    1599    1600    1601    1583    1573    1574    1584
    1590    1602    1603    1604    1584    1584    1576    1577    1585    1591
    1605    1606    1607    1585    1585    1579    1580    1586    1592    1608
    1609    1610    1586    1586    1587    1593    1594    1595    1588    1596
    1597    1598    1589    1599    1600    1601    1590    1602    1603    1604
    1591    1605    1606    1607    1592    1608    1609    1610    1593    1594
    1595    1596    1597    1598    1599    1600    1601    1602    1603    1604
    1605    1606    1607    1608    1609    1610    1594    1595    1595       0
    1597    1598    1598       0    1600    1601    1601       0    1603    1604
    1604       0    1606    1607    1607       0    1609    1610    1610       0
    1612    1613    1614    1615    1616    1617    1618    1619    1620    1621
    1622    1613    1614    1615    1616    1617    1618    1619    1620    1621
    1622    1623    1624    1625    1614    1615    1616    1617    1618    1615
    1619    1620    1621    1622    1623    1624    1626    1619    1620    1621
    1622    1623    1625    1626    1617    1618    1618       0    1620    1621
    1623    1624    1625    1626    1627    1628    1623    1624    1622    1623
    1624    1625    1626    1627    1628    1623    1625    1624    1625    1626
    1627    1628    1629    1630    1631    1632    1626    1626    1627    1628
    1629    1630    1631    1632    1633    1634    1635    1636    1637    1638
    1639    1640    1628    1629    1630    1631    1632    1633    1634    1635
    1636    1641    1642    1643    1629    1630    1631    1632    1637    1638
    1639    1640    1644    1645    1646    1630    1633    1634    1635    1636
    1641    1642    1647    1648    1649    1650    1633    1634    1635    1636
    1641    1643    1647    1632    1637    1638    1639    1640    1644    1645
    1651    1637    1638    1639    1640    1644    1646    1651    1634    1635
    1641    1642    1643    1647    1648    1649    1650    1652    1653    1654
    1655    1656    1657    1641    1642    1636    1641    1642    1643    1647
    1648    1652    1641    1643    1638    1639    1644    1645    1646    1651
    1658    1644    1645    1640    1644    1645    1646    1651    1658    1644
    1646    1642    1643    1647    1648    1649    1650    1652    1653    1659
    1660    1647    1648    1649    1650    1652    1653    1654    1655    1656
    1657    1661    1662    1663    1664    1665    1666    1667    1668    1647
    1645    1646    1651    1658    1669    1670    1671    1651    1651    1648
    1649    1650    1652    1653    1659    1660    1661    1662    1672    1649
    1650    1652    1653    1654    1655    1656    1657    1659    1660    1661
    1662    1673    1650    1653    1654    1655    1656    1657    1663    1664
    1665    1668    1674    1675    1676    1653    1654    1655    1656    1657
    1665    1666    1667    1668    1677    1678    1679    1658    1669    1670
    1671    1653    1659    1660    1661    1672    1673    1659    1661    1662
    1672    1673    1680    1681    1655    1657    1663    1664    1665    1674
    1675    1682    1683    1684    1656    1657    1663    1664    1665    1668
    1675    1676    1678    1679    1684    1657    1666    1667    1668    1677
    1678    1685    1686    1687    1665    1666    1667    1668    1675    1676
    1678    1679    1687    1669    1670    1671    1660    1661    1662    1672
    1673    1680    1681    1661    1672    1662    1672    1673    1680    1681
    1688    1689    1690    1691    1673    1664    1665    1674    1675    1676
    1682    1683    1684    1692    1693    1694    1695    1674    1675    1668
    1674    1675    1676    1684    1667    1677    1678    1668    1677    1678
    1679    1685    1686    1687    1696    1697    1698    1699    1677    1678
    1679    1687    1670    1671    1671       0    1673    1680    1681    1688
    1689    1690    1691    1700    1701    1702    1703    1704    1705    1706
    1707    1675    1682    1683    1684    1692    1693    1694    1695    1708
    1709    1710    1711    1712    1713    1714    1715    1676    1682    1683
    1684    1684    1678    1685    1686    1687    1696    1697    1698    1699
    1716    1717    1718    1719    1720    1721    1722    1723    1679    1685
    1686    1687    1687    1681    1688    1689    1690    1691    1700    1701
    1702    1703    1724    1725    1726    1688    1689    1690    1691    1704
    1705    1706    1707    1727    1728    1729    1683    1692    1693    1694
    1695    1708    1709    1710    1711    1730    1731    1732    1692    1693
    1694    1695    1712    1713    1714    1715    1733    1734    1735       0
    1686    1696    1697    1698    1699    1716    1717    1718    1719    1736
    1737    1738    1696    1697    1698    1699    1720    1721    1722    1723
    1739    1740    1741       0    1689    1700    1701    1702    1703    1724
    1725    1742    1700    1701    1702    1703    1724    1726    1742    1691
    1704    1705    1706    1707    1727    1728    1743    1704    1705    1706
    1707    1727    1729    1743    1693    1708    1709    1710    1711    1730
    1731    1744    1708    1709    1710    1711    1731    1732    1744    1695
    1712    1713    1714    1715    1733    1734    1745    1712    1713    1714
    1715    1733    1735    1745    1697    1716    1717    1718    1719    1736
    1737    1746    1716    1717    1718    1719    1736    1738    1746    1699
    1720    1721    1722    1723    1739    1740    1747    1720    1721    1722
    1723    1739    1741    1747    1701    1702    1724    1725    1726    1742
    1748    1724    1725    1703    1724    1725    1726    1742    1748    1724
    1726    1705    1727    1728    1707    1727    1728    1729    1743    1749
    1707    1727    1729    1727    1728    1729    1743    1749    1709    1710
    1730    1731    1732    1744    1750    1730    1731    1711    1730    1731
    1732    1744    1750    1731    1732    1713    1714    1733    1734    1735
    1745    1751    1733    1734    1715    1733    1734    1735    1745    1751
    1733    1735    1717    1718    1736    1737    1738    1746    1752    1736
    1737    1719    1736    1737    1738    1746    1752    1736    1738    1721
    1722    1739    1740    1741    1747    1753    1739    1740    1723    1739
    1740    1741    1747    1753    1739    1741    1725    1726    1742    1748
    1754    1755    1756    1742    1742    1728    1729    1743    1749    1757
    1758    1759    1743    1743    1731    1744    1732    1744    1750    1760
    1761    1762    1744    1734    1735    1745    1751    1763    1764    1765
    1745    1745    1737    1738    1746    1752    1766    1767    1768    1746
    1746    1740    1741    1747    1753    1769    1770    1771    1747    1747
    1748    1754    1755    1756    1749    1757    1758    1759    1750    1760
    1761    1762    1751    1763    1764    1765    1752    1766    1767    1768
    1753    1769    1770    1771    1754    1755    1756    1757    1758    1759
    1760    1761    1762    1763    1764    1765    1766    1767    1768    1769
    1770    1771    1755    1756    1756       0    1758    1759    1759       0
    1761    1762    1762       0    1764    1765    1765       0    1767    1768
    1768       0    1770    1771    1771       0    1773    1774    1775    1776
    1777    1778    1779    1780    1781    1782    1783    1774    1775    1776
    1777    1778    1779    1780    1781    1782    1783    1784    1785    1786
    1775    1776    1777    1778    1779    1776    1780    1781    1782    1783
    1784    1785    1787    1780    1781    1782    1783    1784    1786    1787
    1778    1779    1779       0    1781    1782    1784    1785    1786    1787
    1788    1789    1784    1785    1783    1784    1785    1786    1787    1788
    1789    1784    1786    1785    1786    1787    1788    1789    1790    1791
    1792    1793    1787    1787    1788    1789    1790    1791    1792    1793
    1794    1795    1796    1797    1798    1799    1800    1801    1789    1790
    1791    1792    1793    1794    1795    1796    1797    1802    1803    1804
    1790    1791    1792    1793    1798    1799    1800    1801    1805    1806
    1807    1791    1794    1795    1796    1797    1802    1803    1808    1809
    1810    1811    1794    1795    1796    1797    1802    1804    1808    1793
    1798    1799    1800    1801    1805    1806    1812    1798    1799    1800
    1801    1805    1807    1812    1795    1796    1802    1803    1804    1808
    1809    1810    1811    1813    1814    1815    1816    1817    1818    1802
    1803    1797    1802    1803    1804    1808    1809    1813    1802    1804
    1799    1800    1805    1806    1807    1812    1819    1805    1806    1801
    1805    1806    1807    1812    1819    1805    1807    1803    1804    1808
    1809    1810    1811    1813    1814    1820    1821    1808    1809    1810
    1811    1813    1814    1815    1816    1817    1818    1822    1823    1824
    1825    1826    1827    1828    1829    1808    1806    1807    1812    1819
    1830    1831    1832    1812    1812    1809    1810    1811    1813    1814
    1820    1821    1822    1823    1833    1810    1811    1813    1814    1815
    1816    1817    1818    1820    1821    1822    1823    1834    1811    1814
    1815    1816    1817    1818    1824    1825    1826    1829    1835    1836
    1837    1814    1815    1816    1817    1818    1826    1827    1828    1829
    1838    1839    1840    1819    1830    1831    1832    1814    1820    1821
    1822    1833    1834    1820    1822    1823    1833    1834    1841    1842
    1816    1818    1824    1825    1826    1835    1836    1843    1844    1845
    1817    1818    1824    1825    1826    1829    1836    1837    1839    1840
    1845    1818    1827    1828    1829    1838    1839    1846    1847    1848
    1826    1827    1828    1829    1836    1837    1839    1840    1848    1830
    1831    1832    1821    1822    1823    1833    1834    1841    1842    1822
    1833    1823    1833    1834    1841    1842    1849    1850    1851    1852
    1834    1825    1826    1835    1836    1837    1843    1844    1845    1853
    1854    1855    1856    1835    1836    1829    1835    1836    1837    1845
    1828    1838    1839    1829    1838    1839    1840    1846    1847    1848
    1857    1858    1859    1860    1838    1839    1840    1848    1831    1832
    1832       0    1834    1841    1842    1849    1850    1851    1852    1861
    1862    1863    1864    1865    1866    1867    1868    1836    1843    1844
    1845    1853    1854    1855    1856    1869    1870    1871    1872    1873
    1874    1875    1876    1837    1843    1844    1845    1845    1839    1846
    1847    1848    1857    1858    1859    1860    1877    1878    1879    1880
    1881    1882    1883    1884    1840    1846    1847    1848    1848    1842
    1849    1850    1851    1852    1861    1862    1863    1864    1885    1886
    1887    1849    1850    1851    1852    1865    1866    1867    1868    1888
    1889    1890    1844    1853    1854    1855    1856    1869    1870    1871
    1872    1891    1892    1893    1853    1854    1855    1856    1873    1874
    1875    1876    1894    1895    1896       0    1847    1857    1858    1859
    1860    1877    1878    1879    1880    1897    1898    1899    1857    1858
    1859    1860    1881    1882    1883    1884    1900    1901    1902       0
    1850    1861    1862    1863    1864    1885    1886    1903    1861    1862
    1863    1864    1885    1887    1903    1852    1865    1866    1867    1868
    1888    1889    1904    1865    1866    1867    1868    1888    1890    1904
    1854    1869    1870    1871    1872    1891    1892    1905    1869    1870
    1871    1872    1892    1893    1905    1856    1873    1874    1875    1876
    1894    1895    1906    1873    1874    1875    1876    1894    1896    1906
    1858    1877    1878    1879    1880    1897    1898    1907    1877    1878
    1879    1880    1897    1899    1907    1860    1881    1882    1883    1884
    1900    1901    1908    1881    1882    1883    1884    1900    1902    1908
    1862    1863    1885    1886    1887    1903    1909    1885    1886    1864
    1885    1886    1887    1903    1909    1885    1887    1866    1888    1889
    1868    1888    1889    1890    1904    1910    1868    1888    1890    1888
    1889    1890    1904    1910    1870    1871    1891    1892    1893    1905
    1911    1891    1892    1872    1891    1892    1893    1905    1911    1892
    1893    1874    1875    1894    1895    1896    1906    1912    1894    1895
    1876    1894    1895    1896    1906    1912    1894    1896    1878    1879
    1897    1898    1899    1907    1913    1897    1898    1880    1897    1898
    1899    1907    1913    1897    1899    1882    1883    1900    1901    1902
    1908    1914    1900    1901    1884    1900    1901    1902    1908    1914
    1900    1902    1886    1887    1903    1909    1915    1916    1917    1903
    1903    1889    1890    1904    1910    1918    1919    1920    1904    1904
    1892    1905    1893    1905    1911    1921    1922    1923    1905    1895
    1896    1906    1912    1924    1925    1926    1906    1906    1898    1899
    1907    1913    1927    1928    1929    1907    1907    1901    1902    1908
    1914    1930    1931    1932    1908    1908    1909    1915    1916    1917
    1910    1918    1919    1920    1911    1921    1922    1923    1912    1924
    1925    1926    1913    1927    1928    1929    1914    1930    1931    1932
    1915    1916    1917    1918    1919    1920    1921    1922    1923    1924
    1925    1926    1927    1928    1929    1930    1931    1932    1916    1917
    1917       0    1919    1920    1920       0    1922    1923    1923       0
    1925    1926    1926       0    1928    1929    1929       0    1931    1932
    1932       0    1934    1935    1936    1937    1938    1939    1940    1941
    1942    1943    1944    1935    1936    1937    1938    1939    1940    1941
    1942    1943    1944    1945    1946    1947    1936    1937    1938    1939
    1940    1937    1941    1942    1943    1944    1945    1946    1948    1941
    1942    1943    1944    1945    1947    1948    1939    1940    1940       0
    1942    1943    1945    1946    1947    1948    1949    1950    1945    1946
    1944    1945    1946    1947    1948    1949    1950    1945    1947    1946
    1947    1948    1949    1950    1951    1952    1953    1954    1948    1948
    1949    1950    1951    1952    1953    1954    1955    1956    1957    1958
    1959    1960    1961    1962    1950    1951    1952    1953    1954    1955
    1956    1957    1958    1963    1964    1965    1951    1952    1953    1954
    1959    1960    1961    1962    1966    1967    1968    1952    1955    1956
    1957    1958    1963    1964    1969    1970    1971    1972    1955    1956
    1957    1958    1963    1965    1969    1954    1959    1960    1961    1962
    1966    1967    1973    1959    1960    1961    1962    1966    1968    1973
    1956    1957    1963    1964    1965    1969    1970    1971    1972    1974
    1975    1976    1977    1978    1979    1963    1964    1958    1963    1964
    1965    1969    1970    1974    1963    1965    1960    1961    1966    1967
    1968    1973    1980    1966    1967    1962    1966    1967    1968    1973
    1980    1966    1968    1964    1965    1969    1970    1971    1972    1974
    1975    1981    1982    1969    1970    1971    1972    1974    1975    1976
    1977    1978    1979    1983    1984    1985    1986    1987    1988    1989
    1990    1969    1967    1968    1973    1980    1991    1992    1993    1973
    1973    1970    1971    1972    1974    1975    1981    1982    1983    1984
    1994    1971    1972    1974    1975    1976    1977    1978    1979    1981
    1982    1983    1984    1995    1972    1975    1976    1977    1978    1979
    1985    1986    1987    1990    1996    1997    1998    1975    1976    1977
    1978    1979    1987    1988    1989    1990    1999    2000    2001    1980
    1991    1992    1993    1975    1981    1982    1983    1994    1995    1981
    1983    1984    1994    1995    2002    2003    1977    1979    1985    1986
    1987    1996    1997    2004    2005    2006    1978    1979    1985    1986
    1987    1990    1997    1998    2000    2001    2006    1979    1988    1989
    1990    1999    2000    2007    2008    2009    1987    1988    1989    1990
    1997    1998    2000    2001    2009    1991    1992    1993    1982    1983
    1984    1994    1995    2002    2003    1983    1994    1984    1994    1995
    2002    2003    2010    2011    2012    2013    1995    1986    1987    1996
    1997    1998    2004    2005    2006    2014    2015    2016    2017    1996
    1997    1990    1996    1997    1998    2006    1989    1999    2000    1990
    1999    2000    2001    2007    2008    2009    2018    2019    2020    2021
    1999    2000    2001    2009    1992    1993    1993       0    1995    2002
    2003    2010    2011    2012    2013    2022    2023    2024    2025    2026
    2027    2028    2029    1997    2004    2005    2006    2014    2015    2016
    2017    2030    2031    2032    2033    2034    2035    2036    2037    1998
    2004    2005    2006    2006    2000    2007    2008    2009    2018    2019
    2020    2021    2038    2039    2040    2041    2042    2043    2044    2045
    2001    2007    2008    2009    2009    2003    2010    2011    2012    2013
    2022    2023    2024    2025    2046    2047    2048    2010    2011    2012
    2013    2026    2027    2028    2029    2049    2050    2051    2005    2014
    2015    2016    2017    2030    2031    2032    2033    2052    2053    2054
    2014    2015    2016    2017    2034    2035    2036    2037    2055    2056
    2057       0    2008    2018    2019    2020    2021    2038    2039    2040
    2041    2058    2059    2060    2018    2019    2020    2021    2042    2043
    2044    2045    2061    2062    2063       0    2011    2022    2023    2024
    2025    2046    2047    2064    2022    2023    2024    2025    2046    2048
    2064    2013    2026    2027    2028    2029    2049    2050    2065    2026
    2027    2028    2029    2049    2051    2065    2015    2030    2031    2032
    2033    2052    2053    2066    2030    2031    2032    2033    2053    2054
    2066    2017    2034    2035    2036    2037    2055    2056    2067    2034
    2035    2036    2037    2055    2057    2067    2019    2038    2039    2040
    2041    2058    2059    2068    2038    2039    2040    2041    2058    2060
    2068    2021    2042    2043    2044    2045    2061    2062    2069    2042
    2043    2044    2045    2061    2063    2069    2023    2024    2046    2047
    2048    2064    2070    2046    2047    2025    2046    2047    2048    2064
    2070    2046    2048    2027    2049    2050    2029    2049    2050    2051
    2065    2071    2029    2049    2051    2049    2050    2051    2065    2071
    2031    2032    2052    2053    2054    2066    2072    2052    2053    2033
    2052    2053    2054    2066    2072    2053    2054    2035    2036    2055
    2056    2057    2067    2073    2055    2056    2037    2055    2056    2057
    2067    2073    2055    2057    2039    2040    2058    2059    2060    2068
    2074    2058    2059    2041    2058    2059    2060    2068    2074    2058
    2060    2043    2044    2061    2062    2063    2069    2075    2061    2062
    2045    2061    2062    2063    2069    2075    2061    2063    2047    2048
    2064    2070    2076    2077    2078    2064    2064    2050    2051    2065
    2071    2079    2080    2081    2065    2065    2053    2066    2054    2066
    2072    2082    2083    2084    2066    2056    2057    2067    2073    2085
    2086    2087    2067    2067    2059    2060    2068    2074    2088    2089
    2090    2068    2068    2062    2063    2069    2075    2091    2092    2093
    2069    2069    2070    2076    2077    2078    2071    2079    2080    2081
    2072    2082    2083    2084    2073    2085    2086    2087    2074    2088
    2089    2090    2075    2091    2092    2093    2076    2077    2078    2079
    2080    2081    2082    2083    2084    2085    2086    2087    2088    2089
    2090    2091    2092    2093    2077    2078    2078       0    2080    2081
    2081       0    2083    2084    2084       0    2086    2087    2087       0
    2089    2090    2090       0    2092    2093    2093       0    2095    2096
    2097    2098    2099    2100    2101    2102    2103    2104    2105    2096
    2097    2098    2099    2100    2101    2102    2103    2104    2105    2106
    2107    2108    2097    2098    2099    2100    2101    2098    2102    2103
    2104    2105    2106    2107    2109    2102    2103    2104    2105    2106
    2108    2109    2100    2101    2101       0    2103    2104    2106    2107
    2108    2109    2110    2111    2106    2107    2105    2106    2107    2108
    2109    2110    2111    2106    2108    2107    2108    2109    2110    2111
    2112    2113    2114    2115    2109    2109    2110    2111    2112    2113
    2114    2115    2116    2117    2118    2119    2120    2121    2122    2123
    2111    2112    2113    2114    2115    2116    2117    2118    2119    2124
    2125    2126    2112    2113    2114    2115    2120    2121    2122    2123
    2127    2128    2129    2113    2116    2117    2118    2119    2124    2125
    2130    2131    2132    2133    2116    2117    2118    2119    2124    2126
    2130    2115    2120    2121    2122    2123    2127    2128    2134    2120
    2121    2122    2123    2127    2129    2134    2117    2118    2124    2125
    2126    2130    2131    2132    2133    2135    2136    2137    2138    2139
    2140    2124    2125    2119    2124    2125    2126    2130    2131    2135
    2124    2126    2121    2122    2127    2128    2129    2134    2141    2127
    2128    2123    2127    2128    2129    2134    2141    2127    2129    2125
    2126    2130    2131    2132    2133    2135    2136    2142    2143    2130
    2131    2132    2133    2135    2136    2137    2138    2139    2140    2144
    2145    2146    2147    2148    2149    2150    2151    2130    2128    2129
    2134    2141    2152    2153    2154    2134    2134    2131    2132    2133
    2135    2136    2142    2143    2144    2145    2155    2132    2133    2135
    2136    2137    2138    2139    2140    2142    2143    2144    2145    2156
    2133    2136    2137    2138    2139    2140    2146    2147    2148    2151
    2157    2158    2159    2136    2137    2138    2139    2140    2148    2149
    2150    2151    2160    2161    2162    2141    2152    2153    2154    2136
    2142    2143    2144    2155    2156    2142    2144    2145    2155    2156
    2163    2164    2138    2140    2146    2147    2148    2157    2158    2165
    2166    2167    2139    2140    2146    2147    2148    2151    2158    2159
    2161    2162    2167    2140    2149    2150    2151    2160    2161    2168
    2169    2170    2148    2149    2150    2151    2158    2159    2161    2162
    2170    2152    2153    2154    2143    2144    2145    2155    2156    2163
    2164    2144    2155    2145    2155    2156    2163    2164    2171    2172
    2173    2174    2156    2147    2148    2157    2158    2159    2165    2166
    2167    2175    2176    2177    2178    2157    2158    2151    2157    2158
    2159    2167    2150    2160    2161    2151    2160    2161    2162    2168
    2169    2170    2179    2180    2181    2182    2160    2161    2162    2170
    2153    2154    2154       0    2156    2163    2164    2171    2172    2173
    2174    2183    2184    2185    2186    2187    2188    2189    2190    2158
    2165    2166    2167    2175    2176    2177    2178    2191    2192    2193
    2194    2195    2196    2197    2198    2159    2165    2166    2167    2167
    2161    2168    2169    2170    2179    2180    2181    2182    2199    2200
    2201    2202    2203    2204    2205    2206    2162    2168    2169    2170
    2170    2164    2171    2172    2173    2174    2183    2184    2185    2186
    2207    2208    2209    2171    2172    2173    2174    2187    2188    2189
    2190    2210    2211    2212    2166    2175    2176    2177    2178    2191
    2192    2193    2194    2213    2214    2215    2175    2176    2177    2178
    2195    2196    2197    2198    2216    2217    2218       0    2169    2179
    2180    2181    2182    2199    2200    2201    2202    2219    2220    2221
    2179    2180    2181    2182    2203    2204    2205    2206    2222    2223
    2224       0    2172    2183    2184    2185    2186    2207    2208    2225
    2183    2184    2185    2186    2207    2209    2225    2174    2187    2188
    2189    2190    2210    2211    2226    2187    2188    2189    2190    2210
    2212    2226    2176    2191    2192    2193    2194    2213    2214    2227
    2191    2192    2193    2194    2214    2215    2227    2178    2195    2196
    2197    2198    2216    2217    2228    2195    2196    2197    2198    2216
    2218    2228    2180    2199    2200    2201    2202    2219    2220    2229
    2199    2200    2201    2202    2219    2221    2229    2182    2203    2204
    2205    2206    2222    2223    2230    2203    2204    2205    2206    2222
    2224    2230    2184    2185    2207    2208    2209    2225    2231    2207
    2208    2186    2207    2208    2209    2225    2231    2207    2209    2188
    2210    2211    2190    2210    2211    2212    2226    2232    2190    2210
    2212    2210    2211    2212    2226    2232    2192    2193    2213    2214
    2215    2227    2233    2213    2214    2194    2213    2214    2215    2227
    2233    2214    2215    2196    2197    2216    2217    2218    2228    2234
    2216    2217    2198    2216    2217    2218    2228    2234    2216    2218
    2200    2201    2219    2220    2221    2229    2235    2219    2220    2202
    2219    2220    2221    2229    2235    2219    2221    2204    2205    2222
    2223    2224    2230    2236    2222    2223    2206    2222    2223    2224
    2230    2236    2222    2224    2208    2209    2225    2231    2237    2238
    2239    2225    2225    2211    2212    2226    2232    2240    2241    2242
    2226    2226    2214    2227    2215    2227    2233    2243    2244    2245
    2227    2217    2218    2228    2234    2246    2247    2248    2228    2228
    2220    2221    2229    2235    2249    2250    2251    2229    2229    2223
    2224    2230    2236    2252    2253    2254    2230    2230    2231    2237
    2238    2239    2232    2240    2241    2242    2233    2243    2244    2245
    2234    2246    2247    2248    2235    2249    2250    2251    2236    2252
    2253    2254    2237    2238    2239    2240    2241    2242    2243    2244
    2245    2246    2247    2248    2249    2250    2251    2252    2253    2254
    2238    2239    2239       0    2241    2242    2242       0    2244    2245
    2245       0    2247    2248    2248       0    2250    2251    2251       0
    2253    2254    2254       0    2256    2257    2258    2259    2260    2261
    2262    2263    2264    2265    2266    2257    2258    2259    2260    2261
    2262    2263    2264    2265    2266    2267    2268    2269    2258    2259
    2260    2261    2262    2259    2263    2264    2265    2266    2267    2268
    2270    2263    2264    2265    2266    2267    2269    2270    2261    2262
    2262       0    2264    2265    2267    2268    2269    2270    2271    2272
    2267    2268    2266    2267    2268    2269    2270    2271    2272    2267
    2269    2268    2269    2270    2271    2272    2273    2274    2275    2276
    2270    2270    2271    2272    2273    2274    2275    2276    2277    2278
    2279    2280    2281    2282    2283    2284    2272    2273    2274    2275
    2276    2277    2278    2279    2280    2285    2286    2287    2273    2274
    2275    2276    2281    2282    2283    2284    2288    2289    2290    2274
    2277    2278    2279    2280    2285    2286    2291    2292    2293    2294
    2277    2278    2279    2280    2285    2287    2291    2276    2281    2282
    2283    2284    2288    2289    2295    2281    2282    2283    2284    2288
    2290    2295    2278    2279    2285    2286    2287    2291    2292    2293
    2294    2296    2297    2298    2299    2300    2301    2285    2286    2280
    2285    2286    2287    2291    2292    2296    2285    2287    2282    2283
    2288    2289    2290    2295    2302    2288    2289    2284    2288    2289
    2290    2295    2302    2288    2290    2286    2287    2291    2292    2293
    2294    2296    2297    2303    2304    2291    2292    2293    2294    2296
    2297    2298    2299    2300    2301    2305    2306    2307    2308    2309
    2310    2311    2312    2291    2289    2290    2295    2302    2313    2314
    2315    2295    2295    2292    2293    2294    2296    2297    2303    2304
    2305    2306    2316    2293    2294    2296    2297    2298    2299    2300
    2301    2303    2304    2305    2306    2317    2294    2297    2298    2299
    2300    2301    2307    2308    2309    2312    2318    2319    2320    2297
    2298    2299    2300    2301    2309    2310    2311    2312    2321    2322
    2323    2302    2313    2314    2315    2297    2303    2304    2305    2316
    2317    2303    2305    2306    2316    2317    2324    2325    2299    2301
    2307    2308    2309    2318    2319    2326    2327    2328    2300    2301
    2307    2308    2309    2312    2319    2320    2322    2323    2328    2301
    2310    2311    2312    2321    2322    2329    2330    2331    2309    2310
    2311    2312    2319    2320    2322    2323    2331    2313    2314    2315
    2304    2305    2306    2316    2317    2324    2325    2305    2316    2306
    2316    2317    2324    2325    2332    2333    2334    2335    2317    2308
    2309    2318    2319    2320    2326    2327    2328    2336    2337    2338
    2339    2318    2319    2312    2318    2319    2320    2328    2311    2321
    2322    2312    2321    2322    2323    2329    2330    2331    2340    2341
    2342    2343    2321    2322    2323    2331    2314    2315    2315       0
    2317    2324    2325    2332    2333    2334    2335    2344    2345    2346
    2347    2348    2349    2350    2351    2319    2326    2327    2328    2336
    2337    2338    2339    2352    2353    2354    2355    2356    2357    2358
    2359    2320    2326    2327    2328    2328    2322    2329    2330    2331
    2340    2341    2342    2343    2360    2361    2362    2363    2364    2365
    2366    2367    2323    2329    2330    2331    2331    2325    2332    2333
    2334    2335    2344    2345    2346    2347    2368    2369    2370    2332
    2333    2334    2335    2348    2349    2350    2351    2371    2372    2373
    2327    2336    2337    2338    2339    2352    2353    2354    2355    2374
    2375    2376    2336    2337    2338    2339    2356    2357    2358    2359
    2377    2378    2379       0    2330    2340    2341    2342    2343    2360
    2361    2362    2363    2380    2381    2382    2340    2341    2342    2343
    2364    2365    2366    2367    2383    2384    2385       0    2333    2344
    2345    2346    2347    2368    2369    2386    2344    2345    2346    2347
    2368    2370    2386    2335    2348    2349    2350    2351    2371    2372
    2387    2348    2349    2350    2351    2371    2373    2387    2337    2352
    2353    2354    2355    2374    2375    2388    2352    2353    2354    2355
    2375    2376    2388    2339    2356    2357    2358    2359    2377    2378
    2389    2356    2357    2358    2359    2377    2379    2389    2341    2360
    2361    2362    2363    2380    2381    2390    2360    2361    2362    2363
    2380    2382    2390    2343    2364    2365    2366    2367    2383    2384
    2391    2364    2365    2366    2367    2383    2385    2391    2345    2346
    2368    2369    2370    2386    2392    2368    2369    2347    2368    2369
    2370    2386    2392    2368    2370    2349    2371    2372    2351    2371
    2372    2373    2387    2393    2351    2371    2373    2371    2372    2373
    2387    2393    2353    2354    2374    2375    2376    2388    2394    2374
    2375    2355    2374    2375    2376    2388    2394    2375    2376    2357
    2358    2377    2378    2379    2389    2395    2377    2378    2359    2377
    2378    2379    2389    2395    2377    2379    2361    2362    2380    2381
    2382    2390    2396    2380    2381    2363    2380    2381    2382    2390
    2396    2380    2382    2365    2366    2383    2384    2385    2391    2397
    2383    2384    2367    2383    2384    2385    2391    2397    2383    2385
    2369    2370    2386    2392    2398    2399    2400    2386    2386    2372
    2373    2387    2393    2401    2402    2403    2387    2387    2375    2388
    2376    2388    2394    2404    2405    2406    2388    2378    2379    2389
    2395    2407    2408    2409    2389    2389    2381    2382    2390    2396
    2410    2411    2412    2390    2390    2384    2385    2391    2397    2413
    2414    2415    2391    2391    2392    2398    2399    2400    2393    2401
    2402    2403    2394    2404    2405    2406    2395    2407    2408    2409
    2396    2410    2411    2412    2397    2413    2414    2415    2398    2399
    2400    2401    2402    2403    2404    2405    2406    2407    2408    2409
    2410    2411    2412    2413    2414    2415    2399    2400    2400       0
    2402    2403    2403       0    2405    2406    2406       0    2408    2409
    2409       0    2411    2412    2412       0    2414    2415    2415       0
    2417    2418    2419    2420    2421    2422    2423    2424    2425    2426
    2427    2418    2419    2420    2421    2422    2423    2424    2425    2426
    2427    2428    2429    2430    2419    2420    2421    2422    2423    2420
    2424    2425    2426    2427    2428    2429    2431    2424    2425    2426
    2427    2428    2430    2431    2422    2423    2423       0    2425    2426
    2428    2429    2430    2431    2432    2433    2428    2429    2427    2428
    2429    2430    2431    2432    2433    2428    2430    2429    2430    2431
    2432    2433    2434    2435    2436    2437    2431    2431    2432    2433
    2434    2435    2436    2437    2438    2439    2440    2441    2442    2443
    2444    2445    2433    2434    2435    2436    2437    2438    2439    2440
    2441    2446    2447    2448    2434    2435    2436    2437    2442    2443
    2444    2445    2449    2450    2451    2435    2438    2439    2440    2441
    2446    2447    2452    2453    2454    2455    2438    2439    2440    2441
    2446    2448    2452    2437    2442    2443    2444    2445    2449    2450
    2456    2442    2443    2444    2445    2449    2451    2456    2439    2440
    2446    2447    2448    2452    2453    2454    2455    2457    2458    2459
    2460    2461    2462    2446    2447    2441    2446    2447    2448    2452
    2453    2457    2446    2448    2443    2444    2449    2450    2451    2456
    2463    2449    2450    2445    2449    2450    2451    2456    2463    2449
    2451    2447    2448    2452    2453    2454    2455    2457    2458    2464
    2465    2452    2453    2454    2455    2457    2458    2459    2460    2461
    2462    2466    2467    2468    2469    2470    2471    2472    2473    2452
    2450    2451    2456    2463    2474    2475    2476    2456    2456    2453
    2454    2455    2457    2458    2464    2465    2466    2467    2477    2454
    2455    2457    2458    2459    2460    2461    2462    2464    2465    2466
    2467    2478    2455    2458    2459    2460    2461    2462    2468    2469
    2470    2473    2479    2480    2481    2458    2459    2460    2461    2462
    2470    2471    2472    2473    2482    2483    2484    2463    2474    2475
    2476    2458    2464    2465    2466    2477    2478    2464    2466    2467
    2477    2478    2485    2486    2460    2462    2468    2469    2470    2479
    2480    2487    2488    2489    2461    2462    2468    2469    2470    2473
    2480    2481    2483    2484    2489    2462    2471    2472    2473    2482
    2483    2490    2491    2492    2470    2471    2472    2473    2480    2481
    2483    2484    2492    2474    2475    2476    2465    2466    2467    2477
    2478    2485    2486    2466    2477    2467    2477    2478    2485    2486
    2493    2494    2495    2496    2478    2469    2470    2479    2480    2481
    2487    2488    2489    2497    2498    2499    2500    2479    2480    2473
    2479    2480    2481    2489    2472    2482    2483    2473    2482    2483
    2484    2490    2491    2492    2501    2502    2503    2504    2482    2483
    2484    2492    2475    2476    2476       0    2478    2485    2486    2493
    2494    2495    2496    2505    2506    2507    2508    2509    2510    2511
    2512    2480    2487    2488    2489    2497    2498    2499    2500    2513
    2514    2515    2516    2517    2518    2519    2520    2481    2487    2488
    2489    2489    2483    2490    2491    2492    2501    2502    2503    2504
    2521    2522    2523    2524    2525    2526    2527    2528    2484    2490
    2491    2492    2492    2486    2493    2494    2495    2496    2505    2506
    2507    2508    2529    2530    2531    2493    2494    2495    2496    2509
    2510    2511    2512    2532    2533    2534    2488    2497    2498    2499
    2500    2513    2514    2515    2516    2535    2536    2537    2497    2498
    2499    2500    2517    2518    2519    2520    2538    2539    2540       0
    2491    2501    2502    2503    2504    2521    2522    2523    2524    2541
    2542    2543    2501    2502    2503    2504    2525    2526    2527    2528
    2544    2545    2546       0    2494    2505    2506    2507    2508    2529
    2530    2547    2505    2506    2507    2508    2529    2531    2547    2496
    2509    2510    2511    2512    2532    2533    2548    2509    2510    2511
    2512    2532    2534    2548    2498    2513    2514    2515    2516    2535
    2536    2549    2513    2514    2515    2516    2536    2537    2549    2500
    2517    2518    2519    2520    2538    2539    2550    2517    2518    2519
    2520    2538    2540    2550    2502    2521    2522    2523    2524    2541
    2542    2551    2521    2522    2523    2524    2541    2543    2551    2504
    2525    2526    2527    2528    2544    2545    2552    2525    2526    2527
    2528    2544    2546    2552    2506    2507    2529    2530    2531    2547
    2553    2529    2530    2508    2529    2530    2531    2547    2553    2529
    2531    2510    2532    2533    2512    2532    2533    2534    2548    2554
    2512    2532    2534    2532    2533    2534    2548    2554    2514    2515
    2535    2536    2537    2549    2555    2535    2536    2516    2535    2536
    2537    2549    2555    2536    2537    2518    2519    2538    2539    2540
    2550    2556    2538    2539    2520    2538    2539    2540    2550    2556
    2538    2540    2522    2523    2541    2542    2543    2551    2557    2541
    2542    2524    2541    2542    2543    2551    2557    2541    2543    2526
    2527    2544    2545    2546    2552    2558    2544    2545    2528    2544
    2545    2546    2552    2558    2544    2546    2530    2531    2547    2553
    2559    2560    2561    2547    2547    2533    2534    2548    2554    2562
    2563    2564    2548    2548    2536    2549    2537    2549    2555    2565
    2566    2567    2549    2539    2540    2550    2556    2568    2569    2570
    2550    2550    2542    2543    2551    2557    2571    2572    2573    2551
    2551    2545    2546    2552    2558    2574    2575    2576    2552    2552
    2553    2559    2560    2561    2554    2562    2563    2564    2555    2565
    2566    2567    2556    2568    2569    2570    2557    2571    2572    2573
    2558    2574    2575    2576    2559    2560    2561    2562    2563    2564
    2565    2566    2567    2568    2569    2570    2571    2572    2573    2574
    2575    2576    2560    2561    2561       0    2563    2564    2564       0
    2566    2567    2567       0    2569    2570    2570       0    2572    2573
    2573       0    2575    2576    2576       0    2578    2579    2580    2581
    2582    2583    2584    2585    2586    2587    2588    2579    2580    2581
    2582    2583    2584    2585    2586    2587    2588    2589    2590    2591
    2580    2581    2582    2583    2584    2581    2585    2586    2587    2588
    2589    2590    2592    2585    2586    2587    2588    2589    2591    2592
    2583    2584    2584       0    2586    2587    2589    2590    2591    2592
    2593    2594    2589    2590    2588    2589    2590    2591    2592    2593
    2594    2589    2591    2590    2591    2592    2593    2594    2595    2596
    2597    2598    2592    2592    2593    2594    2595    2596    2597    2598
    2599    2600    2601    2602    2603    2604    2605    2606    2594    2595
    2596    2597    2598    2599    2600    2601    2602    2607    2608    2609
    2595    2596    2597    2598    2603    2604    2605    2606    2610    2611
    2612    2596    2599    2600    2601    2602    2607    2608    2613    2614
    2615    2616    2599    2600    2601    2602    2607    2609    2613    2598
    2603    2604    2605    2606    2610    2611    2617    2603    2604    2605
    2606    2610    2612    2617    2600    2601    2607    2608    2609    2613
    2614    2615    2616    2618    2619    2620    2621    2622    2623    2607
    2608    2602    2607    2608    2609    2613    2614    2618    2607    2609
    2604    2605    2610    2611    2612    2617    2624    2610    2611    2606
    2610    2611    2612    2617    2624    2610    2612    2608    2609    2613
    2614    2615    2616    2618    2619    2625    2626    2613    2614    2615
    2616    2618    2619    2620    2621    2622    2623    2627    2628    2629
    2630    2631    2632    2633    2634    2613    2611    2612    2617    2624
    2635    2636    2637    2617    2617    2614    2615    2616    2618    2619
    2625    2626    2627    2628    2638    2615    2616    2618    2619    2620
    2621    2622    2623    2625    2626    2627    2628    2639    2616    2619
    2620    2621    2622    2623    2629    2630    2631    2634    2640    2641
    2642    2619    2620    2621    2622    2623    2631    2632    2633    2634
    2643    2644    2645    2624    2635    2636    2637    2619    2625    2626
    2627    2638    2639    2625    2627    2628    2638    2639    2646    2647
    2621    2623    2629    2630    2631    2640    2641    2648    2649    2650
    2622    2623    2629    2630    2631    2634    2641    2642    2644    2645
    2650    2623    2632    2633    2634    2643    2644    2651    2652    2653
    2631    2632    2633    2634    2641    2642    2644    2645    2653    2635
    2636    2637    2626    2627    2628    2638    2639    2646    2647    2627
    2638    2628    2638    2639    2646    2647    2654    2655    2656    2657
    2639    2630    2631    2640    2641    2642    2648    2649    2650    2658
    2659    2660    2661    2640    2641    2634    2640    2641    2642    2650
    2633    2643    2644    2634    2643    2644    2645    2651    2652    2653
    2662    2663    2664    2665    2643    2644    2645    2653    2636    2637
    2637       0    2639    2646    2647    2654    2655    2656    2657    2666
    2667    2668    2669    2670    2671    2672    2673    2641    2648    2649
    2650    2658    2659    2660    2661    2674    2675    2676    2677    2678
    2679    2680    2681    2642    2648    2649    2650    2650    2644    2651
    2652    2653    2662    2663    2664    2665    2682    2683    2684    2685
    2686    2687    2688    2689    2645    2651    2652    2653    2653    2647
    2654    2655    2656    2657    2666    2667    2668    2669    2690    2691
    2692    2654    2655    2656    2657    2670    2671    2672    2673    2693
    2694    2695    2649    2658    2659    2660    2661    2674    2675    2676
    2677    2696    2697    2698    2658    2659    2660    2661    2678    2679
    2680    2681    2699    2700    2701       0    2652    2662    2663    2664
    2665    2682    2683    2684    2685    2702    2703    2704    2662    2663
    2664    2665    2686    2687    2688    2689    2705    2706    2707       0
    2655    2666    2667    2668    2669    2690    2691    2708    2666    2667
    2668    2669    2690    2692    2708    2657    2670    2671    2672    2673
    2693    2694    2709    2670    2671    2672    2673    2693    2695    2709
    2659    2674    2675    2676    2677    2696    2697    2710    2674    2675
    2676    2677    2697    2698    2710    2661    2678    2679    2680    2681
    2699    2700    2711    2678    2679    2680    2681    2699    2701    2711
    2663    2682    2683    2684    2685    2702    2703    2712    2682    2683
    2684    2685    2702    2704    2712    2665    2686    2687    2688    2689
    2705    2706    2713    2686    2687    2688    2689    2705    2707    2713
    2667    2668    2690    2691    2692    2708    2714    2690    2691    2669
    2690    2691    2692    2708    2714    2690    2692    2671    2693    2694
    2673    2693    2694    2695    2709    2715    2673    2693    2695    2693
    2694    2695    2709    2715    2675    2676    2696    2697    2698    2710
    2716    2696    2697    2677    2696    2697    2698    2710    2716    2697
    2698    2679    2680    2699    2700    2701    2711    2717    2699    2700
    2681    2699    2700    2701    2711    2717    2699    2701    2683    2684
    2702    2703    2704    2712    2718    2702    2703    2685    2702    2703
    2704    2712    2718    2702    2704    2687    2688    2705    2706    2707
    2713    2719    2705    2706    2689    2705    2706    2707    2713    2719
    2705    2707    2691    2692    2708    2714    2720    2721    2722    2708
    2708    2694    2695    2709    2715    2723    2724    2725    2709    2709
    2697    2710    2698    2710    2716    2726    2727    2728    2710    2700
    2701    2711    2717    2729    2730    2731    2711    2711    2703    2704
    2712    2718    2732    2733    2734    2712    2712    2706    2707    2713
    2719    2735    2736    2737    2713    2713    2714    2720    2721    2722
    2715    2723    2724    2725    2716    2726    2727    2728    2717    2729
    2730    2731    2718    2732    2733    2734    2719    2735    2736    2737
    2720    2721    2722    2723    2724    2725    2726    2727    2728    2729
    2730    2731    2732    2733    2734    2735    2736    2737    2721    2722
    2722       0    2724    2725    2725       0    2727    2728    2728       0
    2730    2731    2731       0    2733    2734    2734       0    2736    2737
    2737       0    2739    2740    2741    2742    2743    2744    2745    2746
    2747    2748    2749    2740    2741    2742    2743    2744    2745    2746
    2747    2748    2749    2750    2751    2752    2741    2742    2743    2744
    2745    2742    2746    2747    2748    2749    2750    2751    2753    2746
    2747    2748    2749    2750    2752    2753    2744    2745    2745       0
    2747    2748    2750    2751    2752    2753    2754    2755    2750    2751
    2749    2750    2751    2752    2753    2754    2755    2750    2752    2751
    2752    2753    2754    2755    2756    2757    2758    2759    2753    2753
    2754    2755    2756    2757    2758    2759    2760    2761    2762    2763
    2764    2765    2766    2767    2755    2756    2757    2758    2759    2760
    2761    2762    2763    2768    2769    2770    2756    2757    2758    2759
    2764    2765    2766    2767    2771    2772    2773    2757    2760    2761
    2762    2763    2768    2769    2774    2775    2776    2777    2760    2761
    2762    2763    2768    2770    2774    2759    2764    2765    2766    2767
    2771    2772    2778    2764    2765    2766    2767    2771    2773    2778
    2761    2762    2768    2769    2770    2774    2775    2776    2777    2779
    2780    2781    2782    2783    2784    2768    2769    2763    2768    2769
    2770    2774    2775    2779    2768    2770    2765    2766    2771    2772
    2773    2778    2785    2771    2772    2767    2771    2772    2773    2778
    2785    2771    2773    2769    2770    2774    2775    2776    2777    2779
    2780    2786    2787    2774    2775    2776    2777    2779    2780    2781
    2782    2783    2784    2788    2789    2790    2791    2792    2793    2794
    2795    2774    2772    2773    2778    2785    2796    2797    2798    2778
    2778    2775    2776    2777    2779    2780    2786    2787    2788    2789
    2799    2776    2777    2779    2780    2781    2782    2783    2784    2786
    2787    2788    2789    2800    2777    2780    2781    2782    2783    2784
    2790    2791    2792    2795    2801    2802    2803    2780    2781    2782
    2783    2784    2792    2793    2794    2795    2804    2805    2806    2785
    2796    2797    2798    2780    2786    2787    2788    2799    2800    2786
    2788    2789    2799    2800    2807    2808    2782    2784    2790    2791
    2792    2801    2802    2809    2810    2811    2783    2784    2790    2791
    2792    2795    2802    2803    2805    2806    2811    2784    2793    2794
    2795    2804    2805    2812    2813    2814    2792    2793    2794    2795
    2802    2803    2805    2806    2814    2796    2797    2798    2787    2788
    2789    2799    2800    2807    2808    2788    2799    2789    2799    2800
    2807    2808    2815    2816    2817    2818    2800    2791    2792    2801
    2802    2803    2809    2810    2811    2819    2820    2821    2822    2801
    2802    2795    2801    2802    2803    2811    2794    2804    2805    2795
    2804    2805    2806    2812    2813    2814    2823    2824    2825    2826
    2804    2805    2806    2814    2797    2798    2798       0    2800    2807
    2808    2815    2816    2817    2818    2827    2828    2829    2830    2831
    2832    2833    2834    2802    2809    2810    2811    2819    2820    2821
    2822    2835    2836    2837    2838    2839    2840    2841    2842    2803
    2809    2810    2811    2811    2805    2812    2813    2814    2823    2824
    2825    2826    2843    2844    2845    2846    2847    2848    2849    2850
    2806    2812    2813    2814    2814    2808    2815    2816    2817    2818
    2827    2828    2829    2830    2851    2852    2853    2815    2816    2817
    2818    2831    2832    2833    2834    2854    2855    2856    2810    2819
    2820    2821    2822    2835    2836    2837    2838    2857    2858    2859
    2819    2820    2821    2822    2839    2840    2841    2842    2860    2861
    2862       0    2813    2823    2824    2825    2826    2843    2844    2845
    2846    2863    2864    2865    2823    2824    2825    2826    2847    2848
    2849    2850    2866    2867    2868       0    2816    2827    2828    2829
    2830    2851    2852    2869    2827    2828    2829    2830    2851    2853
    2869    2818    2831    2832    2833    2834    2854    2855    2870    2831
    2832    2833    2834    2854    2856    2870    2820    2835    2836    2837
    2838    2857    2858    2871    2835    2836    2837    2838    2858    2859
    2871    2822    2839    2840    2841    2842    2860    2861    2872    2839
    2840    2841    2842    2860    2862    2872    2824    2843    2844    2845
    2846    2863    2864    2873    2843    2844    2845    2846    2863    2865
    2873    2826    2847    2848    2849    2850    2866    2867    2874    2847
    2848    2849    2850    2866    2868    2874    2828    2829    2851    2852
    2853    2869    2875    2851    2852    2830    2851    2852    2853    2869
    2875    2851    2853    2832    2854    2855    2834    2854    2855    2856
    2870    2876    2834    2854    2856    2854    2855    2856    2870    2876
    2836    2837    2857    2858    2859    2871    2877    2857    2858    2838
    2857    2858    2859    2871    2877    2858    2859    2840    2841    2860
    2861    2862    2872    2878    2860    2861    2842    2860    2861    2862
    2872    2878    2860    2862    2844    2845    2863    2864    2865    2873
    2879    2863    2864    2846    2863    2864    2865    2873    2879    2863
    2865    2848    2849    2866    2867    2868    2874    2880    2866    2867
    2850    2866    2867    2868    2874    2880    2866    2868    2852    2853
    2869    2875    2881    2882    2883    2869    2869    2855    2856    2870
    2876    2884    2885    2886    2870    2870    2858    2871    2859    2871
    2877    2887    2888    2889    2871    2861    2862    2872    2878    2890
    2891    2892    2872    2872    2864    2865    2873    2879    2893    2894
    2895    2873    2873    2867    2868    2874    2880    2896    2897    2898
    2874    2874    2875    2881    2882    2883    2876    2884    2885    2886
    2877    2887    2888    2889    2878    2890    2891    2892    2879    2893
    2894    2895    2880    2896    2897    2898    2881    2882    2883    2884
    2885    2886    2887    2888    2889    2890    2891    2892    2893    2894
    2895    2896    2897    2898    2882    2883    2883       0    2885    2886
    2886       0    2888    2889    2889       0    2891    2892    2892       0
    2894    2895    2895       0    2897    2898    2898       0    2900    2901
    2902    2903    2904    2905    2906    2907    2908    2909    2910    2901
    2902    2903    2904    2905    2906    2907    2908    2909    2910    2911
    2912    2913    2902    2903    2904    2905    2906    2903    2907    2908
    2909    2910    2911    2912    2914    2907    2908    2909    2910    2911
    2913    2914    2905    2906    2906       0    2908    2909    2911    2912
    2913    2914    2915    2916    2911    2912    2910    2911    2912    2913
    2914    2915    2916    2911    2913    2912    2913    2914    2915    2916
    2917    2918    2919    2920    2914    2914    2915    2916    2917    2918
    2919    2920    2921    2922    2923    2924    2925    2926    2927    2928
    2916    2917    2918    2919    2920    2921    2922    2923    2924    2929
    2930    2931    2917    2918    2919    2920    2925    2926    2927    2928
    2932    2933    2934    2918    2921    2922    2923    2924    2929    2930
    2935    2936    2937    2938    2921    2922    2923    2924    2929    2931
    2935    2920    2925    2926    2927    2928    2932    2933    2939    2925
    2926    2927    2928    2932    2934    2939    2922    2923    2929    2930
    2931    2935    2936    2937    2938    2940    2941    2942    2943    2944
    2945    2929    2930    2924    2929    2930    2931    2935    2936    2940
    2929    2931    2926    2927    2932    2933    2934    2939    2946    2932
    2933    2928    2932    2933    2934    2939    2946    2932    2934    2930
    2931    2935    2936    2937    2938    2940    2941    2947    2948    2935
    2936    2937    2938    2940    2941    2942    2943    2944    2945    2949
    2950    2951    2952    2953    2954    2955    2956    2935    2933    2934
    2939    2946    2957    2958    2959    2939    2939    2936    2937    2938
    2940    2941    2947    2948    2949    2950    2960    2937    2938    2940
    2941    2942    2943    2944    2945    2947    2948    2949    2950    2961
    2938    2941    2942    2943    2944    2945    2951    2952    2953    2956
    2962    2963    2964    2941    2942    2943    2944    2945    2953    2954
    2955    2956    2965    2966    2967    2946    2957    2958    2959    2941
    2947    2948    2949    2960    2961    2947    2949    2950    2960    2961
    2968    2969    2943    2945    2951    2952    2953    2962    2963    2970
    2971    2972    2944    2945    2951    2952    2953    2956    2963    2964
    2966    2967    2972    2945    2954    2955    2956    2965    2966    2973
    2974    2975    2953    2954    2955    2956    2963    2964    2966    2967
    2975    2957    2958    2959    2948    2949    2950    2960    2961    2968
    2969    2949    2960    2950    2960    2961    2968    2969    2976    2977
    2978    2979    2961    2952    2953    2962    2963    2964    2970    2971
    2972    2980    2981    2982    2983    2962    2963    2956    2962    2963
    2964    2972    2955    2965    2966    2956    2965    2966    2967    2973
    2974    2975    2984    2985    2986    2987    2965    2966    2967    2975
    2958    2959    2959       0    2961    2968    2969    2976    2977    2978
    2979    2988    2989    2990    2991    2992    2993    2994    2995    2963
    2970    2971    2972    2980    2981    2982    2983    2996    2997    2998
    2999    3000    3001    3002    3003    2964    2970    2971    2972    2972
    2966    2973    2974    2975    2984    2985    2986    2987    3004    3005
    3006    3007    3008    3009    3010    3011    2967    2973    2974    2975
    2975    2969    2976    2977    2978    2979    2988    2989    2990    2991
    3012    3013    3014    2976    2977    2978    2979    2992    2993    2994
    2995    3015    3016    3017    2971    2980    2981    2982    2983    2996
    2997    2998    2999    3018    3019    3020    2980    2981    2982    2983
    3000    3001    3002    3003    3021    3022    3023       0    2974    2984
    2985    2986    2987    3004    3005    3006    3007    3024    3025    3026
    2984    2985    2986    2987    3008    3009    3010    3011    3027    3028
    3029       0    2977    2988    2989    2990    2991    3012    3013    3030
    2988    2989    2990    2991    3012    3014    3030    2979    2992    2993
    2994    2995    3015    3016    3031    2992    2993    2994    2995    3015
    3017    3031    2981    2996    2997    2998    2999    3018    3019    3032
    2996    2997    2998    2999    3019    3020    3032    2983    3000    3001
    3002    3003    3021    3022    3033    3000    3001    3002    3003    3021
    3023    3033    2985    3004    3005    3006    3007    3024    3025    3034
    3004    3005    3006    3007    3024    3026    3034    2987    3008    3009
    3010    3011    3027    3028    3035    3008    3009    3010    3011    3027
    3029    3035    2989    2990    3012    3013    3014    3030    3036    3012
    3013    2991    3012    3013    3014    3030    3036    3012    3014    2993
    3015    3016    2995    3015    3016    3017    3031    3037    2995    3015
    3017    3015    3016    3017    3031    3037    2997    2998    3018    3019
    3020    3032    3038    3018    3019    2999    3018    3019    3020    3032
    3038    3019    3020    3001    3002    3021    3022    3023    3033    3039
    3021    3022    3003    3021    3022    3023    3033    3039    3021    3023
    3005    3006    3024    3025    3026    3034    3040    3024    3025    3007
    3024    3025    3026    3034    3040    3024    3026    3009    3010    3027
    3028    3029    3035    3041    3027    3028    3011    3027    3028    3029
    3035    3041    3027    3029    3013    3014    3030    3036    3042    3043
    3044    3030    3030    3016    3017    3031    3037    3045    3046    3047
    3031    3031    3019    3032    3020    3032    3038    3048    3049    3050
    3032    3022    3023    3033    3039    3051    3052    3053    3033    3033
    3025    3026    3034    3040    3054    3055    3056    3034    3034    3028
    3029    3035    3041    3057    3058    3059    3035    3035    3036    3042
    3043    3044    3037    3045    3046    3047    3038    3048    3049    3050
    3039    3051    3052    3053    3040    3054    3055    3056    3041    3057
    3058    3059    3042    3043    3044    3045    3046    3047    3048    3049
    3050    3051    3052    3053    3054    3055    3056    3057    3058    3059
    3043    3044    3044       0    3046    3047    3047       0    3049    3050
    3050       0    3052    3053    3053       0    3055    3056    3056       0
    3058    3059    3059       0    3061    3062    3063    3064    3065    3066
    3067    3068    3069    3070    3071    3062    3063    3064    3065    3066
    3067    3068    3069    3070    3071    3072    3073    3074    3063    3064
    3065    3066    3067    3064    3068    3069    3070    3071    3072    3073
    3075    3068    3069    3070    3071    3072    3074    3075    3066    3067
    3067       0    3069    3070    3072    3073    3074    3075    3076    3077
    3072    3073    3071    3072    3073    3074    3075    3076    3077    3072
    3074    3073    3074    3075    3076    3077    3078    3079    3080    3081
    3075    3075    3076    3077    3078    3079    3080    3081    3082    3083
    3084    3085    3086    3087    3088    3089    3077    3078    3079    3080
    3081    3082    3083    3084    3085    3090    3091    3092    3078    3079
    3080    3081    3086    3087    3088    3089    3093    3094    3095    3079
    3082    3083    3084    3085    3090    3091    3096    3097    3098    3099
    3082    3083    3084    3085    3090    3092    3096    3081    3086    3087
    3088    3089    3093    3094    3100    3086    3087    3088    3089    3093
    3095    3100    3083    3084    3090    3091    3092    3096    3097    3098
    3099    3101    3102    3103    3104    3105    3106    3090    3091    3085
    3090    3091    3092    3096    3097    3101    3090    3092    3087    3088
    3093    3094    3095    3100    3107    3093    3094    3089    3093    3094
    3095    3100    3107    3093    3095    3091    3092    3096    3097    3098
    3099    3101    3102    3108    3109    3096    3097    3098    3099    3101
    3102    3103    3104    3105    3106    3110    3111    3112    3113    3114
    3115    3116    3117    3096    3094    3095    3100    3107    3118    3119
    3120    3100    3100    3097    3098    3099    3101    3102    3108    3109
    3110    3111    3121    3098    3099    3101    3102    3103    3104    3105
    3106    3108    3109    3110    3111    3122    3099    3102    3103    3104
    3105    3106    3112    3113    3114    3117    3123    3124    3125    3102
    3103    3104    3105    3106    3114    3115    3116    3117    3126    3127
    3128    3107    3118    3119    3120    3102    3108    3109    3110    3121
    3122    3108    3110    3111    3121    3122    3129    3130    3104    3106
    3112    3113    3114    3123    3124    3131    3132    3133    3105    3106
    3112    3113    3114    3117    3124    3125    3127    3128    3133    3106
    3115    3116    3117    3126    3127    3134    3135    3136    3114    3115
    3116    3117    3124    3125    3127    3128    3136    3118    3119    3120
    3109    3110    3111    3121    3122    3129    3130    3110    3121    3111
    3121    3122    3129    3130    3137    3138    3139    3140    3122    3113
    3114    3123    3124    3125    3131    3132    3133    3141    3142    3143
    3144    3123    3124    3117    3123    3124    3125    3133    3116    3126
    3127    3117    3126    3127    3128    3134    3135    3136    3145    3146
    3147    3148    3126    3127    3128    3136    3119    3120    3120       0
    3122    3129    3130    3137    3138    3139    3140    3149    3150    3151
    3152    3153    3154    3155    3156    3124    3131    3132    3133    3141
    3142    3143    3144    3157    3158    3159    3160    3161    3162    3163
    3164    3125    3131    3132    3133    3133    3127    3134    3135    3136
    3145    3146    3147    3148    3165    3166    3167    3168    3169    3170
    3171    3172    3128    3134    3135    3136    3136    3130    3137    3138
    3139    3140    3149    3150    3151    3152    3173    3174    3175    3137
    3138    3139    3140    3153    3154    3155    3156    3176    3177    3178
    3132    3141    3142    3143    3144    3157    3158    3159    3160    3179
    3180    3181    3141    3142    3143    3144    3161    3162    3163    3164
    3182    3183    3184       0    3135    3145    3146    3147    3148    3165
    3166    3167    3168    3185    3186    3187    3145    3146    3147    3148
    3169    3170    3171    3172    3188    3189    3190       0    3138    3149
    3150    3151    3152    3173    3174    3191    3149    3150    3151    3152
    3173    3175    3191    3140    3153    3154    3155    3156    3176    3177
    3192    3153    3154    3155    3156    3176    3178    3192    3142    3157
    3158    3159    3160    3179    3180    3193    3157    3158    3159    3160
    3180    3181    3193    3144    3161    3162    3163    3164    3182    3183
    3194    3161    3162    3163    3164    3182    3184    3194    3146    3165
    3166    3167    3168    3185    3186    3195    3165    3166    3167    3168
    3185    3187    3195    3148    3169    3170    3171    3172    3188    3189
    3196    3169    3170    3171    3172    3188    3190    3196    3150    3151
    3173    3174    3175    3191    3197    3173    3174    3152    3173    3174
    3175    3191    3197    3173    3175    3154    3176    3177    3156    3176
    3177    3178    3192    3198    3156    3176    3178    3176    3177    3178
    3192    3198    3158    3159    3179    3180    3181    3193    3199    3179
    3180    3160    3179    3180    3181    3193    3199    3180    3181    3162
    3163    3182    3183    3184    3194    3200    3182    3183    3164    3182
    3183    3184    3194    3200    3182    3184    3166    3167    3185    3186
    3187    3195    3201    3185    3186    3168    3185    3186    3187    3195
    3201    3185    3187    3170    3171    3188    3189    3190    3196    3202
    3188    3189    3172    3188    3189    3190    3196    3202    3188    3190
    3174    3175    3191    3197    3203    3204    3205    3191    3191    3177
    3178    3192    3198    3206    3207    3208    3192    3192    3180    3193
    3181    3193    3199    3209    3210    3211    3193    3183    3184    3194
    3200    3212    3213    3214    3194    3194    3186    3187    3195    3201
    3215    3216    3217    3195    3195    3189    3190    3196    3202    3218
    3219    3220    3196    3196    3197    3203    3204    3205    3198    3206
    3207    3208    3199    3209    3210    3211    3200    3212    3213    3214
    3201    3215    3216    3217    3202    3218    3219    3220    3203    3204
    3205    3206    3207    3208    3209    3210    3211    3212    3213    3214
    3215    3216    3217    3218    3219    3220    3204    3205    3205       0
    3207    3208    3208       0    3210    3211    3211       0    3213    3214
    3214       0    3216    3217    3217       0    3219    3220    3220       0
    3222    3223    3224    3225    3226    3227    3228    3229    3230    3231
    3232    3223    3224    3225    3226    3227    3228    3229    3230    3231
    3232    3233    3234    3235    3224    3225    3226    3227    3228    3225
    3229    3230    3231    3232    3233    3234    3236    3229    3230    3231
    3232    3233    3235    3236    3227    3228    3228       0    3230    3231
    3233    3234    3235    3236    3237    3238    3233    3234    3232    3233
    3234    3235    3236    3237    3238    3233    3235    3234    3235    3236
    3237    3238    3239    3240    3241    3242    3236    3236    3237    3238
    3239    3240    3241    3242    3243    3244    3245    3246    3247    3248
    3249    3250    3238    3239    3240    3241    3242    3243    3244    3245
    3246    3251    3252    3253    3239    3240    3241    3242    3247    3248
    3249    3250    3254    3255    3256    3240    3243    3244    3245    3246
    3251    3252    3257    3258    3259    3260    3243    3244    3245    3246
    3251    3253    3257    3242    3247    3248    3249    3250    3254    3255
    3261    3247    3248    3249    3250    3254    3256    3261    3244    3245
    3251    3252    3253    3257    3258    3259    3260    3262    3263    3264
    3265    3266    3267    3251    3252    3246    3251    3252    3253    3257
    3258    3262    3251    3253    3248    3249    3254    3255    3256    3261
    3268    3254    3255    3250    3254    3255    3256    3261    3268    3254
    3256    3252    3253    3257    3258    3259    3260    3262    3263    3269
    3270    3257    3258    3259    3260    3262    3263    3264    3265    3266
    3267    3271    3272    3273    3274    3275    3276    3277    3278    3257
    3255    3256    3261    3268    3279    3280    3281    3261    3261    3258
    3259    3260    3262    3263    3269    3270    3271    3272    3282    3259
    3260    3262    3263    3264    3265    3266    3267    3269    3270    3271
    3272    3283    3260    3263    3264    3265    3266    3267    3273    3274
    3275    3278    3284    3285    3286    3263    3264    3265    3266    3267
    3275    3276    3277    3278    3287    3288    3289    3268    3279    3280
    3281    3263    3269    3270    3271    3282    3283    3269    3271    3272
    3282    3283    3290    3291    3265    3267    3273    3274    3275    3284
    3285    3292    3293    3294    3266    3267    3273    3274    3275    3278
    3285    3286    3288    3289    3294    3267    3276    3277    3278    3287
    3288    3295    3296    3297    3275    3276    3277    3278    3285    3286
    3288    3289    3297    3279    3280    3281    3270    3271    3272    3282
    3283    3290    3291    3271    3282    3272    3282    3283    3290    3291
    3298    3299    3300    3301    3283    3274    3275    3284    3285    3286
    3292    3293    3294    3302    3303    3304    3305    3284    3285    3278
    3284    3285    3286    3294    3277    3287    3288    3278    3287    3288
    3289    3295    3296    3297    3306    3307    3308    3309    3287    3288
    3289    3297    3280    3281    3281       0    3283    3290    3291    3298
    3299    3300    3301    3310    3311    3312    3313    3314    3315    3316
    3317    3285    3292    3293    3294    3302    3303    3304    3305    3318
    3319    3320    3321    3322    3323    3324    3325    3286    3292    3293
    3294    3294    3288    3295    3296    3297    3306    3307    3308    3309
    3326    3327    3328    3329    3330    3331    3332    3333    3289    3295
    3296    3297    3297    3291    3298    3299    3300    3301    3310    3311
    3312    3313    3334    3335    3336    3298    3299    3300    3301    3314
    3315    3316    3317    3337    3338    3339    3293    3302    3303    3304
    3305    3318    3319    3320    3321    3340    3341    3342    3302    3303
    3304    3305    3322    3323    3324    3325    3343    3344    3345       0
    3296    3306    3307    3308    3309    3326    3327    3328    3329    3346
    3347    3348    3306    3307    3308    3309    3330    3331    3332    3333
    3349    3350    3351       0    3299    3310    3311    3312    3313    3334
    3335    3352    3310    3311    3312    3313    3334    3336    3352    3301
    3314    3315    3316    3317    3337    3338    3353    3314    3315    3316
    3317    3337    3339    3353    3303    3318    3319    3320    3321    3340
    3341    3354    3318    3319    3320    3321    3341    3342    3354    3305
    3322    3323    3324    3325    3343    3344    3355    3322    3323    3324
    3325    3343    3345    3355    3307    3326    3327    3328    3329    3346
    3347    3356    3326    3327    3328    3329    3346    3348    3356    3309
    3330    3331    3332    3333    3349    3350    3357    3330    3331    3332
    3333    3349    3351    3357    3311    3312    3334    3335    3336    3352
    3358    3334    3335    3313    3334    3335    3336    3352    3358    3334
    3336    3315    3337    3338    3317    3337    3338    3339    3353    3359
    3317    3337    3339    3337    3338    3339    3353    3359    3319    3320
    3340    3341    3342    3354    3360    3340    3341    3321    3340    3341
    3342    3354    3360    3341    3342    3323    3324    3343    3344    3345
    3355    3361    3343    3344    3325    3343    3344    3345    3355    3361
    3343    3345    3327    3328    3346    3347    3348    3356    3362    3346
    3347    3329    3346    3347    3348    3356    3362    3346    3348    3331
    3332    3349    3350    3351    3357    3363    3349    3350    3333    3349
    3350    3351    3357    3363    3349    3351    3335    3336    3352    3358
    3364    3365    3366    3352    3352    3338    3339    3353    3359    3367
    3368    3369    3353    3353    3341    3354    3342    3354    3360    3370
    3371    3372    3354    3344    3345    3355    3361    3373    3374    3375
    3355    3355    3347    3348    3356    3362    3376    3377    3378    3356
    3356    3350    3351    3357    3363    3379    3380    3381    3357    3357
    3358    3364    3365    3366    3359    3367    3368    3369    3360    3370
    3371    3372    3361    3373    3374    3375    3362    3376    3377    3378
    3363    3379    3380    3381    3364    3365    3366    3367    3368    3369
    3370    3371    3372    3373    3374    3375    3376    3377    3378    3379
    3380    3381    3365    3366    3366       0    3368    3369    3369       0
    3371    3372    3372       0    3374    3375    3375       0    3377    3378
    3378       0    3380    3381    3381       0    3383    3384    3385    3386
    3387    3388    3389    3390    3391    3392    3393    3384    3385    3386
    3387    3388    3389    3390    3391    3392    3393    3394    3395    3396
    3385    3386    3387    3388    3389    3386    3390    3391    3392    3393
    3394    3395    3397    3390    3391    3392    3393    3394    3396    3397
    3388    3389    3389       0    3391    3392    3394    3395    3396    3397
    3398    3399    3394    3395    3393    3394    3395    3396    3397    3398
    3399    3394    3396    3395    3396    3397    3398    3399    3400    3401
    3402    3403    3397    3397    3398    3399    3400    3401    3402    3403
    3404    3405    3406    3407    3408    3409    3410    3411    3399    3400
    3401    3402    3403    3404    3405    3406    3407    3412    3413    3414
    3400    3401    3402    3403    3408    3409    3410    3411    3415    3416
    3417    3401    3404    3405    3406    3407    3412    3413    3418    3419
    3420    3421    3404    3405    3406    3407    3412    3414    3418    3403
    3408    3409    3410    3411    3415    3416    3422    3408    3409    3410
    3411    3415    3417    3422    3405    3406    3412    3413    3414    3418
    3419    3420    3421    3423    3424    3425    3426    3427    3428    3412
    3413    3407    3412    3413    3414    3418    3419    3423    3412    3414
    3409    3410    3415    3416    3417    3422    3429    3415    3416    3411
    3415    3416    3417    3422    3429    3415    3417    3413    3414    3418
    3419    3420    3421    3423    3424    3430    3431    3418    3419    3420
    3421    3423    3424    3425    3426    3427    3428    3432    3433    3434
    3435    3436    3437    3438    3439    3418    3416    3417    3422    3429
    3440    3441    3442    3422    3422    3419    3420    3421    3423    3424
    3430    3431    3432    3433    3443    3420    3421    3423    3424    3425
    3426    3427    3428    3430    3431    3432    3433    3444    3421    3424
    3425    3426    3427    3428    3434    3435    3436    3439    3445    3446
    3447    3424    3425    3426    3427    3428    3436    3437    3438    3439
    3448    3449    3450    3429    3440    3441    3442    3424    3430    3431
    3432    3443    3444    3430    3432    3433    3443    3444    3451    3452
    3426    3428    3434    3435    3436    3445    3446    3453    3454    3455
    3427    3428    3434    3435    3436    3439    3446    3447    3449    3450
    3455    3428    3437    3438    3439    3448    3449    3456    3457    3458
    3436    3437    3438    3439    3446    3447    3449    3450    3458    3440
    3441    3442    3431    3432    3433    3443    3444    3451    3452    3432
    3443    3433    3443    3444    3451    3452    3459    3460    3461    3462
    3444    3435    3436    3445    3446    3447    3453    3454    3455    3463
    3464    3465    3466    3445    3446    3439    3445    3446    3447    3455
    3438    3448    3449    3439    3448    3449    3450    3456    3457    3458
    3467    3468    3469    3470    3448    3449    3450    3458    3441    3442
    3442       0    3444    3451    3452    3459    3460    3461    3462    3471
    3472    3473    3474    3475    3476    3477    3478    3446    3453    3454
    3455    3463    3464    3465    3466    3479    3480    3481    3482    3483
    3484    3485    3486    3447    3453    3454    3455    3455    3449    3456
    3457    3458    3467    3468    3469    3470    3487    3488    3489    3490
    3491    3492    3493    3494    3450    3456    3457    3458    3458    3452
    3459    3460    3461    3462    3471    3472    3473    3474    3495    3496
    3497    3459    3460    3461    3462    3475    3476    3477    3478    3498
    3499    3500    3454    3463    3464    3465    3466    3479    3480    3481
    3482    3501    3502    3503    3463    3464    3465    3466    3483    3484
    3485    3486    3504    3505    3506       0    3457    3467    3468    3469
    3470    3487    3488    3489    3490    3507    3508    3509    3467    3468
    3469    3470    3491    3492    3493    3494    3510    3511    3512       0
    3460    3471    3472    3473    3474    3495    3496    3513    3471    3472
    3473    3474    3495    3497    3513    3462    3475    3476    3477    3478
    3498    3499    3514    3475    3476    3477    3478    3498    3500    3514
    3464    3479    3480    3481    3482    3501    3502    3515    3479    3480
    3481    3482    3502    3503    3515    3466    3483    3484    3485    3486
    3504    3505    3516    3483    3484    3485    3486    3504    3506    3516
    3468    3487    3488    3489    3490    3507    3508    3517    3487    3488
    3489    3490    3507    3509    3517    3470    3491    3492    3493    3494
    3510    3511    3518    3491    3492    3493    3494    3510    3512    3518
    3472    3473    3495    3496    3497    3513    3519    3495    3496    3474
    3495    3496    3497    3513    3519    3495    3497    3476    3498    3499
    3478    3498    3499    3500    3514    3520    3478    3498    3500    3498
    3499    3500    3514    3520    3480    3481    3501    3502    3503    3515
    3521    3501    3502    3482    3501    3502    3503    3515    3521    3502
    3503    3484    3485    3504    3505    3506    3516    3522    3504    3505
    3486    3504    3505    3506    3516    3522    3504    3506    3488    3489
    3507    3508    3509    3517    3523    3507    3508    3490    3507    3508
    3509    3517    3523    3507    3509    3492    3493    3510    3511    3512
    3518    3524    3510    3511    3494    3510    3511    3512    3518    3524
    3510    3512    3496    3497    3513    3519    3525    3526    3527    3513
    3513    3499    3500    3514    3520    3528    3529    3530    3514    3514
    3502    3515    3503    3515    3521    3531    3532    3533    3515    3505
    3506    3516    3522    3534    3535    3536    3516    3516    3508    3509
    3517    3523    3537    3538    3539    3517    3517    3511    3512    3518
    3524    3540    3541    3542    3518    3518    3519    3525    3526    3527
    3520    3528    3529    3530    3521    3531    3532    3533    3522    3534
    3535    3536    3523    3537    3538    3539    3524    3540    3541    3542
    3525    3526    3527    3528    3529    3530    3531    3532    3533    3534
    3535    3536    3537    3538    3539    3540    3541    3542    3526    3527
    3527       0    3529    3530    3530       0    3532    3533    3533       0
    3535    3536    3536       0    3538    3539    3539       0    3541    3542
    3542       0    3544    3545    3546    3547    3548    3549    3550    3551
    3552    3553    3554    3545    3546    3547    3548    3549    3550    3551
    3552    3553    3554    3555    3556    3557    3546    3547    3548    3549
    3550    3547    3551    3552    3553    3554    3555    3556    3558    3551
    3552    3553    3554    3555    3557    3558    3549    3550    3550       0
    3552    3553    3555    3556    3557    3558    3559    3560    3555    3556
    3554    3555    3556    3557    3558    3559    3560    3555    3557    3556
    3557    3558    3559    3560    3561    3562    3563    3564    3558    3558
    3559    3560    3561    3562    3563    3564    3565    3566    3567    3568
    3569    3570    3571    3572    3560    3561    3562    3563    3564    3565
    3566    3567    3568    3573    3574    3575    3561    3562    3563    3564
    3569    3570    3571    3572    3576    3577    3578    3562    3565    3566
    3567    3568    3573    3574    3579    3580    3581    3582    3565    3566
    3567    3568    3573    3575    3579    3564    3569    3570    3571    3572
    3576    3577    3583    3569    3570    3571    3572    3576    3578    3583
    3566    3567    3573    3574    3575    3579    3580    3581    3582    3584
    3585    3586    3587    3588    3589    3573    3574    3568    3573    3574
    3575    3579    3580    3584    3573    3575    3570    3571    3576    3577
    3578    3583    3590    3576    3577    3572    3576    3577    3578    3583
    3590    3576    3578    3574    3575    3579    3580    3581    3582    3584
    3585    3591    3592    3579    3580    3581    3582    3584    3585    3586
    3587    3588    3589    3593    3594    3595    3596    3597    3598    3599
    3600    3579    3577    3578    3583    3590    3601    3602    3603    3583
    3583    3580    3581    3582    3584    3585    3591    3592    3593    3594
    3604    3581    3582    3584    3585    3586    3587    3588    3589    3591
    3592    3593    3594    3605    3582    3585    3586    3587    3588    3589
    3595    3596    3597    3600    3606    3607    3608    3585    3586    3587
    3588    3589    3597    3598    3599    3600    3609    3610    3611    3590
    3601    3602    3603    3585    3591    3592    3593    3604    3605    3591
    3593    3594    3604    3605    3612    3613    3587    3589    3595    3596
    3597    3606    3607    3614    3615    3616    3588    3589    3595    3596
    3597    3600    3607    3608    3610    3611    3616    3589    3598    3599
    3600    3609    3610    3617    3618    3619    3597    3598    3599    3600
    3607    3608    3610    3611    3619    3601    3602    3603    3592    3593
    3594    3604    3605    3612    3613    3593    3604    3594    3604    3605
    3612    3613    3620    3621    3622    3623    3605    3596    3597    3606
    3607    3608    3614    3615    3616    3624    3625    3626    3627    3606
    3607    3600    3606    3607    3608    3616    3599    3609    3610    3600
    3609    3610    3611    3617    3618    3619    3628    3629    3630    3631
    3609    3610    3611    3619    3602    3603    3603       0    3605    3612
    3613    3620    3621    3622    3623    3632    3633    3634    3635    3636
    3637    3638    3639    3607    3614    3615    3616    3624    3625    3626
    3627    3640    3641    3642    3643    3644    3645    3646    3647    3608
    3614    3615    3616    3616    3610    3617    3618    3619    3628    3629
    3630    3631    3648    3649    3650    3651    3652    3653    3654    3655
    3611    3617    3618    3619    3619    3613    3620    3621    3622    3623
    3632    3633    3634    3635    3656    3657    3658    3620    3621    3622
    3623    3636    3637    3638    3639    3659    3660    3661    3615    3624
    3625    3626    3627    3640    3641    3642    3643    3662    3663    3664
    3624    3625    3626    3627    3644    3645    3646    3647    3665    3666
    3667       0    3618    3628    3629    3630    3631    3648    3649    3650
    3651    3668    3669    3670    3628    3629    3630    3631    3652    3653
    3654    3655    3671    3672    3673       0    3621    3632    3633    3634
    3635    3656    3657    3674    3632    3633    3634    3635    3656    3658
    3674    3623    3636    3637    3638    3639    3659    3660    3675    3636
    3637    3638    3639    3659    3661    3675    3625    3640    3641    3642
    3643    3662    3663    3676    3640    3641    3642    3643    3663    3664
    3676    3627    3644    3645    3646    3647    3665    3666    3677    3644
    3645    3646    3647    3665    3667    3677    3629    3648    3649    3650
    3651    3668    3669    3678    3648    3649    3650    3651    3668    3670
    3678    3631    3652    3653    3654    3655    3671    3672    3679    3652
    3653    3654    3655    3671    3673    3679    3633    3634    3656    3657
    3658    3674    3680    3656    3657    3635    3656    3657    3658    3674
    3680    3656    3658    3637    3659    3660    3639    3659    3660    3661
    3675    3681    3639    3659    3661    3659    3660    3661    3675    3681
    3641    3642    3662    3663    3664    3676    3682    3662    3663    3643
    3662    3663    3664    3676    3682    3663    3664    3645    3646    3665
    3666    3667    3677    3683    3665    3666    3647    3665    3666    3667
    3677    3683    3665    3667    3649    3650    3668    3669    3670    3678
    3684    3668    3669    3651    3668    3669    3670    3678    3684    3668
    3670    3653    3654    3671    3672    3673    3679    3685    3671    3672
    3655    3671    3672    3673    3679    3685    3671    3673    3657    3658
    3674    3680    3686    3687    3688    3674    3674    3660    3661    3675
    3681    3689    3690    3691    3675    3675    3663    3676    3664    3676
    3682    3692    3693    3694    3676    3666    3667    3677    3683    3695
    3696    3697    3677    3677    3669    3670    3678    3684    3698    3699
    3700    3678    3678    3672    3673    3679    3685    3701    3702    3703
    3679    3679    3680    3686    3687    3688    3681    3689    3690    3691
    3682    3692    3693    3694    3683    3695    3696    3697    3684    3698
    3699    3700    3685    3701    3702    3703    3686    3687    3688    3689
    3690    3691    3692    3693    3694    3695    3696    3697    3698    3699
    3700    3701    3702    3703    3687    3688    3688       0    3690    3691
    3691       0    3693    3694    3694       0    3696    3697    3697       0
    3699    3700    3700       0    3702    3703    3703       0    3705    3706
    3707    3708    3709    3710    3711    3712    3713    3714    3715    3706
    3707    3708    3709    3710    3711    3712    3713    3714    3715    3716
    3717    3718    3707    3708    3709    3710    3711    3708    3712    3713
    3714    3715    3716    3717    3719    3712    3713    3714    3715    3716
    3718    3719    3710    3711    3711       0    3713    3714    3716    3717
    3718    3719    3720    3721    3716    3717    3715    3716    3717    3718
    3719    3720    3721    3716    3718    3717    3718    3719    3720    3721
    3722    3723    3724    3725    3719    3719    3720    3721    3722    3723
    3724    3725    3726    3727    3728    3729    3730    3731    3732    3733
    3721    3722    3723    3724    3725    3726    3727    3728    3729    3734
    3735    3736    3722    3723    3724    3725    3730    3731    3732    3733
    3737    3738    3739    3723    3726    3727    3728    3729    3734    3735
    3740    3741    3742    3743    3726    3727    3728    3729    3734    3736
    3740    3725    3730    3731    3732    3733    3737    3738    3744    3730
    3731    3732    3733    3737    3739    3744    3727    3728    3734    3735
    3736    3740    3741    3742    3743    3745    3746    3747    3748    3749
    3750    3734    3735    3729    3734    3735    3736    3740    3741    3745
    3734    3736    3731    3732    3737    3738    3739    3744    3751    3737
    3738    3733    3737    3738    3739    3744    3751    3737    3739    3735
    3736    3740    3741    3742    3743    3745    3746    3752    3753    3740
    3741    3742    3743    3745    3746    3747    3748    3749    3750    3754
    3755    3756    3757    3758    3759    3760    3761    3740    3738    3739
    3744    3751    3762    3763    3764    3744    3744    3741    3742    3743
    3745    3746    3752    3753    3754    3755    3765    3742    3743    3745
    3746    3747    3748    3749    3750    3752    3753    3754    3755    3766
    3743    3746    3747    3748    3749    3750    3756    3757    3758    3761
    3767    3768    3769    3746    3747    3748    3749    3750    3758    3759
    3760    3761    3770    3771    3772    3751    3762    3763    3764    3746
    3752    3753    3754    3765    3766    3752    3754    3755    3765    3766
    3773    3774    3748    3750    3756    3757    3758    3767    3768    3775
    3776    3777    3749    3750    3756    3757    3758    3761    3768    3769
    3771    3772    3777    3750    3759    3760    3761    3770    3771    3778
    3779    3780    3758    3759    3760    3761    3768    3769    3771    3772
    3780    3762    3763    3764    3753    3754    3755    3765    3766    3773
    3774    3754    3765    3755    3765    3766    3773    3774    3781    3782
    3783    3784    3766    3757    3758    3767    3768    3769    3775    3776
    3777    3785    3786    3787    3788    3767    3768    3761    3767    3768
    3769    3777    3760    3770    3771    3761    3770    3771    3772    3778
    3779    3780    3789    3790    3791    3792    3770    3771    3772    3780
    3763    3764    3764       0    3766    3773    3774    3781    3782    3783
    3784    3793    3794    3795    3796    3797    3798    3799    3800    3768
    3775    3776    3777    3785    3786    3787    3788    3801    3802    3803
    3804    3805    3806    3807    3808    3769    3775    3776    3777    3777
    3771    3778    3779    3780    3789    3790    3791    3792    3809    3810
    3811    3812    3813    3814    3815    3816    3772    3778    3779    3780
    3780    3774    3781    3782    3783    3784    3793    3794    3795    3796
    3817    3818    3819    3781    3782    3783    3784    3797    3798    3799
    3800    3820    3821    3822    3776    3785    3786    3787    3788    3801
    3802    3803    3804    3823    3824    3825    3785    3786    3787    3788
    3805    3806    3807    3808    3826    3827    3828       0    3779    3789
    3790    3791    3792    3809    3810    3811    3812    3829    3830    3831
    3789    3790    3791    3792    3813    3814    3815    3816    3832    3833
    3834       0    3782    3793    3794    3795    3796    3817    3818    3835
    3793    3794    3795    3796    3817    3819    3835    3784    3797    3798
    3799    3800    3820    3821    3836    3797    3798    3799    3800    3820
    3822    3836    3786    3801    3802    3803    3804    3823    3824    3837
    3801    3802    3803    3804    3824    3825    3837    3788    3805    3806
    3807    3808    3826    3827    3838    3805    3806    3807    3808    3826
    3828    3838    3790    3809    3810    3811    3812    3829    3830    3839
    3809    3810    3811    3812    3829    3831    3839    3792    3813    3814
    3815    3816    3832    3833    3840    3813    3814    3815    3816    3832
    3834    3840    3794    3795    3817    3818    3819    3835    3841    3817
    3818    3796    3817    3818    3819    3835    3841    3817    3819    3798
    3820    3821    3800    3820    3821    3822    3836    3842    3800    3820
    3822    3820    3821    3822    3836    3842    3802    3803    3823    3824
    3825    3837    3843    3823    3824    3804    3823    3824    3825    3837
    3843    3824    3825    3806    3807    3826    3827    3828    3838    3844
    3826    3827    3808    3826    3827    3828    3838    3844    3826    3828
    3810    3811    3829    3830    3831    3839    3845    3829    3830    3812
    3829    3830    3831    3839    3845    3829    3831    3814    3815    3832
    3833    3834    3840    3846    3832    3833    3816    3832    3833    3834
    3840    3846    3832    3834    3818    3819    3835    3841    3847    3848
    3849    3835    3835    3821    3822    3836    3842    3850    3851    3852
    3836    3836    3824    3837    3825    3837    3843    3853    3854    3855
    3837    3827    3828    3838    3844    3856    3857    3858    3838    3838
    3830    3831    3839    3845    3859    3860    3861    3839    3839    3833
    3834    3840    3846    3862    3863    3864    3840    3840    3841    3847
    3848    3849    3842    3850    3851    3852    3843    3853    3854    3855
    3844    3856    3857    3858    3845    3859    3860    3861    3846    3862
    3863    3864    3847    3848    3849    3850    3851    3852    3853    3854
    3855    3856    3857    3858    3859    3860    3861    3862    3863    3864
    3848    3849    3849       0    3851    3852    3852       0    3854    3855
    3855       0    3857    3858    3858       0    3860    3861    3861       0
    3863    3864    3864       0    3866    3867    3868    3869    3870    3871
    3872    3873    3874    3875    3876    3867    3868    3869    3870    3871
    3872    3873    3874    3875    3876    3877    3878    3879    3868    3869
    3870    3871    3872    3869    3873    3874    3875    3876    3877    3878
    3880    3873    3874    3875    3876    3877    3879    3880    3871    3872
    3872       0    3874    3875    3877    3878    3879    3880    3881    3882
    3877    3878    3876    3877    3878    3879    3880    3881    3882    3877
    3879    3878    3879    3880    3881    3882    3883    3884    3885    3886
    3880    3880    3881    3882    3883    3884    3885    3886    3887    3888
    3889    3890    3891    3892    3893    3894    3882    3883    3884    3885
    3886    3887    3888    3889    3890    3895    3896    3897    3883    3884
    3885    3886    3891    3892    3893    3894    3898    3899    3900    3884
    3887    3888    3889    3890    3895    3896    3901    3902    3903    3904
    3887    3888    3889    3890    3895    3897    3901    3886    3891    3892
    3893    3894    3898    3899    3905    3891    3892    3893    3894    3898
    3900    3905    3888    3889    3895    3896    3897    3901    3902    3903
    3904    3906    3907    3908    3909    3910    3911    3895    3896    3890
    3895    3896    3897    3901    3902    3906    3895    3897    3892    3893
    3898    3899    3900    3905    3912    3898    3899    3894    3898    3899
    3900    3905    3912    3898    3900    3896    3897    3901    3902    3903
    3904    3906    3907    3913    3914    3901    3902    3903    3904    3906
    3907    3908    3909    3910    3911    3915    3916    3917    3918    3919
    3920    3921    3922    3901    3899    3900    3905    3912    3923    3924
    3925    3905    3905    3902    3903    3904    3906    3907    3913    3914
    3915    3916    3926    3903    3904    3906    3907    3908    3909    3910
    3911    3913    3914    3915    3916    3927    3904    3907    3908    3909
    3910    3911    3917    3918    3919    3922    3928    3929    3930    3907
    3908    3909    3910    3911    3919    3920    3921    3922    3931    3932
    3933    3912    3923    3924    3925    3907    3913    3914    3915    3926
    3927    3913    3915    3916    3926    3927    3934    3935    3909    3911
    3917    3918    3919    3928    3929    3936    3937    3938    3910    3911
    3917    3918    3919    3922    3929    3930    3932    3933    3938    3911
    3920    3921    3922    3931    3932    3939    3940    3941    3919    3920
    3921    3922    3929    3930    3932    3933    3941    3923    3924    3925
    3914    3915    3916    3926    3927    3934    3935    3915    3926    3916
    3926    3927    3934    3935    3942    3943    3944    3945    3927    3918
    3919    3928    3929    3930    3936    3937    3938    3946    3947    3948
    3949    3928    3929    3922    3928    3929    3930    3938    3921    3931
    3932    3922    3931    3932    3933    3939    3940    3941    3950    3951
    3952    3953    3931    3932    3933    3941    3924    3925    3925       0
    3927    3934    3935    3942    3943    3944    3945    3954    3955    3956
    3957    3958    3959    3960    3961    3929    3936    3937    3938    3946
    3947    3948    3949    3962    3963    3964    3965    3966    3967    3968
    3969    3930    3936    3937    3938    3938    3932    3939    3940    3941
    3950    3951    3952    3953    3970    3971    3972    3973    3974    3975
    3976    3977    3933    3939    3940    3941    3941    3935    3942    3943
    3944    3945    3954    3955    3956    3957    3978    3979    3980    3942
    3943    3944    3945    3958    3959    3960    3961    3981    3982    3983
    3937    3946    3947    3948    3949    3962    3963    3964    3965    3984
    3985    3986    3946    3947    3948    3949    3966    3967    3968    3969
    3987    3988    3989       0    3940    3950    3951    3952    3953    3970
    3971    3972    3973    3990    3991    3992    3950    3951    3952    3953
    3974    3975    3976    3977    3993    3994    3995       0    3943    3954
    3955    3956    3957    3978    3979    3996    3954    3955    3956    3957
    3978    3980    3996    3945    3958    3959    3960    3961    3981    3982
    3997    3958    3959    3960    3961    3981    3983    3997    3947    3962
    3963    3964    3965    3984    3985    3998    3962    3963    3964    3965
    3985    3986    3998    3949    3966    3967    3968    3969    3987    3988
    3999    3966    3967    3968    3969    3987    3989    3999    3951    3970
    3971    3972    3973    3990    3991    4000    3970    3971    3972    3973
    3990    3992    4000    3953    3974    3975    3976    3977    3993    3994
    4001    3974    3975    3976    3977    3993    3995    4001    3955    3956
    3978    3979    3980    3996    4002    3978    3979    3957    3978    3979
    3980    3996    4002    3978    3980    3959    3981    3982    3961    3981
    3982    3983    3997    4003    3961    3981    3983    3981    3982    3983
    3997    4003    3963    3964    3984    3985    3986    3998    4004    3984
    3985    3965    3984    3985    3986    3998    4004    3985    3986    3967
    3968    3987    3988    3989    3999    4005    3987    3988    3969    3987
    3988    3989    3999    4005    3987    3989    3971    3972    3990    3991
    3992    4000    4006    3990    3991    3973    3990    3991    3992    4000
    4006    3990    3992    3975    3976    3993    3994    3995    4001    4007
    3993    3994    3977    3993    3994    3995    4001    4007    3993    3995
    3979    3980    3996    4002    4008    4009    4010    3996    3996    3982
    3983    3997    4003    4011    4012    4013    3997    3997    3985    3998
    3986    3998    4004    4014    4015    4016    3998    3988    3989    3999
    4005    4017    4018    4019    3999    3999    3991    3992    4000    4006
    4020    4021    4022    4000    4000    3994    3995    4001    4007    4023
    4024    4025    4001    4001    4002    4008    4009    4010    4003    4011
    4012    4013    4004    4014    4015    4016    4005    4017    4018    4019
    4006    4020    4021    4022    4007    4023    4024    4025    4008    4009
    4010    4011    4012    4013    4014    4015    4016    4017    4018    4019
    4020    4021    4022    4023    4024    4025    4009    4010    4010       0
    4012    4013    4013       0    4015    4016    4016       0    4018    4019
    4019       0    4021    4022    4022       0    4024    4025    4025       0
    4027    4028    4029    4030    4031    4032    4033    4034    4035    4036
    4037    4028    4029    4030    4031    4032    4033    4034    4035    4036
    4037    4038    4039    4040    4029    4030    4031    4032    4033    4030
    4034    4035    4036    4037    4038    4039    4041    4034    4035    4036
    4037    4038    4040    4041    4032    4033    4033       0    4035    4036
    4038    4039    4040    4041    4042    4043    4038    4039    4037    4038
    4039    4040    4041    4042    4043    4038    4040    4039    4040    4041
    4042    4043    4044    4045    4046    4047    4041    4041    4042    4043
    4044    4045    4046    4047    4048    4049    4050    4051    4052    4053
    4054    4055    4043    4044    4045    4046    4047    4048    4049    4050
    4051    4056    4057    4058    4044    4045    4046    4047    4052    4053
    4054    4055    4059    4060    4061    4045    4048    4049    4050    4051
    4056    4057    4062    4063    4064    4065    4048    4049    4050    4051
    4056    4058    4062    4047    4052    4053    4054    4055    4059    4060
    4066    4052    4053    4054    4055    4059    4061    4066    4049    4050
    4056    4057    4058    4062    4063    4064    4065    4067    4068    4069
    4070    4071    4072    4056    4057    4051    4056    4057    4058    4062
    4063    4067    4056    4058    4053    4054    4059    4060    4061    4066
    4073    4059    4060    4055    4059    4060    4061    4066    4073    4059
    4061    4057    4058    4062    4063    4064    4065    4067    4068    4074
    4075    4062    4063    4064    4065    4067    4068    4069    4070    4071
    4072    4076    4077    4078    4079    4080    4081    4082    4083    4062
    4060    4061    4066    4073    4084    4085    4086    4066    4066    4063
    4064    4065    4067    4068    4074    4075    4076    4077    4087    4064
    4065    4067    4068    4069    4070    4071    4072    4074    4075    4076
    4077    4088    4065    4068    4069    4070    4071    4072    4078    4079
    4080    4083    4089    4090    4091    4068    4069    4070    4071    4072
    4080    4081    4082    4083    4092    4093    4094    4073    4084    4085
    4086    4068    4074    4075    4076    4087    4088    4074    4076    4077
    4087    4088    4095    4096    4070    4072    4078    4079    4080    4089
    4090    4097    4098    4099    4071    4072    4078    4079    4080    4083
    4090    4091    4093    4094    4099    4072    4081    4082    4083    4092
    4093    4100    4101    4102    4080    4081    4082    4083    4090    4091
    4093    4094    4102    4084    4085    4086    4075    4076    4077    4087
    4088    4095    4096    4076    4087    4077    4087    4088    4095    4096
    4103    4104    4105    4106    4088    4079    4080    4089    4090    4091
    4097    4098    4099    4107    4108    4109    4110    4089    4090    4083
    4089    4090    4091    4099    4082    4092    4093    4083    4092    4093
    4094    4100    4101    4102    4111    4112    4113    4114    4092    4093
    4094    4102    4085    4086    4086       0    4088    4095    4096    4103
    4104    4105    4106    4115    4116    4117    4118    4119    4120    4121
    4122    4090    4097    4098    4099    4107    4108    4109    4110    4123
    4124    4125    4126    4127    4128    4129    4130    4091    4097    4098
    4099    4099    4093    4100    4101    4102    4111    4112    4113    4114
    4131    4132    4133    4134    4135    4136    4137    4138    4094    4100
    4101    4102    4102    4096    4103    4104    4105    4106    4115    4116
    4117    4118    4139    4140    4141    4103    4104    4105    4106    4119
    4120    4121    4122    4142    4143    4144    4098    4107    4108    4109
    4110    4123    4124    4125    4126    4145    4146    4147    4107    4108
    4109    4110    4127    4128    4129    4130    4148    4149    4150       0
    4101    4111    4112    4113    4114    4131    4132    4133    4134    4151
    4152    4153    4111    4112    4113    4114    4135    4136    4137    4138
    4154    4155    4156       0    4104    4115    4116    4117    4118    4139
    4140    4157    4115    4116    4117    4118    4139    4141    4157    4106
    4119    4120    4121    4122    4142    4143    4158    4119    4120    4121
    4122    4142    4144    4158    4108    4123    4124    4125    4126    4145
    4146    4159    4123    4124    4125    4126    4146    4147    4159    4110
    4127    4128    4129    4130    4148    4149    4160    4127    4128    4129
    4130    4148    4150    4160    4112    4131    4132    4133    4134    4151
    4152    4161    4131    4132    4133    4134    4151    4153    4161    4114
    4135    4136    4137    4138    4154    4155    4162    4135    4136    4137
    4138    4154    4156    4162    4116    4117    4139    4140    4141    4157
    4163    4139    4140    4118    4139    4140    4141    4157    4163    4139
    4141    4120    4142    4143    4122    4142    4143    4144    4158    4164
    4122    4142    4144    4142    4143    4144    4158    4164    4124    4125
    4145    4146    4147    4159    4165    4145    4146    4126    4145    4146
    4147    4159    4165    4146    4147    4128    4129    4148    4149    4150
    4160    4166    4148    4149    4130    4148    4149    4150    4160    4166
    4148    4150    4132    4133    4151    4152    4153    4161    4167    4151
    4152    4134    4151    4152    4153    4161    4167    4151    4153    4136
    4137    4154    4155    4156    4162    4168    4154    4155    4138    4154
    4155    4156    4162    4168    4154    4156    4140    4141    4157    4163
    4169    4170    4171    4157    4157    4143    4144    4158    4164    4172
    4173    4174    4158    4158    4146    4159    4147    4159    4165    4175
    4176    4177    4159    4149    4150    4160    4166    4178    4179    4180
    4160    4160    4152    4153    4161    4167    4181    4182    4183    4161
    4161    4155    4156    4162    4168    4184    4185    4186    4162    4162
    4163    4169    4170    4171    4164    4172    4173    4174    4165    4175
    4176    4177    4166    4178    4179    4180    4167    4181    4182    4183
    4168    4184    4185    4186    4169    4170    4171    4172    4173    4174
    4175    4176    4177    4178    4179    4180    4181    4182    4183    4184
    4185    4186    4170    4171    4171       0    4173    4174    4174       0
    4176    4177    4177       0    4179    4180    4180       0    4182    4183
    4183       0    4185    4186    4186       0    4188    4189    4190    4191
    4192    4193    4194    4195    4196    4197    4198    4189    4190    4191
    4192    4193    4194    4195    4196    4197    4198    4199    4200    4201
    4190    4191    4192    4193    4194    4191    4195    4196    4197    4198
    4199    4200    4202    4195    4196    4197    4198    4199    4201    4202
    4193    4194    4194       0    4196    4197    4199    4200    4201    4202
    4203    4204    4199    4200    4198    4199    4200    4201    4202    4203
    4204    4199    4201    4200    4201    4202    4203    4204    4205    4206
    4207    4208    4202    4202    4203    4204    4205    4206    4207    4208
    4209    4210    4211    4212    4213    4214    4215    4216    4204    4205
    4206    4207    4208    4209    4210    4211    4212    4217    4218    4219
    4205    4206    4207    4208    4213    4214    4215    4216    4220    4221
    4222    4206    4209    4210    4211    4212    4217    4218    4223    4224
    4225    4226    4209    4210    4211    4212    4217    4219    4223    4208
    4213    4214    4215    4216    4220    4221    4227    4213    4214    4215
    4216    4220    4222    4227    4210    4211    4217    4218    4219    4223
    4224    4225    4226    4228    4229    4230    4231    4232    4233    4217
    4218    4212    4217    4218    4219    4223    4224    4228    4217    4219
    4214    4215    4220    4221    4222    4227    4234    4220    4221    4216
    4220    4221    4222    4227    4234    4220    4222    4218    4219    4223
    4224    4225    4226    4228    4229    4235    4236    4223    4224    4225
    4226    4228    4229    4230    4231    4232    4233    4237    4238    4239
    4240    4241    4242    4243    4244    4223    4221    4222    4227    4234
    4245    4246    4247    4227    4227    4224    4225    4226    4228    4229
    4235    4236    4237    4238    4248    4225    4226    4228    4229    4230
    4231    4232    4233    4235    4236    4237    4238    4249    4226    4229
    4230    4231    4232    4233    4239    4240    4241    4244    4250    4251
    4252    4229    4230    4231    4232    4233    4241    4242    4243    4244
    4253    4254    4255    4234    4245    4246    4247    4229    4235    4236
    4237    4248    4249    4235    4237    4238    4248    4249    4256    4257
    4231    4233    4239    4240    4241    4250    4251    4258    4259    4260
    4232    4233    4239    4240    4241    4244    4251    4252    4254    4255
    4260    4233    4242    4243    4244    4253    4254    4261    4262    4263
    4241    4242    4243    4244    4251    4252    4254    4255    4263    4245
    4246    4247    4236    4237    4238    4248    4249    4256    4257    4237
    4248    4238    4248    4249    4256    4257    4264    4265    4266    4267
    4249    4240    4241    4250    4251    4252    4258    4259    4260    4268
    4269    4270    4271    4250    4251    4244    4250    4251    4252    4260
    4243    4253    4254    4244    4253    4254    4255    4261    4262    4263
    4272    4273    4274    4275    4253    4254    4255    4263    4246    4247
    4247       0    4249    4256    4257    4264    4265    4266    4267    4276
    4277    4278    4279    4280    4281    4282    4283    4251    4258    4259
    4260    4268    4269    4270    4271    4284    4285    4286    4287    4288
    4289    4290    4291    4252    4258    4259    4260    4260    4254    4261
    4262    4263    4272    4273    4274    4275    4292    4293    4294    4295
    4296    4297    4298    4299    4255    4261    4262    4263    4263    4257
    4264    4265    4266    4267    4276    4277    4278    4279    4300    4301
    4302    4264    4265    4266    4267    4280    4281    4282    4283    4303
    4304    4305    4259    4268    4269    4270    4271    4284    4285    4286
    4287    4306    4307    4308    4268    4269    4270    4271    4288    4289
    4290    4291    4309    4310    4311       0    4262    4272    4273    4274
    4275    4292    4293    4294    4295    4312    4313    4314    4272    4273
    4274    4275    4296    4297    4298    4299    4315    4316    4317       0
    4265    4276    4277    4278    4279    4300    4301    4318    4276    4277
    4278    4279    4300    4302    4318    4267    4280    4281    4282    4283
    4303    4304    4319    4280    4281    4282    4283    4303    4305    4319
    4269    4284    4285    4286    4287    4306    4307    4320    4284    4285
    4286    4287    4307    4308    4320    4271    4288    4289    4290    4291
    4309    4310    4321    4288    4289    4290    4291    4309    4311    4321
    4273    4292    4293    4294    4295    4312    4313    4322    4292    4293
    4294    4295    4312    4314    4322    4275    4296    4297    4298    4299
    4315    4316    4323    4296    4297    4298    4299    4315    4317    4323
    4277    4278    4300    4301    4302    4318    4324    4300    4301    4279
    4300    4301    4302    4318    4324    4300    4302    4281    4303    4304
    4283    4303    4304    4305    4319    4325    4283    4303    4305    4303
    4304    4305    4319    4325    4285    4286    4306    4307    4308    4320
    4326    4306    4307    4287    4306    4307    4308    4320    4326    4307
    4308    4289    4290    4309    4310    4311    4321    4327    4309    4310
    4291    4309    4310    4311    4321    4327    4309    4311    4293    4294
    4312    4313    4314    4322    4328    4312    4313    4295    4312    4313
    4314    4322    4328    4312    4314    4297    4298    4315    4316    4317
    4323    4329    4315    4316    4299    4315    4316    4317    4323    4329
    4315    4317    4301    4302    4318    4324    4330    4331    4332    4318
    4318    4304    4305    4319    4325    4333    4334    4335    4319    4319
    4307    4320    4308    4320    4326    4336    4337    4338    4320    4310
    4311    4321    4327    4339    4340    4341    4321    4321    4313    4314
    4322    4328    4342    4343    4344    4322    4322    4316    4317    4323
    4329    4345    4346    4347    4323    4323    4324    4330    4331    4332
    4325    4333    4334    4335    4326    4336    4337    4338    4327    4339
    4340    4341    4328    4342    4343    4344    4329    4345    4346    4347
    4330    4331    4332    4333    4334    4335    4336    4337    4338    4339
    4340    4341    4342    4343    4344    4345    4346    4347    4331    4332
    4332       0    4334    4335    4335       0    4337    4338    4338       0
    4340    4341    4341       0    4343    4344    4344       0    4346    4347
    4347       0    4349    4350    4351    4352    4353    4354    4355    4356
    4357    4358    4359    4350    4351    4352    4353    4354    4355    4356
    4357    4358    4359    4360    4361    4362    4351    4352    4353    4354
    4355    4352    4356    4357    4358    4359    4360    4361    4363    4356
    4357    4358    4359    4360    4362    4363    4354    4355    4355       0
    4357    4358    4360    4361    4362    4363    4364    4365    4360    4361
    4359    4360    4361    4362    4363    4364    4365    4360    4362    4361
    4362    4363    4364    4365    4366    4367    4368    4369    4363    4363
    4364    4365    4366    4367    4368    4369    4370    4371    4372    4373
    4374    4375    4376    4377    4365    4366    4367    4368    4369    4370
    4371    4372    4373    4378    4379    4380    4366    4367    4368    4369
    4374    4375    4376    4377    4381    4382    4383    4367    4370    4371
    4372    4373    4378    4379    4384    4385    4386    4387    4370    4371
    4372    4373    4378    4380    4384    4369    4374    4375    4376    4377
    4381    4382    4388    4374    4375    4376    4377    4381    4383    4388
    4371    4372    4378    4379    4380    4384    4385    4386    4387    4389
    4390    4391    4392    4393    4394    4378    4379    4373    4378    4379
    4380    4384    4385    4389    4378    4380    4375    4376    4381    4382
    4383    4388    4395    4381    4382    4377    4381    4382    4383    4388
    4395    4381    4383    4379    4380    4384    4385    4386    4387    4389
    4390    4396    4397    4384    4385    4386    4387    4389    4390    4391
    4392    4393    4394    4398    4399    4400    4401    4402    4403    4404
    4405    4384    4382    4383    4388    4395    4406    4407    4408    4388
    4388    4385    4386    4387    4389    4390    4396    4397    4398    4399
    4409    4386    4387    4389    4390    4391    4392    4393    4394    4396
    4397    4398    4399    4410    4387    4390    4391    4392    4393    4394
    4400    4401    4402    4405    4411    4412    4413    4390    4391    4392
    4393    4394    4402    4403    4404    4405    4414    4415    4416    4395
    4406    4407    4408    4390    4396    4397    4398    4409    4410    4396
    4398    4399    4409    4410    4417    4418    4392    4394    4400    4401
    4402    4411    4412    4419    4420    4421    4393    4394    4400    4401
    4402    4405    4412    4413    4415    4416    4421    4394    4403    4404
    4405    4414    4415    4422    4423    4424    4402    4403    4404    4405
    4412    4413    4415    4416    4424    4406    4407    4408    4397    4398
    4399    4409    4410    4417    4418    4398    4409    4399    4409    4410
    4417    4418    4425    4426    4427    4428    4410    4401    4402    4411
    4412    4413    4419    4420    4421    4429    4430    4431    4432    4411
    4412    4405    4411    4412    4413    4421    4404    4414    4415    4405
    4414    4415    4416    4422    4423    4424    4433    4434    4435    4436
    4414    4415    4416    4424    4407    4408    4408       0    4410    4417
    4418    4425    4426    4427    4428    4437    4438    4439    4440    4441
    4442    4443    4444    4412    4419    4420    4421    4429    4430    4431
    4432    4445    4446    4447    4448    4449    4450    4451    4452    4413
    4419    4420    4421    4421    4415    4422    4423    4424    4433    4434
    4435    4436    4453    4454    4455    4456    4457    4458    4459    4460
    4416    4422    4423    4424    4424    4418    4425    4426    4427    4428
    4437    4438    4439    4440    4461    4462    4463    4425    4426    4427
    4428    4441    4442    4443    4444    4464    4465    4466    4420    4429
    4430    4431    4432    4445    4446    4447    4448    4467    4468    4469
    4429    4430    4431    4432    4449    4450    4451    4452    4470    4471
    4472       0    4423    4433    4434    4435    4436    4453    4454    4455
    4456    4473    4474    4475    4433    4434    4435    4436    4457    4458
    4459    4460    4476    4477    4478       0    4426    4437    4438    4439
    4440    4461    4462    4479    4437    4438    4439    4440    4461    4463
    4479    4428    4441    4442    4443    4444    4464    4465    4480    4441
    4442    4443    4444    4464    4466    4480    4430    4445    4446    4447
    4448    4467    4468    4481    4445    4446    4447    4448    4468    4469
    4481    4432    4449    4450    4451    4452    4470    4471    4482    4449
    4450    4451    4452    4470    4472    4482    4434    4453    4454    4455
    4456    4473    4474    4483    4453    4454    4455    4456    4473    4475
    4483    4436    4457    4458    4459    4460    4476    4477    4484    4457
    4458    4459    4460    4476    4478    4484    4438    4439    4461    4462
    4463    4479    4485    4461    4462    4440    4461    4462    4463    4479
    4485    4461    4463    4442    4464    4465    4444    4464    4465    4466
    4480    4486    4444    4464    4466    4464    4465    4466    4480    4486
    4446    4447    4467    4468    4469    4481    4487    4467    4468    4448
    4467    4468    4469    4481    4487    4468    4469    4450    4451    4470
    4471    4472    4482    4488    4470    4471    4452    4470    4471    4472
    4482    4488    4470    4472    4454    4455    4473    4474    4475    4483
    4489    4473    4474    4456    4473    4474    4475    4483    4489    4473
    4475    4458    4459    4476    4477    4478    4484    4490    4476    4477
    4460    4476    4477    4478    4484    4490    4476    4478    4462    4463
    4479    4485    4491    4492    4493    4479    4479    4465    4466    4480
    4486    4494    4495    4496    4480    4480    4468    4481    4469    4481
    4487    4497    4498    4499    4481    4471    4472    4482    4488    4500
    4501    4502    4482    4482    4474    4475    4483    4489    4503    4504
    4505    4483    4483    4477    4478    4484    4490    4506    4507    4508
    4484    4484    4485    4491    4492    4493    4486    4494    4495    4496
    4487    4497    4498    4499    4488    4500    4501    4502    4489    4503
    4504    4505    4490    4506    4507    4508    4491    4492    4493    4494
    4495    4496    4497    4498    4499    4500    4501    4502    4503    4504
    4505    4506    4507    4508    4492    4493    4493       0    4495    4496
    4496       0    4498    4499    4499       0    4501    4502    4502       0
    4504    4505    4505       0    4507    4508    4508       0    4510    4511
    4512    4513    4514    4515    4516    4517    4518    4519    4520    4511
    4512    4513    4514    4515    4516    4517    4518    4519    4520    4521
    4522    4523    4512    4513    4514    4515    4516    4513    4517    4518
    4519    4520    4521    4522    4524    4517    4518    4519    4520    4521
    4523    4524    4515    4516    4516       0    4518    4519    4521    4522
    4523    4524    4525    4526    4521    4522    4520    4521    4522    4523
    4524    4525    4526    4521    4523    4522    4523    4524    4525    4526
    4527    4528    4529    4530    4524    4524    4525    4526    4527    4528
    4529    4530    4531    4532    4533    4534    4535    4536    4537    4538
    4526    4527    4528    4529    4530    4531    4532    4533    4534    4539
    4540    4541    4527    4528    4529    4530    4535    4536    4537    4538
    4542    4543    4544    4528    4531    4532    4533    4534    4539    4540
    4545    4546    4547    4548    4531    4532    4533    4534    4539    4541
    4545    4530    4535    4536    4537    4538    4542    4543    4549    4535
    4536    4537    4538    4542    4544    4549    4532    4533    4539    4540
    4541    4545    4546    4547    4548    4550    4551    4552    4553    4554
    4555    4539    4540    4534    4539    4540    4541    4545    4546    4550
    4539    4541    4536    4537    4542    4543    4544    4549    4556    4542
    4543    4538    4542    4543    4544    4549    4556    4542    4544    4540
    4541    4545    4546    4547    4548    4550    4551    4557    4558    4545
    4546    4547    4548    4550    4551    4552    4553    4554    4555    4559
    4560    4561    4562    4563    4564    4565    4566    4545    4543    4544
    4549    4556    4567    4568    4569    4549    4549    4546    4547    4548
    4550    4551    4557    4558    4559    4560    4570    4547    4548    4550
    4551    4552    4553    4554    4555    4557    4558    4559    4560    4571
    4548    4551    4552    4553    4554    4555    4561    4562    4563    4566
    4572    4573    4574    4551    4552    4553    4554    4555    4563    4564
    4565    4566    4575    4576    4577    4556    4567    4568    4569    4551
    4557    4558    4559    4570    4571    4557    4559    4560    4570    4571
    4578    4579    4553    4555    4561    4562    4563    4572    4573    4580
    4581    4582    4554    4555    4561    4562    4563    4566    4573    4574
    4576    4577    4582    4555    4564    4565    4566    4575    4576    4583
    4584    4585    4563    4564    4565    4566    4573    4574    4576    4577
    4585    4567    4568    4569    4558    4559    4560    4570    4571    4578
    4579    4559    4570    4560    4570    4571    4578    4579    4586    4587
    4588    4589    4571    4562    4563    4572    4573    4574    4580    4581
    4582    4590    4591    4592    4593    4572    4573    4566    4572    4573
    4574    4582    4565    4575    4576    4566    4575    4576    4577    4583
    4584    4585    4594    4595    4596    4597    4575    4576    4577    4585
    4568    4569    4569       0    4571    4578    4579    4586    4587    4588
    4589    4598    4599    4600    4601    4602    4603    4604    4605    4573
    4580    4581    4582    4590    4591    4592    4593    4606    4607    4608
    4609    4610    4611    4612    4613    4574    4580    4581    4582    4582
    4576    4583    4584    4585    4594    4595    4596    4597    4614    4615
    4616    4617    4618    4619    4620    4621    4577    4583    4584    4585
    4585    4579    4586    4587    4588    4589    4598    4599    4600    4601
    4622    4623    4624    4586    4587    4588    4589    4602    4603    4604
    4605    4625    4626    4627    4581    4590    4591    4592    4593    4606
    4607    4608    4609    4628    4629    4630    4590    4591    4592    4593
    4610    4611    4612    4613    4631    4632    4633       0    4584    4594
    4595    4596    4597    4614    4615    4616    4617    4634    4635    4636
    4594    4595    4596    4597    4618    4619    4620    4621    4637    4638
    4639       0    4587    4598    4599    4600    4601    4622    4623    4640
    4598    4599    4600    4601    4622    4624    4640    4589    4602    4603
    4604    4605    4625    4626    4641    4602    4603    4604    4605    4625
    4627    4641    4591    4606    4607    4608    4609    4628    4629    4642
    4606    4607    4608    4609    4629    4630    4642    4593    4610    4611
    4612    4613    4631    4632    4643    4610    4611    4612    4613    4631
    4633    4643    4595    4614    4615    4616    4617    4634    4635    4644
    4614    4615    4616    4617    4634    4636    4644    4597    4618    4619
    4620    4621    4637    4638    4645    4618    4619    4620    4621    4637
    4639    4645    4599    4600    4622    4623    4624    4640    4646    4622
    4623    4601    4622    4623    4624    4640    4646    4622    4624    4603
    4625    4626    4605    4625    4626    4627    4641    4647    4605    4625
    4627    4625    4626    4627    4641    4647    4607    4608    4628    4629
    4630    4642    4648    4628    4629    4609    4628    4629    4630    4642
    4648    4629    4630    4611    4612    4631    4632    4633    4643    4649
    4631    4632    4613    4631    4632    4633    4643    4649    4631    4633
    4615    4616    4634    4635    4636    4644    4650    4634    4635    4617
    4634    4635    4636    4644    4650    4634    4636    4619    4620    4637
    4638    4639    4645    4651    4637    4638    4621    4637    4638    4639
    4645    4651    4637    4639    4623    4624    4640    4646    4652    4653
    4654    4640    4640    4626    4627    4641    4647    4655    4656    4657
    4641    4641    4629    4642    4630    4642    4648    4658    4659    4660
    4642    4632    4633    4643    4649    4661    4662    4663    4643    4643
    4635    4636    4644    4650    4664    4665    4666    4644    4644    4638
    4639    4645    4651    4667    4668    4669    4645    4645    4646    4652
    4653    4654    4647    4655    4656    4657    4648    4658    4659    4660
    4649    4661    4662    4663    4650    4664    4665    4666    4651    4667
    4668    4669    4652    4653    4654    4655    4656    4657    4658    4659
    4660    4661    4662    4663    4664    4665    4666    4667    4668    4669
    4653    4654    4654       0    4656    4657    4657       0    4659    4660
    4660       0    4662    4663    4663       0    4665    4666    4666       0
    4668    4669    4669       0    4671    4672    4673    4674    4675    4676
    4677    4678    4679    4680    4681    4672    4673    4674    4675    4676
    4677    4678    4679    4680    4681    4682    4683    4684    4673    4674
    4675    4676    4677    4674    4678    4679    4680    4681    4682    4683
    4685    4678    4679    4680    4681    4682    4684    4685    4676    4677
    4677       0    4679    4680    4682    4683    4684    4685    4686    4687
    4682    4683    4681    4682    4683    4684    4685    4686    4687    4682
    4684    4683    4684    4685    4686    4687    4688    4689    4690    4691
    4685    4685    4686    4687    4688    4689    4690    4691    4692    4693
    4694    4695    4696    4697    4698    4699    4687    4688    4689    4690
    4691    4692    4693    4694    4695    4700    4701    4702    4688    4689
    4690    4691    4696    4697    4698    4699    4703    4704    4705    4689
    4692    4693    4694    4695    4700    4701    4706    4707    4708    4709
    4692    4693    4694    4695    4700    4702    4706    4691    4696    4697
    4698    4699    4703    4704    4710    4696    4697    4698    4699    4703
    4705    4710    4693    4694    4700    4701    4702    4706    4707    4708
    4709    4711    4712    4713    4714    4715    4716    4700    4701    4695
    4700    4701    4702    4706    4707    4711    4700    4702    4697    4698
    4703    4704    4705    4710    4717    4703    4704    4699    4703    4704
    4705    4710    4717    4703    4705    4701    4702    4706    4707    4708
    4709    4711    4712    4718    4719    4706    4707    4708    4709    4711
    4712    4713    4714    4715    4716    4720    4721    4722    4723    4724
    4725    4726    4727    4706    4704    4705    4710    4717    4728    4729
    4730    4710    4710    4707    4708    4709    4711    4712    4718    4719
    4720    4721    4731    4708    4709    4711    4712    4713    4714    4715
    4716    4718    4719    4720    4721    4732    4709    4712    4713    4714
    4715    4716    4722    4723    4724    4727    4733    4734    4735    4712
    4713    4714    4715    4716    4724    4725    4726    4727    4736    4737
    4738    4717    4728    4729    4730    4712    4718    4719    4720    4731
    4732    4718    4720    4721    4731    4732    4739    4740    4714    4716
    4722    4723    4724    4733    4734    4741    4742    4743    4715    4716
    4722    4723    4724    4727    4734    4735    4737    4738    4743    4716
    4725    4726    4727    4736    4737    4744    4745    4746    4724    4725
    4726    4727    4734    4735    4737    4738    4746    4728    4729    4730
    4719    4720    4721    4731    4732    4739    4740    4720    4731    4721
    4731    4732    4739    4740    4747    4748    4749    4750    4732    4723
    4724    4733    4734    4735    4741    4742    4743    4751    4752    4753
    4754    4733    4734    4727    4733    4734    4735    4743    4726    4736
    4737    4727    4736    4737    4738    4744    4745    4746    4755    4756
    4757    4758    4736    4737    4738    4746    4729    4730    4730       0
    4732    4739    4740    4747    4748    4749    4750    4759    4760    4761
    4762    4763    4764    4765    4766    4734    4741    4742    4743    4751
    4752    4753    4754    4767    4768    4769    4770    4771    4772    4773
    4774    4735    4741    4742    4743    4743    4737    4744    4745    4746
    4755    4756    4757    4758    4775    4776    4777    4778    4779    4780
    4781    4782    4738    4744    4745    4746    4746    4740    4747    4748
    4749    4750    4759    4760    4761    4762    4783    4784    4785    4747
    4748    4749    4750    4763    4764    4765    4766    4786    4787    4788
    4742    4751    4752    4753    4754    4767    4768    4769    4770    4789
    4790    4791    4751    4752    4753    4754    4771    4772    4773    4774
    4792    4793    4794       0    4745    4755    4756    4757    4758    4775
    4776    4777    4778    4795    4796    4797    4755    4756    4757    4758
    4779    4780    4781    4782    4798    4799    4800       0    4748    4759
    4760    4761    4762    4783    4784    4801    4759    4760    4761    4762
    4783    4785    4801    4750    4763    4764    4765    4766    4786    4787
    4802    4763    4764    4765    4766    4786    4788    4802    4752    4767
    4768    4769    4770    4789    4790    4803    4767    4768    4769    4770
    4790    4791    4803    4754    4771    4772    4773    4774    4792    4793
    4804    4771    4772    4773    4774    4792    4794    4804    4756    4775
    4776    4777    4778    4795    4796    4805    4775    4776    4777    4778
    4795    4797    4805    4758    4779    4780    4781    4782    4798    4799
    4806    4779    4780    4781    4782    4798    4800    4806    4760    4761
    4783    4784    4785    4801    4807    4783    4784    4762    4783    4784
    4785    4801    4807    4783    4785    4764    4786    4787    4766    4786
    4787    4788    4802    4808    4766    4786    4788    4786    4787    4788
    4802    4808    4768    4769    4789    4790    4791    4803    4809    4789
    4790    4770    4789    4790    4791    4803    4809    4790    4791    4772
    4773    4792    4793    4794    4804    4810    4792    4793    4774    4792
    4793    4794    4804    4810    4792    4794    4776    4777    4795    4796
    4797    4805    4811    4795    4796    4778    4795    4796    4797    4805
    4811    4795    4797    4780    4781    4798    4799    4800    4806    4812
    4798    4799    4782    4798    4799    4800    4806    4812    4798    4800
    4784    4785    4801    4807    4813    4814    4815    4801    4801    4787
    4788    4802    4808    4816    4817    4818    4802    4802    4790    4803
    4791    4803    4809    4819    4820    4821    4803    4793    4794    4804
    4810    4822    4823    4824    4804    4804    4796    4797    4805    4811
    4825    4826    4827    4805    4805    4799    4800    4806    4812    4828
    4829    4830    4806    4806    4807    4813    4814    4815    4808    4816
    4817    4818    4809    4819    4820    4821    4810    4822    4823    4824
    4811    4825    4826    4827    4812    4828    4829    4830    4813    4814
    4815    4816    4817    4818    4819    4820    4821    4822    4823    4824
    4825    4826    4827    4828    4829    4830    4814    4815    4815       0
    4817    4818    4818       0    4820    4821    4821       0    4823    4824
    4824       0    4826    4827    4827       0    4829    4830    4830       0
    4832    4833    4834    4835    4836    4837    4838    4839    4840    4841
    4842    4833    4834    4835    4836    4837    4838    4839    4840    4841
    4842    4843    4844    4845    4834    4835    4836    4837    4838    4835
    4839    4840    4841    4842    4843    4844    4846    4839    4840    4841
    4842    4843    4845    4846    4837    4838    4838       0    4840    4841
    4843    4844    4845    4846    4847    4848    4843    4844    4842    4843
    4844    4845    4846    4847    4848    4843    4845    4844    4845    4846
    4847    4848    4849    4850    4851    4852    4846    4846    4847    4848
    4849    4850    4851    4852    4853    4854    4855    4856    4857    4858
    4859    4860    4848    4849    4850    4851    4852    4853    4854    4855
    4856    4861    4862    4863    4849    4850    4851    4852    4857    4858
    4859    4860    4864    4865    4866    4850    4853    4854    4855    4856
    4861    4862    4867    4868    4869    4870    4853    4854    4855    4856
    4861    4863    4867    4852    4857    4858    4859    4860    4864    4865
    4871    4857    4858    4859    4860    4864    4866    4871    4854    4855
    4861    4862    4863    4867    4868    4869    4870    4872    4873    4874
    4875    4876    4877    4861    4862    4856    4861    4862    4863    4867
    4868    4872    4861    4863    4858    4859    4864    4865    4866    4871
    4878    4864    4865    4860    4864    4865    4866    4871    4878    4864
    4866    4862    4863    4867    4868    4869    4870    4872    4873    4879
    4880    4867    4868    4869    4870    4872    4873    4874    4875    4876
    4877    4881    4882    4883    4884    4885    4886    4887    4888    4867
    4865    4866    4871    4878    4889    4890    4891    4871    4871    4868
    4869    4870    4872    4873    4879    4880    4881    4882    4892    4869
    4870    4872    4873    4874    4875    4876    4877    4879    4880    4881
    4882    4893    4870    4873    4874    4875    4876    4877    4883    4884
    4885    4888    4894    4895    4896    4873    4874    4875    4876    4877
    4885    4886    4887    4888    4897    4898    4899    4878    4889    4890
    4891    4873    4879    4880    4881    4892    4893    4879    4881    4882
    4892    4893    4900    4901    4875    4877    4883    4884    4885    4894
    4895    4902    4903    4904    4876    4877    4883    4884    4885    4888
    4895    4896    4898    4899    4904    4877    4886    4887    4888    4897
    4898    4905    4906    4907    4885    4886    4887    4888    4895    4896
    4898    4899    4907    4889    4890    4891    4880    4881    4882    4892
    4893    4900    4901    4881    4892    4882    4892    4893    4900    4901
    4908    4909    4910    4911    4893    4884    4885    4894    4895    4896
    4902    4903    4904    4912    4913    4914    4915    4894    4895    4888
    4894    4895    4896    4904    4887    4897    4898    4888    4897    4898
    4899    4905    4906    4907    4916    4917    4918    4919    4897    4898
    4899    4907    4890    4891    4891       0    4893    4900    4901    4908
    4909    4910    4911    4920    4921    4922    4923    4924    4925    4926
    4927    4895    4902    4903    4904    4912    4913    4914    4915    4928
    4929    4930    4931    4932    4933    4934    4935    4896    4902    4903
    4904    4904    4898    4905    4906    4907    4916    4917    4918    4919
    4936    4937    4938    4939    4940    4941    4942    4943    4899    4905
    4906    4907    4907    4901    4908    4909    4910    4911    4920    4921
    4922    4923    4944    4945    4946    4908    4909    4910    4911    4924
    4925    4926    4927    4947    4948    4949    4903    4912    4913    4914
    4915    4928    4929    4930    4931    4950    4951    4952    4912    4913
    4914    4915    4932    4933    4934    4935    4953    4954    4955       0
    4906    4916    4917    4918    4919    4936    4937    4938    4939    4956
    4957    4958    4916    4917    4918    4919    4940    4941    4942    4943
    4959    4960    4961       0    4909    4920    4921    4922    4923    4944
    4945    4962    4920    4921    4922    4923    4944    4946    4962    4911
    4924    4925    4926    4927    4947    4948    4963    4924    4925    4926
    4927    4947    4949    4963    4913    4928    4929    4930    4931    4950
    4951    4964    4928    4929    4930    4931    4951    4952    4964    4915
    4932    4933    4934    4935    4953    4954    4965    4932    4933    4934
    4935    4953    4955    4965    4917    4936    4937    4938    4939    4956
    4957    4966    4936    4937    4938    4939    4956    4958    4966    4919
    4940    4941    4942    4943    4959    4960    4967    4940    4941    4942
    4943    4959    4961    4967    4921    4922    4944    4945    4946    4962
    4968    4944    4945    4923    4944    4945    4946    4962    4968    4944
    4946    4925    4947    4948    4927    4947    4948    4949    4963    4969
    4927    4947    4949    4947    4948    4949    4963    4969    4929    4930
    4950    4951    4952    4964    4970    4950    4951    4931    4950    4951
    4952    4964    4970    4951    4952    4933    4934    4953    4954    4955
    4965    4971    4953    4954    4935    4953    4954    4955    4965    4971
    4953    4955    4937    4938    4956    4957    4958    4966    4972    4956
    4957    4939    4956    4957    4958    4966    4972    4956    4958    4941
    4942    4959    4960    4961    4967    4973    4959    4960    4943    4959
    4960    4961    4967    4973    4959    4961    4945    4946    4962    4968
    4974    4975    4976    4962    4962    4948    4949    4963    4969    4977
    4978    4979    4963    4963    4951    4964    4952    4964    4970    4980
    4981    4982    4964    4954    4955    4965    4971    4983    4984    4985
    4965    4965    4957    4958    4966    4972    4986    4987    4988    4966
    4966    4960    4961    4967    4973    4989    4990    4991    4967    4967
    4968    4974    4975    4976    4969    4977    4978    4979    4970    4980
    4981    4982    4971    4983    4984    4985    4972    4986    4987    4988
    4973    4989    4990    4991    4974    4975    4976    4977    4978    4979
    4980    4981    4982    4983    4984    4985    4986    4987    4988    4989
    4990    4991    4975    4976    4976       0    4978    4979    4979       0
    4981    4982    4982       0    4984    4985    4985       0    4987    4988
    4988       0    4990    4991    4991       0    4993    4994    4995    4996
    4997    4998    4999    5000    5001    5002    5003    4994    4995    4996
    4997    4998    4999    5000    5001    5002    5003    5004    5005    5006
    4995    4996    4997    4998    4999    4996    5000    5001    5002    5003
    5004    5005    5007    5000    5001    5002    5003    5004    5006    5007
    4998    4999    4999       0    5001    5002    5004    5005    5006    5007
    5008    5009    5004    5005    5003    5004    5005    5006    5007    5008
    5009    5004    5006    5005    5006    5007    5008    5009    5010    5011
    5012    5013    5007    5007    5008    5009    5010    5011    5012    5013
    5014    5015    5016    5017    5018    5019    5020    5021    5009    5010
    5011    5012    5013    5014    5015    5016    5017    5022    5023    5024
    5010    5011    5012    5013    5018    5019    5020    5021    5025    5026
    5027    5011    5014    5015    5016    5017    5022    5023    5028    5029
    5030    5031    5014    5015    5016    5017    5022    5024    5028    5013
    5018    5019    5020    5021    5025    5026    5032    5018    5019    5020
    5021    5025    5027    5032    5015    5016    5022    5023    5024    5028
    5029    5030    5031    5033    5034    5035    5036    5037    5038    5022
    5023    5017    5022    5023    5024    5028    5029    5033    5022    5024
    5019    5020    5025    5026    5027    5032    5039    5025    5026    5021
    5025    5026    5027    5032    5039    5025    5027    5023    5024    5028
    5029    5030    5031    5033    5034    5040    5041    5028    5029    5030
    5031    5033    5034    5035    5036    5037    5038    5042    5043    5044
    5045    5046    5047    5048    5049    5028    5026    5027    5032    5039
    5050    5051    5052    5032    5032    5029    5030    5031    5033    5034
    5040    5041    5042    5043    5053    5030    5031    5033    5034    5035
    5036    5037    5038    5040    5041    5042    5043    5054    5031    5034
    5035    5036    5037    5038    5044    5045    5046    5049    5055    5056
    5057    5034    5035    5036    5037    5038    5046    5047    5048    5049
    5058    5059    5060    5039    5050    5051    5052    5034    5040    5041
    5042    5053    5054    5040    5042    5043    5053    5054    5061    5062
    5036    5038    5044    5045    5046    5055    5056    5063    5064    5065
    5037    5038    5044    5045    5046    5049    5056    5057    5059    5060
    5065    5038    5047    5048    5049    5058    5059    5066    5067    5068
    5046    5047    5048    5049    5056    5057    5059    5060    5068    5050
    5051    5052    5041    5042    5043    5053    5054    5061    5062    5042
    5053    5043    5053    5054    5061    5062    5069    5070    5071    5072
    5054    5045    5046    5055    5056    5057    5063    5064    5065    5073
    5074    5075    5076    5055    5056    5049    5055    5056    5057    5065
    5048    5058    5059    5049    5058    5059    5060    5066    5067    5068
    5077    5078    5079    5080    5058    5059    5060    5068    5051    5052
    5052       0    5054    5061    5062    5069    5070    5071    5072    5081
    5082    5083    5084    5085    5086    5087    5088    5056    5063    5064
    5065    5073    5074    5075    5076    5089    5090    5091    5092    5093
    5094    5095    5096    5057    5063    5064    5065    5065    5059    5066
    5067    5068    5077    5078    5079    5080    5097    5098    5099    5100
    5101    5102    5103    5104    5060    5066    5067    5068    5068    5062
    5069    5070    5071    5072    5081    5082    5083    5084    5105    5106
    5107    5069    5070    5071    5072    5085    5086    5087    5088    5108
    5109    5110    5064    5073    5074    5075    5076    5089    5090    5091
    5092    5111    5112    5113    5073    5074    5075    5076    5093    5094
    5095    5096    5114    5115    5116       0    5067    5077    5078    5079
    5080    5097    5098    5099    5100    5117    5118    5119    5077    5078
    5079    5080    5101    5102    5103    5104    5120    5121    5122       0
    5070    5081    5082    5083    5084    5105    5106    5123    5081    5082
    5083    5084    5105    5107    5123    5072    5085    5086    5087    5088
    5108    5109    5124    5085    5086    5087    5088    5108    5110    5124
    5074    5089    5090    5091    5092    5111    5112    5125    5089    5090
    5091    5092    5112    5113    5125    5076    5093    5094    5095    5096
    5114    5115    5126    5093    5094    5095    5096    5114    5116    5126
    5078    5097    5098    5099    5100    5117    5118    5127    5097    5098
    5099    5100    5117    5119    5127    5080    5101    5102    5103    5104
    5120    5121    5128    5101    5102    5103    5104    5120    5122    5128
    5082    5083    5105    5106    5107    5123    5129    5105    5106    5084
    5105    5106    5107    5123    5129    5105    5107    5086    5108    5109
    5088    5108    5109    5110    5124    5130    5088    5108    5110    5108
    5109    5110    5124    5130    5090    5091    5111    5112    5113    5125
    5131    5111    5112    5092    5111    5112    5113    5125    5131    5112
    5113    5094    5095    5114    5115    5116    5126    5132    5114    5115
    5096    5114    5115    5116    5126    5132    5114    5116    5098    5099
    5117    5118    5119    5127    5133    5117    5118    5100    5117    5118
    5119    5127    5133    5117    5119    5102    5103    5120    5121    5122
    5128    5134    5120    5121    5104    5120    5121    5122    5128    5134
    5120    5122    5106    5107    5123    5129    5135    5136    5137    5123
    5123    5109    5110    5124    5130    5138    5139    5140    5124    5124
    5112    5125    5113    5125    5131    5141    5142    5143    5125    5115
    5116    5126    5132    5144    5145    5146    5126    5126    5118    5119
    5127    5133    5147    5148    5149    5127    5127    5121    5122    5128
    5134    5150    5151    5152    5128    5128    5129    5135    5136    5137
    5130    5138    5139    5140    5131    5141    5142    5143    5132    5144
    5145    5146    5133    5147    5148    5149    5134    5150    5151    5152
    5135    5136    5137    5138    5139    5140    5141    5142    5143    5144
    5145    5146    5147    5148    5149    5150    5151    5152    5136    5137
    5137       0    5139    5140    5140       0    5142    5143    5143       0
    5145    5146    5146       0    5148    5149    5149       0    5151    5152
    5152       0    5154    5155    5156    5157    5158    5159    5160    5161
    5162    5163    5164    5155    5156    5157    5158    5159    5160    5161
    5162    5163    5164    5165    5166    5167    5156    5157    5158    5159
    5160    5157    5161    5162    5163    5164    5165    5166    5168    5161
    5162    5163    5164    5165    5167    5168    5159    5160    5160       0
    5162    5163    5165    5166    5167    5168    5169    5170    5165    5166
    5164    5165    5166    5167    5168    5169    5170    5165    5167    5166
    5167    5168    5169    5170    5171    5172    5173    5174    5168    5168
    5169    5170    5171    5172    5173    5174    5175    5176    5177    5178
    5179    5180    5181    5182    5170    5171    5172    5173    5174    5175
    5176    5177    5178    5183    5184    5185    5171    5172    5173    5174
    5179    5180    5181    5182    5186    5187    5188    5172    5175    5176
    5177    5178    5183    5184    5189    5190    5191    5192    5175    5176
    5177    5178    5183    5185    5189    5174    5179    5180    5181    5182
    5186    5187    5193    5179    5180    5181    5182    5186    5188    5193
    5176    5177    5183    5184    5185    5189    5190    5191    5192    5194
    5195    5196    5197    5198    5199    5183    5184    5178    5183    5184
    5185    5189    5190    5194    5183    5185    5180    5181    5186    5187
    5188    5193    5200    5186    5187    5182    5186    5187    5188    5193
    5200    5186    5188    5184    5185    5189    5190    5191    5192    5194
    5195    5201    5202    5189    5190    5191    5192    5194    5195    5196
    5197    5198    5199    5203    5204    5205    5206    5207    5208    5209
    5210    5189    5187    5188    5193    5200    5211    5212    5213    5193
    5193    5190    5191    5192    5194    5195    5201    5202    5203    5204
    5214    5191    5192    5194    5195    5196    5197    5198    5199    5201
    5202    5203    5204    5215    5192    5195    5196    5197    5198    5199
    5205    5206    5207    5210    5216    5217    5218    5195    5196    5197
    5198    5199    5207    5208    5209    5210    5219    5220    5221    5200
    5211    5212    5213    5195    5201    5202    5203    5214    5215    5201
    5203    5204    5214    5215    5222    5223    5197    5199    5205    5206
    5207    5216    5217    5224    5225    5226    5198    5199    5205    5206
    5207    5210    5217    5218    5220    5221    5226    5199    5208    5209
    5210    5219    5220    5227    5228    5229    5207    5208    5209    5210
    5217    5218    5220    5221    5229    5211    5212    5213    5202    5203
    5204    5214    5215    5222    5223    5203    5214    5204    5214    5215
    5222    5223    5230    5231    5232    5233    5215    5206    5207    5216
    5217    5218    5224    5225    5226    5234    5235    5236    5237    5216
    5217    5210    5216    5217    5218    5226    5209    5219    5220    5210
    5219    5220    5221    5227    5228    5229    5238    5239    5240    5241
    5219    5220    5221    5229    5212    5213    5213       0    5215    5222
    5223    5230    5231    5232    5233    5242    5243    5244    5245    5246
    5247    5248    5249    5217    5224    5225    5226    5234    5235    5236
    5237    5250    5251    5252    5253    5254    5255    5256    5257    5218
    5224    5225    5226    5226    5220    5227    5228    5229    5238    5239
    5240    5241    5258    5259    5260    5261    5262    5263    5264    5265
    5221    5227    5228    5229    5229    5223    5230    5231    5232    5233
    5242    5243    5244    5245    5266    5267    5268    5230    5231    5232
    5233    5246    5247    5248    5249    5269    5270    5271    5225    5234
    5235    5236    5237    5250    5251    5252    5253    5272    5273    5274
    5234    5235    5236    5237    5254    5255    5256    5257    5275    5276
    5277       0    5228    5238    5239    5240    5241    5258    5259    5260
    5261    5278    5279    5280    5238    5239    5240    5241    5262    5263
    5264    5265    5281    5282    5283       0    5231    5242    5243    5244
    5245    5266    5267    5284    5242    5243    5244    5245    5266    5268
    5284    5233    5246    5247    5248    5249    5269    5270    5285    5246
    5247    5248    5249    5269    5271    5285    5235    5250    5251    5252
    5253    5272    5273    5286    5250    5251    5252    5253    5273    5274
    5286    5237    5254    5255    5256    5257    5275    5276    5287    5254
    5255    5256    5257    5275    5277    5287    5239    5258    5259    5260
    5261    5278    5279    5288    5258    5259    5260    5261    5278    5280
    5288    5241    5262    5263    5264    5265    5281    5282    5289    5262
    5263    5264    5265    5281    5283    5289    5243    5244    5266    5267
    5268    5284    5290    5266    5267    5245    5266    5267    5268    5284
    5290    5266    5268    5247    5269    5270    5249    5269    5270    5271
    5285    5291    5249    5269    5271    5269    5270    5271    5285    5291
    5251    5252    5272    5273    5274    5286    5292    5272    5273    5253
    5272    5273    5274    5286    5292    5273    5274    5255    5256    5275
    5276    5277    5287    5293    5275    5276    5257    5275    5276    5277
    5287    5293    5275    5277    5259    5260    5278    5279    5280    5288
    5294    5278    5279    5261    5278    5279    5280    5288    5294    5278
    5280    5263    5264    5281    5282    5283    5289    5295    5281    5282
    5265    5281    5282    5283    5289    5295    5281    5283    5267    5268
    5284    5290    5296    5297    5298    5284    5284    5270    5271    5285
    5291    5299    5300    5301    5285    5285    5273    5286    5274    5286
    5292    5302    5303    5304    5286    5276    5277    5287    5293    5305
    5306    5307    5287    5287    5279    5280    5288    5294    5308    5309
    5310    5288    5288    5282    5283    5289    5295    5311    5312    5313
    5289    5289    5290    5296    5297    5298    5291    5299    5300    5301
    5292    5302    5303    5304    5293    5305    5306    5307    5294    5308
    5309    5310    5295    5311    5312    5313    5296    5297    5298    5299
    5300    5301    5302    5303    5304    5305    5306    5307    5308    5309
    5310    5311    5312    5313    5297    5298    5298       0    5300    5301
    5301       0    5303    5304    5304       0    5306    5307    5307       0
    5309    5310    5310       0    5312    5313    5313       0    5315    5316
    5317    5318    5319    5320    5321    5322    5323    5324    5325    5316
    5317    5318    5319    5320    5321    5322    5323    5324    5325    5326
    5327    5328    5317    5318    5319    5320    5321    5318    5322    5323
    5324    5325    5326    5327    5329    5322    5323    5324    5325    5326
    5328    5329    5320    5321    5321       0    5323    5324    5326    5327
    5328    5329    5330    5331    5326    5327    5325    5326    5327    5328
    5329    5330    5331    5326    5328    5327    5328    5329    5330    5331
    5332    5333    5334    5335    5329    5329    5330    5331    5332    5333
    5334    5335    5336    5337    5338    5339    5340    5341    5342    5343
    5331    5332    5333    5334    5335    5336    5337    5338    5339    5344
    5345    5346    5332    5333    5334    5335    5340    5341    5342    5343
    5347    5348    5349    5333    5336    5337    5338    5339    5344    5345
    5350    5351    5352    5353    5336    5337    5338    5339    5344    5346
    5350    5335    5340    5341    5342    5343    5347    5348    5354    5340
    5341    5342    5343    5347    5349    5354    5337    5338    5344    5345
    5346    5350    5351    5352    5353    5355    5356    5357    5358    5359
    5360    5344    5345    5339    5344    5345    5346    5350    5351    5355
    5344    5346    5341    5342    5347    5348    5349    5354    5361    5347
    5348    5343    5347    5348    5349    5354    5361    5347    5349    5345
    5346    5350    5351    5352    5353    5355    5356    5362    5363    5350
    5351    5352    5353    5355    5356    5357    5358    5359    5360    5364
    5365    5366    5367    5368    5369    5370    5371    5350    5348    5349
    5354    5361    5372    5373    5374    5354    5354    5351    5352    5353
    5355    5356    5362    5363    5364    5365    5375    5352    5353    5355
    5356    5357    5358    5359    5360    5362    5363    5364    5365    5376
    5353    5356    5357    5358    5359    5360    5366    5367    5368    5371
    5377    5378    5379    5356    5357    5358    5359    5360    5368    5369
    5370    5371    5380    5381    5382    5361    5372    5373    5374    5356
    5362    5363    5364    5375    5376    5362    5364    5365    5375    5376
    5383    5384    5358    5360    5366    5367    5368    5377    5378    5385
    5386    5387    5359    5360    5366    5367    5368    5371    5378    5379
    5381    5382    5387    5360    5369    5370    5371    5380    5381    5388
    5389    5390    5368    5369    5370    5371    5378    5379    5381    5382
    5390    5372    5373    5374    5363    5364    5365    5375    5376    5383
    5384    5364    5375    5365    5375    5376    5383    5384    5391    5392
    5393    5394    5376    5367    5368    5377    5378    5379    5385    5386
    5387    5395    5396    5397    5398    5377    5378    5371    5377    5378
    5379    5387    5370    5380    5381    5371    5380    5381    5382    5388
    5389    5390    5399    5400    5401    5402    5380    5381    5382    5390
    5373    5374    5374       0    5376    5383    5384    5391    5392    5393
    5394    5403    5404    5405    5406    5407    5408    5409    5410    5378
    5385    5386    5387    5395    5396    5397    5398    5411    5412    5413
    5414    5415    5416    5417    5418    5379    5385    5386    5387    5387
    5381    5388    5389    5390    5399    5400    5401    5402    5419    5420
    5421    5422    5423    5424    5425    5426    5382    5388    5389    5390
    5390    5384    5391    5392    5393    5394    5403    5404    5405    5406
    5427    5428    5429    5391    5392    5393    5394    5407    5408    5409
    5410    5430    5431    5432    5386    5395    5396    5397    5398    5411
    5412    5413    5414    5433    5434    5435    5395    5396    5397    5398
    5415    5416    5417    5418    5436    5437    5438       0    5389    5399
    5400    5401    5402    5419    5420    5421    5422    5439    5440    5441
    5399    5400    5401    5402    5423    5424    5425    5426    5442    5443
    5444       0    5392    5403    5404    5405    5406    5427    5428    5445
    5403    5404    5405    5406    5427    5429    5445    5394    5407    5408
    5409    5410    5430    5431    5446    5407    5408    5409    5410    5430
    5432    5446    5396    5411    5412    5413    5414    5433    5434    5447
    5411    5412    5413    5414    5434    5435    5447    5398    5415    5416
    5417    5418    5436    5437    5448    5415    5416    5417    5418    5436
    5438    5448    5400    5419    5420    5421    5422    5439    5440    5449
    5419    5420    5421    5422    5439    5441    5449    5402    5423    5424
    5425    5426    5442    5443    5450    5423    5424    5425    5426    5442
    5444    5450    5404    5405    5427    5428    5429    5445    5451    5427
    5428    5406    5427    5428    5429    5445    5451    5427    5429    5408
    5430    5431    5410    5430    5431    5432    5446    5452    5410    5430
    5432    5430    5431    5432    5446    5452    5412    5413    5433    5434
    5435    5447    5453    5433    5434    5414    5433    5434    5435    5447
    5453    5434    5435    5416    5417    5436    5437    5438    5448    5454
    5436    5437    5418    5436    5437    5438    5448    5454    5436    5438
    5420    5421    5439    5440    5441    5449    5455    5439    5440    5422
    5439    5440    5441    5449    5455    5439    5441    5424    5425    5442
    5443    5444    5450    5456    5442    5443    5426    5442    5443    5444
    5450    5456    5442    5444    5428    5429    5445    5451    5457    5458
    5459    5445    5445    5431    5432    5446    5452    5460    5461    5462
    5446    5446    5434    5447    5435    5447    5453    5463    5464    5465
    5447    5437    5438    5448    5454    5466    5467    5468    5448    5448
    5440    5441    5449    5455    5469    5470    5471    5449    5449    5443
    5444    5450    5456    5472    5473    5474    5450    5450    5451    5457
    5458    5459    5452    5460    5461    5462    5453    5463    5464    5465
    5454    5466    5467    5468    5455    5469    5470    5471    5456    5472
    5473    5474    5457    5458    5459    5460    5461    5462    5463    5464
    5465    5466    5467    5468    5469    5470    5471    5472    5473    5474
    5458    5459    5459       0    5461    5462    5462       0    5464    5465
    5465       0    5467    5468    5468       0    5470    5471    5471       0
    5473    5474    5474       0    5476    5477    5478    5479    5480    5481
    5482    5483    5484    5485    5486    5477    5478    5479    5480    5481
    5482    5483    5484    5485    5486    5487    5488    5489    5478    5479
    5480    5481    5482    5479    5483    5484    5485    5486    5487    5488
    5490    5483    5484    5485    5486    5487    5489    5490    5481    5482
    5482       0    5484    5485    5487    5488    5489    5490    5491    5492
    5487    5488    5486    5487    5488    5489    5490    5491    5492    5487
    5489    5488    5489    5490    5491    5492    5493    5494    5495    5496
    5490    5490    5491    5492    5493    5494    5495    5496    5497    5498
    5499    5500    5501    5502    5503    5504    5492    5493    5494    5495
    5496    5497    5498    5499    5500    5505    5506    5507    5493    5494
    5495    5496    5501    5502    5503    5504    5508    5509    5510    5494
    5497    5498    5499    5500    5505    5506    5511    5512    5513    5514
    5497    5498    5499    5500    5505    5507    5511    5496    5501    5502
    5503    5504    5508    5509    5515    5501    5502    5503    5504    5508
    5510    5515    5498    5499    5505    5506    5507    5511    5512    5513
    5514    5516    5517    5518    5519    5520    5521    5505    5506    5500
    5505    5506    5507    5511    5512    5516    5505    5507    5502    5503
    5508    5509    5510    5515    5522    5508    5509    5504    5508    5509
    5510    5515    5522    5508    5510    5506    5507    5511    5512    5513
    5514    5516    5517    5523    5524    5511    5512    5513    5514    5516
    5517    5518    5519    5520    5521    5525    5526    5527    5528    5529
    5530    5531    5532    5511    5509    5510    5515    5522    5533    5534
    5535    5515    5515    5512    5513    5514    5516    5517    5523    5524
    5525    5526    5536    5513    5514    5516    5517    5518    5519    5520
    5521    5523    5524    5525    5526    5537    5514    5517    5518    5519
    5520    5521    5527    5528    5529    5532    5538    5539    5540    5517
    5518    5519    5520    5521    5529    5530    5531    5532    5541    5542
    5543    5522    5533    5534    5535    5517    5523    5524    5525    5536
    5537    5523    5525    5526    5536    5537    5544    5545    5519    5521
    5527    5528    5529    5538    5539    5546    5547    5548    5520    5521
    5527    5528    5529    5532    5539    5540    5542    5543    5548    5521
    5530    5531    5532    5541    5542    5549    5550    5551    5529    5530
    5531    5532    5539    5540    5542    5543    5551    5533    5534    5535
    5524    5525    5526    5536    5537    5544    5545    5525    5536    5526
    5536    5537    5544    5545    5552    5553    5554    5555    5537    5528
    5529    5538    5539    5540    5546    5547    5548    5556    5557    5558
    5559    5538    5539    5532    5538    5539    5540    5548    5531    5541
    5542    5532    5541    5542    5543    5549    5550    5551    5560    5561
    5562    5563    5541    5542    5543    5551    5534    5535    5535       0
    5537    5544    5545    5552    5553    5554    5555    5564    5565    5566
    5567    5568    5569    5570    5571    5539    5546    5547    5548    5556
    5557    5558    5559    5572    5573    5574    5575    5576    5577    5578
    5579    5540    5546    5547    5548    5548    5542    5549    5550    5551
    5560    5561    5562    5563    5580    5581    5582    5583    5584    5585
    5586    5587    5543    5549    5550    5551    5551    5545    5552    5553
    5554    5555    5564    5565    5566    5567    5588    5589    5590    5552
    5553    5554    5555    5568    5569    5570    5571    5591    5592    5593
    5547    5556    5557    5558    5559    5572    5573    5574    5575    5594
    5595    5596    5556    5557    5558    5559    5576    5577    5578    5579
    5597    5598    5599       0    5550    5560    5561    5562    5563    5580
    5581    5582    5583    5600    5601    5602    5560    5561    5562    5563
    5584    5585    5586    5587    5603    5604    5605       0    5553    5564
    5565    5566    5567    5588    5589    5606    5564    5565    5566    5567
    5588    5590    5606    5555    5568    5569    5570    5571    5591    5592
    5607    5568    5569    5570    5571    5591    5593    5607    5557    5572
    5573    5574    5575    5594    5595    5608    5572    5573    5574    5575
    5595    5596    5608    5559    5576    5577    5578    5579    5597    5598
    5609    5576    5577    5578    5579    5597    5599    5609    5561    5580
    5581    5582    5583    5600    5601    5610    5580    5581    5582    5583
    5600    5602    5610    5563    5584    5585    5586    5587    5603    5604
    5611    5584    5585    5586    5587    5603    5605    5611    5565    5566
    5588    5589    5590    5606    5612    5588    5589    5567    5588    5589
    5590    5606    5612    5588    5590    5569    5591    5592    5571    5591
    5592    5593    5607    5613    5571    5591    5593    5591    5592    5593
    5607    5613    5573    5574    5594    5595    5596    5608    5614    5594
    5595    5575    5594    5595    5596    5608    5614    5595    5596    5577
    5578    5597    5598    5599    5609    5615    5597    5598    5579    5597
    5598    5599    5609    5615    5597    5599    5581    5582    5600    5601
    5602    5610    5616    5600    5601    5583    5600    5601    5602    5610
    5616    5600    5602    5585    5586    5603    5604    5605    5611    5617
    5603    5604    5587    5603    5604    5605    5611    5617    5603    5605
    5589    5590    5606    5612    5618    5619    5620    5606    5606    5592
    5593    5607    5613    5621    5622    5623    5607    5607    5595    5608
    5596    5608    5614    5624    5625    5626    5608    5598    5599    5609
    5615    5627    5628    5629    5609    5609    5601    5602    5610    5616
    5630    5631    5632    5610    5610    5604    5605    5611    5617    5633
    5634    5635    5611    5611    5612    5618    5619    5620    5613    5621
    5622    5623    5614    5624    5625    5626    5615    5627    5628    5629
    5616    5630    5631    5632    5617    5633    5634    5635    5618    5619
    5620    5621    5622    5623    5624    5625    5626    5627    5628    5629
    5630    5631    5632    5633    5634    5635    5619    5620    5620       0
    5622    5623    5623       0    5625    5626    5626       0    5628    5629
    5629       0    5631    5632    5632       0    5634    5635    5635       0
    5637    5638    5639    5640    5641    5642    5643    5644    5645    5646
    5647    5638    5639    5640    5641    5642    5643    5644    5645    5646
    5647    5648    5649    5650    5639    5640    5641    5642    5643    5640
    5644    5645    5646    5647    5648    5649    5651    5644    5645    5646
    5647    5648    5650    5651    5642    5643    5643       0    5645    5646
    5648    5649    5650    5651    5652    5653    5648    5649    5647    5648
    5649    5650    5651    5652    5653    5648    5650    5649    5650    5651
    5652    5653    5654    5655    5656    5657    5651    5651    5652    5653
    5654    5655    5656    5657    5658    5659    5660    5661    5662    5663
    5664    5665    5653    5654    5655    5656    5657    5658    5659    5660
    5661    5666    5667    5668    5654    5655    5656    5657    5662    5663
    5664    5665    5669    5670    5671    5655    5658    5659    5660    5661
    5666    5667    5672    5673    5674    5675    5658    5659    5660    5661
    5666    5668    5672    5657    5662    5663    5664    5665    5669    5670
    5676    5662    5663    5664    5665    5669    5671    5676    5659    5660
    5666    5667    5668    5672    5673    5674    5675    5677    5678    5679
    5680    5681    5682    5666    5667    5661    5666    5667    5668    5672
    5673    5677    5666    5668    5663    5664    5669    5670    5671    5676
    5683    5669    5670    5665    5669    5670    5671    5676    5683    5669
    5671    5667    5668    5672    5673    5674    5675    5677    5678    5684
    5685    5672    5673    5674    5675    5677    5678    5679    5680    5681
    5682    5686    5687    5688    5689    5690    5691    5692    5693    5672
    5670    5671    5676    5683    5694    5695    5696    5676    5676    5673
    5674    5675    5677    5678    5684    5685    5686    5687    5697    5674
    5675    5677    5678    5679    5680    5681    5682    5684    5685    5686
    5687    5698    5675    5678    5679    5680    5681    5682    5688    5689
    5690    5693    5699    5700    5701    5678    5679    5680    5681    5682
    5690    5691    5692    5693    5702    5703    5704    5683    5694    5695
    5696    5678    5684    5685    5686    5697    5698    5684    5686    5687
    5697    5698    5705    5706    5680    5682    5688    5689    5690    5699
    5700    5707    5708    5709    5681    5682    5688    5689    5690    5693
    5700    5701    5703    5704    5709    5682    5691    5692    5693    5702
    5703    5710    5711    5712    5690    5691    5692    5693    5700    5701
    5703    5704    5712    5694    5695    5696    5685    5686    5687    5697
    5698    5705    5706    5686    5697    5687    5697    5698    5705    5706
    5713    5714    5715    5716    5698    5689    5690    5699    5700    5701
    5707    5708    5709    5717    5718    5719    5720    5699    5700    5693
    5699    5700    5701    5709    5692    5702    5703    5693    5702    5703
    5704    5710    5711    5712    5721    5722    5723    5724    5702    5703
    5704    5712    5695    5696    5696       0    5698    5705    5706    5713
    5714    5715    5716    5725    5726    5727    5728    5729    5730    5731
    5732    5700    5707    5708    5709    5717    5718    5719    5720    5733
    5734    5735    5736    5737    5738    5739    5740    5701    5707    5708
    5709    5709    5703    5710    5711    5712    5721    5722    5723    5724
    5741    5742    5743    5744    5745    5746    5747    5748    5704    5710
    5711    5712    5712    5706    5713    5714    5715    5716    5725    5726
    5727    5728    5749    5750    5751    5713    5714    5715    5716    5729
    5730    5731    5732    5752    5753    5754    5708    5717    5718    5719
    5720    5733    5734    5735    5736    5755    5756    5757    5717    5718
    5719    5720    5737    5738    5739    5740    5758    5759    5760       0
    5711    5721    5722    5723    5724    5741    5742    5743    5744    5761
    5762    5763    5721    5722    5723    5724    5745    5746    5747    5748
    5764    5765    5766       0    5714    5725    5726    5727    5728    5749
    5750    5767    5725    5726    5727    5728    5749    5751    5767    5716
    5729    5730    5731    5732    5752    5753    5768    5729    5730    5731
    5732    5752    5754    5768    5718    5733    5734    5735    5736    5755
    5756    5769    5733    5734    5735    5736    5756    5757    5769    5720
    5737    5738    5739    5740    5758    5759    5770    5737    5738    5739
    5740    5758    5760    5770    5722    5741    5742    5743    5744    5761
    5762    5771    5741    5742    5743    5744    5761    5763    5771    5724
    5745    5746    5747    5748    5764    5765    5772    5745    5746    5747
    5748    5764    5766    5772    5726    5727    5749    5750    5751    5767
    5773    5749    5750    5728    5749    5750    5751    5767    5773    5749
    5751    5730    5752    5753    5732    5752    5753    5754    5768    5774
    5732    5752    5754    5752    5753    5754    5768    5774    5734    5735
    5755    5756    5757    5769    5775    5755    5756    5736    5755    5756
    5757    5769    5775    5756    5757    5738    5739    5758    5759    5760
    5770    5776    5758    5759    5740    5758    5759    5760    5770    5776
    5758    5760    5742    5743    5761    5762    5763    5771    5777    5761
    5762    5744    5761    5762    5763    5771    5777    5761    5763    5746
    5747    5764    5765    5766    5772    5778    5764    5765    5748    5764
    5765    5766    5772    5778    5764    5766    5750    5751    5767    5773
    5779    5780    5781    5767    5767    5753    5754    5768    5774    5782
    5783    5784    5768    5768    5756    5769    5757    5769    5775    5785
    5786    5787    5769    5759    5760    5770    5776    5788    5789    5790
    5770    5770    5762    5763    5771    5777    5791    5792    5793    5771
    5771    5765    5766    5772    5778    5794    5795    5796    5772    5772
    5773    5779    5780    5781    5774    5782    5783    5784    5775    5785
    5786    5787    5776    5788    5789    5790    5777    5791    5792    5793
    5778    5794    5795    5796    5779    5780    5781    5782    5783    5784
    5785    5786    5787    5788    5789    5790    5791    5792    5793    5794
    5795    5796    5780    5781    5781       0    5783    5784    5784       0
    5786    5787    5787       0    5789    5790    5790       0    5792    5793
    5793       0    5795    5796    5796       0    5798    5799    5800    5801
    5802    5803    5804    5805    5806    5807    5808    5799    5800    5801
    5802    5803    5804    5805    5806    5807    5808    5809    5810    5811
    5800    5801    5802    5803    5804    5801    5805    5806    5807    5808
    5809    5810    5812    5805    5806    5807    5808    5809    5811    5812
    5803    5804    5804       0    5806    5807    5809    5810    5811    5812
    5813    5814    5809    5810    5808    5809    5810    5811    5812    5813
    5814    5809    5811    5810    5811    5812    5813    5814    5815    5816
    5817    5818    5812    5812    5813    5814    5815    5816    5817    5818
    5819    5820    5821    5822    5823    5824    5825    5826    5814    5815
    5816    5817    5818    5819    5820    5821    5822    5827    5828    5829
    5815    5816    5817    5818    5823    5824    5825    5826    5830    5831
    5832    5816    5819    5820    5821    5822    5827    5828    5833    5834
    5835    5836    5819    5820    5821    5822    5827    5829    5833    5818
    5823    5824    5825    5826    5830    5831    5837    5823    5824    5825
    5826    5830    5832    5837    5820    5821    5827    5828    5829    5833
    5834    5835    5836    5838    5839    5840    5841    5842    5843    5827
    5828    5822    5827    5828    5829    5833    5834    5838    5827    5829
    5824    5825    5830    5831    5832    5837    5844    5830    5831    5826
    5830    5831    5832    5837    5844    5830    5832    5828    5829    5833
    5834    5835    5836    5838    5839    5845    5846    5833    5834    5835
    5836    5838    5839    5840    5841    5842    5843    5847    5848    5849
    5850    5851    5852    5853    5854    5833    5831    5832    5837    5844
    5855    5856    5857    5837    5837    5834    5835    5836    5838    5839
    5845    5846    5847    5848    5858    5835    5836    5838    5839    5840
    5841    5842    5843    5845    5846    5847    5848    5859    5836    5839
    5840    5841    5842    5843    5849    5850    5851    5854    5860    5861
    5862    5839    5840    5841    5842    5843    5851    5852    5853    5854
    5863    5864    5865    5844    5855    5856    5857    5839    5845    5846
    5847    5858    5859    5845    5847    5848    5858    5859    5866    5867
    5841    5843    5849    5850    5851    5860    5861    5868    5869    5870
    5842    5843    5849    5850    5851    5854    5861    5862    5864    5865
    5870    5843    5852    5853    5854    5863    5864    5871    5872    5873
    5851    5852    5853    5854    5861    5862    5864    5865    5873    5855
    5856    5857    5846    5847    5848    5858    5859    5866    5867    5847
    5858    5848    5858    5859    5866    5867    5874    5875    5876    5877
    5859    5850    5851    5860    5861    5862    5868    5869    5870    5878
    5879    5880    5881    5860    5861    5854    5860    5861    5862    5870
    5853    5863    5864    5854    5863    5864    5865    5871    5872    5873
    5882    5883    5884    5885    5863    5864    5865    5873    5856    5857
    5857       0    5859    5866    5867    5874    5875    5876    5877    5886
    5887    5888    5889    5890    5891    5892    5893    5861    5868    5869
    5870    5878    5879    5880    5881    5894    5895    5896    5897    5898
    5899    5900    5901    5862    5868    5869    5870    5870    5864    5871
    5872    5873    5882    5883    5884    5885    5902    5903    5904    5905
    5906    5907    5908    5909    5865    5871    5872    5873    5873    5867
    5874    5875    5876    5877    5886    5887    5888    5889    5910    5911
    5912    5874    5875    5876    5877    5890    5891    5892    5893    5913
    5914    5915    5869    5878    5879    5880    5881    5894    5895    5896
    5897    5916    5917    5918    5878    5879    5880    5881    5898    5899
    5900    5901    5919    5920    5921       0    5872    5882    5883    5884
    5885    5902    5903    5904    5905    5922    5923    5924    5882    5883
    5884    5885    5906    5907    5908    5909    5925    5926    5927       0
    5875    5886    5887    5888    5889    5910    5911    5928    5886    5887
    5888    5889    5910    5912    5928    5877    5890    5891    5892    5893
    5913    5914    5929    5890    5891    5892    5893    5913    5915    5929
    5879    5894    5895    5896    5897    5916    5917    5930    5894    5895
    5896    5897    5917    5918    5930    5881    5898    5899    5900    5901
    5919    5920    5931    5898    5899    5900    5901    5919    5921    5931
    5883    5902    5903    5904    5905    5922    5923    5932    5902    5903
    5904    5905    5922    5924    5932    5885    5906    5907    5908    5909
    5925    5926    5933    5906    5907    5908    5909    5925    5927    5933
    5887    5888    5910    5911    5912    5928    5934    5910    5911    5889
    5910    5911    5912    5928    5934    5910    5912    5891    5913    5914
    5893    5913    5914    5915    5929    5935    5893    5913    5915    5913
    5914    5915    5929    5935    5895    5896    5916    5917    5918    5930
    5936    5916    5917    5897    5916    5917    5918    5930    5936    5917
    5918    5899    5900    5919    5920    5921    5931    5937    5919    5920
    5901    5919    5920    5921    5931    5937    5919    5921    5903    5904
    5922    5923    5924    5932    5938    5922    5923    5905    5922    5923
    5924    5932    5938    5922    5924    5907    5908    5925    5926    5927
    5933    5939    5925    5926    5909    5925    5926    5927    5933    5939
    5925    5927    5911    5912    5928    5934    5940    5941    5942    5928
    5928    5914    5915    5929    5935    5943    5944    5945    5929    5929
    5917    5930    5918    5930    5936    5946    5947    5948    5930    5920
    5921    5931    5937    5949    5950    5951    5931    5931    5923    5924
    5932    5938    5952    5953    5954    5932    5932    5926    5927    5933
    5939    5955    5956    5957    5933    5933    5934    5940    5941    5942
    5935    5943    5944    5945    5936    5946    5947    5948    5937    5949
    5950    5951    5938    5952    5953    5954    5939    5955    5956    5957
    5940    5941    5942    5943    5944    5945    5946    5947    5948    5949
    5950    5951    5952    5953    5954    5955    5956    5957    5941    5942
    5942       0    5944    5945    5945       0    5947    5948    5948       0
    5950    5951    5951       0    5953    5954    5954       0    5956    5957
    5957       0    5959    5960    5961    5962    5963    5964    5965    5966
    5967    5968    5969    5960    5961    5962    5963    5964    5965    5966
    5967    5968    5969    5970    5971    5972    5961    5962    5963    5964
    5965    5962    5966    5967    5968    5969    5970    5971    5973    5966
    5967    5968    5969    5970    5972    5973    5964    5965    5965       0
    5967    5968    5970    5971    5972    5973    5974    5975    5970    5971
    5969    5970    5971    5972    5973    5974    5975    5970    5972    5971
    5972    5973    5974    5975    5976    5977    5978    5979    5973    5973
    5974    5975    5976    5977    5978    5979    5980    5981    5982    5983
    5984    5985    5986    5987    5975    5976    5977    5978    5979    5980
    5981    5982    5983    5988    5989    5990    5976    5977    5978    5979
    5984    5985    5986    5987    5991    5992    5993    5977    5980    5981
    5982    5983    5988    5989    5994    5995    5996    5997    5980    5981
    5982    5983    5988    5990    5994    5979    5984    5985    5986    5987
    5991    5992    5998    5984    5985    5986    5987    5991    5993    5998
    5981    5982    5988    5989    5990    5994    5995    5996    5997    5999
    6000    6001    6002    6003    6004    5988    5989    5983    5988    5989
    5990    5994    5995    5999    5988    5990    5985    5986    5991    5992
    5993    5998    6005    5991    5992    5987    5991    5992    5993    5998
    6005    5991    5993    5989    5990    5994    5995    5996    5997    5999
    6000    6006    6007    5994    5995    5996    5997    5999    6000    6001
    6002    6003    6004    6008    6009    6010    6011    6012    6013    6014
    6015    5994    5992    5993    5998    6005    6016    6017    6018    5998
    5998    5995    5996    5997    5999    6000    6006    6007    6008    6009
    6019    5996    5997    5999    6000    6001    6002    6003    6004    6006
    6007    6008    6009    6020    5997    6000    6001    6002    6003    6004
    6010    6011    6012    6015    6021    6022    6023    6000    6001    6002
    6003    6004    6012    6013    6014    6015    6024    6025    6026    6005
    6016    6017    6018    6000    6006    6007    6008    6019    6020    6006
    6008    6009    6019    6020    6027    6028    6002    6004    6010    6011
    6012    6021    6022    6029    6030    6031    6003    6004    6010    6011
    6012    6015    6022    6023    6025    6026    6031    6004    6013    6014
    6015    6024    6025    6032    6033    6034    6012    6013    6014    6015
    6022    6023    6025    6026    6034    6016    6017    6018    6007    6008
    6009    6019    6020    6027    6028    6008    6019    6009    6019    6020
    6027    6028    6035    6036    6037    6038    6020    6011    6012    6021
    6022    6023    6029    6030    6031    6039    6040    6041    6042    6021
    6022    6015    6021    6022    6023    6031    6014    6024    6025    6015
    6024    6025    6026    6032    6033    6034    6043    6044    6045    6046
    6024    6025    6026    6034    6017    6018    6018       0    6020    6027
    6028    6035    6036    6037    6038    6047    6048    6049    6050    6051
    6052    6053    6054    6022    6029    6030    6031    6039    6040    6041
    6042    6055    6056    6057    6058    6059    6060    6061    6062    6023
    6029    6030    6031    6031    6025    6032    6033    6034    6043    6044
    6045    6046    6063    6064    6065    6066    6067    6068    6069    6070
    6026    6032    6033    6034    6034    6028    6035    6036    6037    6038
    6047    6048    6049    6050    6071    6072    6073    6035    6036    6037
    6038    6051    6052    6053    6054    6074    6075    6076    6030    6039
    6040    6041    6042    6055    6056    6057    6058    6077    6078    6079
    6039    6040    6041    6042    6059    6060    6061    6062    6080    6081
    6082       0    6033    6043    6044    6045    6046    6063    6064    6065
    6066    6083    6084    6085    6043    6044    6045    6046    6067    6068
    6069    6070    6086    6087    6088       0    6036    6047    6048    6049
    6050    6071    6072    6089    6047    6048    6049    6050    6071    6073
    6089    6038    6051    6052    6053    6054    6074    6075    6090    6051
    6052    6053    6054    6074    6076    6090    6040    6055    6056    6057
    6058    6077    6078    6091    6055    6056    6057    6058    6078    6079
    6091    6042    6059    6060    6061    6062    6080    6081    6092    6059
    6060    6061    6062    6080    6082    6092    6044    6063    6064    6065
    6066    6083    6084    6093    6063    6064    6065    6066    6083    6085
    6093    6046    6067    6068    6069    6070    6086    6087    6094    6067
    6068    6069    6070    6086    6088    6094    6048    6049    6071    6072
    6073    6089    6095    6071    6072    6050    6071    6072    6073    6089
    6095    6071    6073    6052    6074    6075    6054    6074    6075    6076
    6090    6096    6054    6074    6076    6074    6075    6076    6090    6096
    6056    6057    6077    6078    6079    6091    6097    6077    6078    6058
    6077    6078    6079    6091    6097    6078    6079    6060    6061    6080
    6081    6082    6092    6098    6080    6081    6062    6080    6081    6082
    6092    6098    6080    6082    6064    6065    6083    6084    6085    6093
    6099    6083    6084    6066    6083    6084    6085    6093    6099    6083
    6085    6068    6069    6086    6087    6088    6094    6100    6086    6087
    6070    6086    6087    6088    6094    6100    6086    6088    6072    6073
    6089    6095    6101    6102    6103    6089    6089    6075    6076    6090
    6096    6104    6105    6106    6090    6090    6078    6091    6079    6091
    6097    6107    6108    6109    6091    6081    6082    6092    6098    6110
    6111    6112    6092    6092    6084    6085    6093    6099    6113    6114
    6115    6093    6093    6087    6088    6094    6100    6116    6117    6118
    6094    6094    6095    6101    6102    6103    6096    6104    6105    6106
    6097    6107    6108    6109    6098    6110    6111    6112    6099    6113
    6114    6115    6100    6116    6117    6118    6101    6102    6103    6104
    6105    6106    6107    6108    6109    6110    6111    6112    6113    6114
    6115    6116    6117    6118    6102    6103    6103       0    6105    6106
    6106       0    6108    6109    6109       0    6111    6112    6112       0
    6114    6115    6115       0    6117    6118    6118       0    6120    6121
    6122    6123    6124    6125    6126    6127    6128    6129    6130    6121
    6122    6123    6124    6125    6126    6127    6128    6129    6130    6131
    6132    6133    6122    6123    6124    6125    6126    6123    6127    6128
    6129    6130    6131    6132    6134    6127    6128    6129    6130    6131
    6133    6134    6125    6126    6126       0    6128    6129    6131    6132
    6133    6134    6135    6136    6131    6132    6130    6131    6132    6133
    6134    6135    6136    6131    6133    6132    6133    6134    6135    6136
    6137    6138    6139    6140    6134    6134    6135    6136    6137    6138
    6139    6140    6141    6142    6143    6144    6145    6146    6147    6148
    6136    6137    6138    6139    6140    6141    6142    6143    6144    6149
    6150    6151    6137    6138    6139    6140    6145    6146    6147    6148
    6152    6153    6154    6138    6141    6142    6143    6144    6149    6150
    6155    6156    6157    6158    6141    6142    6143    6144    6149    6151
    6155    6140    6145    6146    6147    6148    6152    6153    6159    6145
    6146    6147    6148    6152    6154    6159    6142    6143    6149    6150
    6151    6155    6156    6157    6158    6160    6161    6162    6163    6164
    6165    6149    6150    6144    6149    6150    6151    6155    6156    6160
    6149    6151    6146    6147    6152    6153    6154    6159    6166    6152
    6153    6148    6152    6153    6154    6159    6166    6152    6154    6150
    6151    6155    6156    6157    6158    6160    6161    6167    6168    6155
    6156    6157    6158    6160    6161    6162    6163    6164    6165    6169
    6170    6171    6172    6173    6174    6175    6176    6155    6153    6154
    6159    6166    6177    6178    6179    6159    6159    6156    6157    6158
    6160    6161    6167    6168    6169    6170    6180    6157    6158    6160
    6161    6162    6163    6164    6165    6167    6168    6169    6170    6181
    6158    6161    6162    6163    6164    6165    6171    6172    6173    6176
    6182    6183    6184    6161    6162    6163    6164    6165    6173    6174
    6175    6176    6185    6186    6187    6166    6177    6178    6179    6161
    6167    6168    6169    6180    6181    6167    6169    6170    6180    6181
    6188    6189    6163    6165    6171    6172    6173    6182    6183    6190
    6191    6192    6164    6165    6171    6172    6173    6176    6183    6184
    6186    6187    6192    6165    6174    6175    6176    6185    6186    6193
    6194    6195    6173    6174    6175    6176    6183    6184    6186    6187
    6195    6177    6178    6179    6168    6169    6170    6180    6181    6188
    6189    6169    6180    6170    6180    6181    6188    6189    6196    6197
    6198    6199    6181    6172    6173    6182    6183    6184    6190    6191
    6192    6200    6201    6202    6203    6182    6183    6176    6182    6183
    6184    6192    6175    6185    6186    6176    6185    6186    6187    6193
    6194    6195    6204    6205    6206    6207    6185    6186    6187    6195
    6178    6179    6179       0    6181    6188    6189    6196    6197    6198
    6199    6208    6209    6210    6211    6212    6213    6214    6215    6183
    6190    6191    6192    6200    6201    6202    6203    6216    6217    6218
    6219    6220    6221    6222    6223    6184    6190    6191    6192    6192
    6186    6193    6194    6195    6204    6205    6206    6207    6224    6225
    6226    6227    6228    6229    6230    6231    6187    6193    6194    6195
    6195    6189    6196    6197    6198    6199    6208    6209    6210    6211
    6232    6233    6234    6196    6197    6198    6199    6212    6213    6214
    6215    6235    6236    6237    6191    6200    6201    6202    6203    6216
    6217    6218    6219    6238    6239    6240    6200    6201    6202    6203
    6220    6221    6222    6223    6241    6242    6243       0    6194    6204
    6205    6206    6207    6224    6225    6226    6227    6244    6245    6246
    6204    6205    6206    6207    6228    6229    6230    6231    6247    6248
    6249       0    6197    6208    6209    6210    6211    6232    6233    6250
    6208    6209    6210    6211    6232    6234    6250    6199    6212    6213
    6214    6215    6235    6236    6251    6212    6213    6214    6215    6235
    6237    6251    6201    6216    6217    6218    6219    6238    6239    6252
    6216    6217    6218    6219    6239    6240    6252    6203    6220    6221
    6222    6223    6241    6242    6253    6220    6221    6222    6223    6241
    6243    6253    6205    6224    6225    6226    6227    6244    6245    6254
    6224    6225    6226    6227    6244    6246    6254    6207    6228    6229
    6230    6231    6247    6248    6255    6228    6229    6230    6231    6247
    6249    6255    6209    6210    6232    6233    6234    6250    6256    6232
    6233    6211    6232    6233    6234    6250    6256    6232    6234    6213
    6235    6236    6215    6235    6236    6237    6251    6257    6215    6235
    6237    6235    6236    6237    6251    6257    6217    6218    6238    6239
    6240    6252    6258    6238    6239    6219    6238    6239    6240    6252
    6258    6239    6240    6221    6222    6241    6242    6243    6253    6259
    6241    6242    6223    6241    6242    6243    6253    6259    6241    6243
    6225    6226    6244    6245    6246    6254    6260    6244    6245    6227
    6244    6245    6246    6254    6260    6244    6246    6229    6230    6247
    6248    6249    6255    6261    6247    6248    6231    6247    6248    6249
    6255    6261    6247    6249    6233    6234    6250    6256    6262    6263
    6264    6250    6250    6236    6237    6251    6257    6265    6266    6267
    6251    6251    6239    6252    6240    6252    6258    6268    6269    6270
    6252    6242    6243    6253    6259    6271    6272    6273    6253    6253
    6245    6246    6254    6260    6274    6275    6276    6254    6254    6248
    6249    6255    6261    6277    6278    6279    6255    6255    6256    6262
    6263    6264    6257    6265    6266    6267    6258    6268    6269    6270
    6259    6271    6272    6273    6260    6274    6275    6276    6261    6277
    6278    6279    6262    6263    6264    6265    6266    6267    6268    6269
    6270    6271    6272    6273    6274    6275    6276    6277    6278    6279
    6263    6264    6264       0    6266    6267    6267       0    6269    6270
    6270       0    6272    6273    6273       0    6275    6276    6276       0
    6278    6279    6279       0    6281    6282    6283    6284    6285    6286
    6287    6288    6289    6290    6291    6282    6283    6284    6285    6286
    6287    6288    6289    6290    6291    6292    6293    6294    6283    6284
    6285    6286    6287    6284    6288    6289    6290    6291    6292    6293
    6295    6288    6289    6290    6291    6292    6294    6295    6286    6287
    6287       0    6289    6290    6292    6293    6294    6295    6296    6297
    6292    6293    6291    6292    6293    6294    6295    6296    6297    6292
    6294    6293    6294    6295    6296    6297    6298    6299    6300    6301
    6295    6295    6296    6297    6298    6299    6300    6301    6302    6303
    6304    6305    6306    6307    6308    6309    6297    6298    6299    6300
    6301    6302    6303    6304    6305    6310    6311    6312    6298    6299
    6300    6301    6306    6307    6308    6309    6313    6314    6315    6299
    6302    6303    6304    6305    6310    6311    6316    6317    6318    6319
    6302    6303    6304    6305    6310    6312    6316    6301    6306    6307
    6308    6309    6313    6314    6320    6306    6307    6308    6309    6313
    6315    6320    6303    6304    6310    6311    6312    6316    6317    6318
    6319    6321    6322    6323    6324    6325    6326    6310    6311    6305
    6310    6311    6312    6316    6317    6321    6310    6312    6307    6308
    6313    6314    6315    6320    6327    6313    6314    6309    6313    6314
    6315    6320    6327    6313    6315    6311    6312    6316    6317    6318
    6319    6321    6322    6328    6329    6316    6317    6318    6319    6321
    6322    6323    6324    6325    6326    6330    6331    6332    6333    6334
    6335    6336    6337    6316    6314    6315    6320    6327    6338    6339
    6340    6320    6320    6317    6318    6319    6321    6322    6328    6329
    6330    6331    6341    6318    6319    6321    6322    6323    6324    6325
    6326    6328    6329    6330    6331    6342    6319    6322    6323    6324
    6325    6326    6332    6333    6334    6337    6343    6344    6345    6322
    6323    6324    6325    6326    6334    6335    6336    6337    6346    6347
    6348    6327    6338    6339    6340    6322    6328    6329    6330    6341
    6342    6328    6330    6331    6341    6342    6349    6350    6324    6326
    6332    6333    6334    6343    6344    6351    6352    6353    6325    6326
    6332    6333    6334    6337    6344    6345    6347    6348    6353    6326
    6335    6336    6337    6346    6347    6354    6355    6356    6334    6335
    6336    6337    6344    6345    6347    6348    6356    6338    6339    6340
    6329    6330    6331    6341    6342    6349    6350    6330    6341    6331
    6341    6342    6349    6350    6357    6358    6359    6360    6342    6333
    6334    6343    6344    6345    6351    6352    6353    6361    6362    6363
    6364    6343    6344    6337    6343    6344    6345    6353    6336    6346
    6347    6337    6346    6347    6348    6354    6355    6356    6365    6366
    6367    6368    6346    6347    6348    6356    6339    6340    6340       0
    6342    6349    6350    6357    6358    6359    6360    6369    6370    6371
    6372    6373    6374    6375    6376    6344    6351    6352    6353    6361
    6362    6363    6364    6377    6378    6379    6380    6381    6382    6383
    6384    6345    6351    6352    6353    6353    6347    6354    6355    6356
    6365    6366    6367    6368    6385    6386    6387    6388    6389    6390
    6391    6392    6348    6354    6355    6356    6356    6350    6357    6358
    6359    6360    6369    6370    6371    6372    6393    6394    6395    6357
    6358    6359    6360    6373    6374    6375    6376    6396    6397    6398
    6352    6361    6362    6363    6364    6377    6378    6379    6380    6399
    6400    6401    6361    6362    6363    6364    6381    6382    6383    6384
    6402    6403    6404       0    6355    6365    6366    6367    6368    6385
    6386    6387    6388    6405    6406    6407    6365    6366    6367    6368
    6389    6390    6391    6392    6408    6409    6410       0    6358    6369
    6370    6371    6372    6393    6394    6411    6369    6370    6371    6372
    6393    6395    6411    6360    6373    6374    6375    6376    6396    6397
    6412    6373    6374    6375    6376    6396    6398    6412    6362    6377
    6378    6379    6380    6399    6400    6413    6377    6378    6379    6380
    6400    6401    6413    6364    6381    6382    6383    6384    6402    6403
    6414    6381    6382    6383    6384    6402    6404    6414    6366    6385
    6386    6387    6388    6405    6406    6415    6385    6386    6387    6388
    6405    6407    6415    6368    6389    6390    6391    6392    6408    6409
    6416    6389    6390    6391    6392    6408    6410    6416    6370    6371
    6393    6394    6395    6411    6417    6393    6394    6372    6393    6394
    6395    6411    6417    6393    6395    6374    6396    6397    6376    6396
    6397    6398    6412    6418    6376    6396    6398    6396    6397    6398
    6412    6418    6378    6379    6399    6400    6401    6413    6419    6399
    6400    6380    6399    6400    6401    6413    6419    6400    6401    6382
    6383    6402    6403    6404    6414    6420    6402    6403    6384    6402
    6403    6404    6414    6420    6402    6404    6386    6387    6405    6406
    6407    6415    6421    6405    6406    6388    6405    6406    6407    6415
    6421    6405    6407    6390    6391    6408    6409    6410    6416    6422
    6408    6409    6392    6408    6409    6410    6416    6422    6408    6410
    6394    6395    6411    6417    6423    6424    6425    6411    6411    6397
    6398    6412    6418    6426    6427    6428    6412    6412    6400    6413
    6401    6413    6419    6429    6430    6431    6413    6403    6404    6414
    6420    6432    6433    6434    6414    6414    6406    6407    6415    6421
    6435    6436    6437    6415    6415    6409    6410    6416    6422    6438
    6439    6440    6416    6416    6417    6423    6424    6425    6418    6426
    6427    6428    6419    6429    6430    6431    6420    6432    6433    6434
    6421    6435    6436    6437    6422    6438    6439    6440    6423    6424
    6425    6426    6427    6428    6429    6430    6431    6432    6433    6434
    6435    6436    6437    6438    6439    6440    6424    6425    6425       0
    6427    6428    6428       0    6430    6431    6431       0    6433    6434
    6434       0    6436    6437    6437       0    6439    6440    6440       0
    6442    6443    6444    6445    6446    6447    6448    6449    6450    6451
    6452    6443    6444    6445    6446    6447    6448    6449    6450    6451
    6452    6453    6454    6455    6444    6445    6446    6447    6448    6445
    6449    6450    6451    6452    6453    6454    6456    6449    6450    6451
    6452    6453    6455    6456    6447    6448    6448       0    6450    6451
    6453    6454    6455    6456    6457    6458    6453    6454    6452    6453
    6454    6455    6456    6457    6458    6453    6455    6454    6455    6456
    6457    6458    6459    6460    6461    6462    6456    6456    6457    6458
    6459    6460    6461    6462    6463    6464    6465    6466    6467    6468
    6469    6470    6458    6459    6460    6461    6462    6463    6464    6465
    6466    6471    6472    6473    6459    6460    6461    6462    6467    6468
    6469    6470    6474    6475    6476    6460    6463    6464    6465    6466
    6471    6472    6477    6478    6479    6480    6463    6464    6465    6466
    6471    6473    6477    6462    6467    6468    6469    6470    6474    6475
    6481    6467    6468    6469    6470    6474    6476    6481    6464    6465
    6471    6472    6473    6477    6478    6479    6480    6482    6483    6484
    6485    6486    6487    6471    6472    6466    6471    6472    6473    6477
    6478    6482    6471    6473    6468    6469    6474    6475    6476    6481
    6488    6474    6475    6470    6474    6475    6476    6481    6488    6474
    6476    6472    6473    6477    6478    6479    6480    6482    6483    6489
    6490    6477    6478    6479    6480    6482    6483    6484    6485    6486
    6487    6491    6492    6493    6494    6495    6496    6497    6498    6477
    6475    6476    6481    6488    6499    6500    6501    6481    6481    6478
    6479    6480    6482    6483    6489    6490    6491    6492    6502    6479
    6480    6482    6483    6484    6485    6486    6487    6489    6490    6491
    6492    6503    6480    6483    6484    6485    6486    6487    6493    6494
    6495    6498    6504    6505    6506    6483    6484    6485    6486    6487
    6495    6496    6497    6498    6507    6508    6509    6488    6499    6500
    6501    6483    6489    6490    6491    6502    6503    6489    6491    6492
    6502    6503    6510    6511    6485    6487    6493    6494    6495    6504
    6505    6512    6513    6514    6486    6487    6493    6494    6495    6498
    6505    6506    6508    6509    6514    6487    6496    6497    6498    6507
    6508    6515    6516    6517    6495    6496    6497    6498    6505    6506
    6508    6509    6517    6499    6500    6501    6490    6491    6492    6502
    6503    6510    6511    6491    6502    6492    6502    6503    6510    6511
    6518    6519    6520    6521    6503    6494    6495    6504    6505    6506
    6512    6513    6514    6522    6523    6524    6525    6504    6505    6498
    6504    6505    6506    6514    6497    6507    6508    6498    6507    6508
    6509    6515    6516    6517    6526    6527    6528    6529    6507    6508
    6509    6517    6500    6501    6501       0    6503    6510    6511    6518
    6519    6520    6521    6530    6531    6532    6533    6534    6535    6536
    6537    6505    6512    6513    6514    6522    6523    6524    6525    6538
    6539    6540    6541    6542    6543    6544    6545    6506    6512    6513
    6514    6514    6508    6515    6516    6517    6526    6527    6528    6529
    6546    6547    6548    6549    6550    6551    6552    6553    6509    6515
    6516    6517    6517    6511    6518    6519    6520    6521    6530    6531
    6532    6533    6554    6555    6556    6518    6519    6520    6521    6534
    6535    6536    6537    6557    6558    6559    6513    6522    6523    6524
    6525    6538    6539    6540    6541    6560    6561    6562    6522    6523
    6524    6525    6542    6543    6544    6545    6563    6564    6565       0
    6516    6526    6527    6528    6529    6546    6547    6548    6549    6566
    6567    6568    6526    6527    6528    6529    6550    6551    6552    6553
    6569    6570    6571       0    6519    6530    6531    6532    6533    6554
    6555    6572    6530    6531    6532    6533    6554    6556    6572    6521
    6534    6535    6536    6537    6557    6558    6573    6534    6535    6536
    6537    6557    6559    6573    6523    6538    6539    6540    6541    6560
    6561    6574    6538    6539    6540    6541    6561    6562    6574    6525
    6542    6543    6544    6545    6563    6564    6575    6542    6543    6544
    6545    6563    6565    6575    6527    6546    6547    6548    6549    6566
    6567    6576    6546    6547    6548    6549    6566    6568    6576    6529
    6550    6551    6552    6553    6569    6570    6577    6550    6551    6552
    6553    6569    6571    6577    6531    6532    6554    6555    6556    6572
    6578    6554    6555    6533    6554    6555    6556    6572    6578    6554
    6556    6535    6557    6558    6537    6557    6558    6559    6573    6579
    6537    6557    6559    6557    6558    6559    6573    6579    6539    6540
    6560    6561    6562    6574    6580    6560    6561    6541    6560    6561
    6562    6574    6580    6561    6562    6543    6544    6563    6564    6565
    6575    6581    6563    6564    6545    6563    6564    6565    6575    6581
    6563    6565    6547    6548    6566    6567    6568    6576    6582    6566
    6567    6549    6566    6567    6568    6576    6582    6566    6568    6551
    6552    6569    6570    6571    6577    6583    6569    6570    6553    6569
    6570    6571    6577    6583    6569    6571    6555    6556    6572    6578
    6584    6585    6586    6572    6572    6558    6559    6573    6579    6587
    6588    6589    6573    6573    6561    6574    6562    6574    6580    6590
    6591    6592    6574    6564    6565    6575    6581    6593    6594    6595
    6575    6575    6567    6568    6576    6582    6596    6597    6598    6576
    6576    6570    6571    6577    6583    6599    6600    6601    6577    6577
    6578    6584    6585    6586    6579    6587    6588    6589    6580    6590
    6591    6592    6581    6593    6594    6595    6582    6596    6597    6598
    6583    6599    6600    6601    6584    6585    6586    6587    6588    6589
    6590    6591    6592    6593    6594    6595    6596    6597    6598    6599
    6600    6601    6585    6586    6586       0    6588    6589    6589       0
    6591    6592    6592       0    6594    6595    6595       0    6597    6598
    6598       0    6600    6601    6601       0    6603    6604    6605    6606
    6607    6608    6609    6610    6611    6612    6613    6604    6605    6606
    6607    6608    6609    6610    6611    6612    6613    6614    6615    6616
    6605    6606    6607    6608    6609    6606    6610    6611    6612    6613
    6614    6615    6617    6610    6611    6612    6613    6614    6616    6617
    6608    6609    6609       0    6611    6612    6614    6615    6616    6617
    6618    6619    6614    6615    6613    6614    6615    6616    6617    6618
    6619    6614    6616    6615    6616    6617    6618    6619    6620    6621
    6622    6623    6617    6617    6618    6619    6620    6621    6622    6623
    6624    6625    6626    6627    6628    6629    6630    6631    6619    6620
    6621    6622    6623    6624    6625    6626    6627    6632    6633    6634
    6620    6621    6622    6623    6628    6629    6630    6631    6635    6636
    6637    6621    6624    6625    6626    6627    6632    6633    6638    6639
    6640    6641    6624    6625    6626    6627    6632    6634    6638    6623
    6628    6629    6630    6631    6635    6636    6642    6628    6629    6630
    6631    6635    6637    6642    6625    6626    6632    6633    6634    6638
    6639    6640    6641    6643    6644    6645    6646    6647    6648    6632
    6633    6627    6632    6633    6634    6638    6639    6643    6632    6634
    6629    6630    6635    6636    6637    6642    6649    6635    6636    6631
    6635    6636    6637    6642    6649    6635    6637    6633    6634    6638
    6639    6640    6641    6643    6644    6650    6651    6638    6639    6640
    6641    6643    6644    6645    6646    6647    6648    6652    6653    6654
    6655    6656    6657    6658    6659    6638    6636    6637    6642    6649
    6660    6661    6662    6642    6642    6639    6640    6641    6643    6644
    6650    6651    6652    6653    6663    6640    6641    6643    6644    6645
    6646    6647    6648    6650    6651    6652    6653    6664    6641    6644
    6645    6646    6647    6648    6654    6655    6656    6659    6665    6666
    6667    6644    6645    6646    6647    6648    6656    6657    6658    6659
    6668    6669    6670    6649    6660    6661    6662    6644    6650    6651
    6652    6663    6664    6650    6652    6653    6663    6664    6671    6672
    6646    6648    6654    6655    6656    6665    6666    6673    6674    6675
    6647    6648    6654    6655    6656    6659    6666    6667    6669    6670
    6675    6648    6657    6658    6659    6668    6669    6676    6677    6678
    6656    6657    6658    6659    6666    6667    6669    6670    6678    6660
    6661    6662    6651    6652    6653    6663    6664    6671    6672    6652
    6663    6653    6663    6664    6671    6672    6679    6680    6681    6682
    6664    6655    6656    6665    6666    6667    6673    6674    6675    6683
    6684    6685    6686    6665    6666    6659    6665    6666    6667    6675
    6658    6668    6669    6659    6668    6669    6670    6676    6677    6678
    6687    6688    6689    6690    6668    6669    6670    6678    6661    6662
    6662       0    6664    6671    6672    6679    6680    6681    6682    6691
    6692    6693    6694    6695    6696    6697    6698    6666    6673    6674
    6675    6683    6684    6685    6686    6699    6700    6701    6702    6703
    6704    6705    6706    6667    6673    6674    6675    6675    6669    6676
    6677    6678    6687    6688    6689    6690    6707    6708    6709    6710
    6711    6712    6713    6714    6670    6676    6677    6678    6678    6672
    6679    6680    6681    6682    6691    6692    6693    6694    6715    6716
    6717    6679    6680    6681    6682    6695    6696    6697    6698    6718
    6719    6720    6674    6683    6684    6685    6686    6699    6700    6701
    6702    6721    6722    6723    6683    6684    6685    6686    6703    6704
    6705    6706    6724    6725    6726       0    6677    6687    6688    6689
    6690    6707    6708    6709    6710    6727    6728    6729    6687    6688
    6689    6690    6711    6712    6713    6714    6730    6731    6732       0
    6680    6691    6692    6693    6694    6715    6716    6733    6691    6692
    6693    6694    6715    6717    6733    6682    6695    6696    6697    6698
    6718    6719    6734    6695    6696    6697    6698    6718    6720    6734
    6684    6699    6700    6701    6702    6721    6722    6735    6699    6700
    6701    6702    6722    6723    6735    6686    6703    6704    6705    6706
    6724    6725    6736    6703    6704    6705    6706    6724    6726    6736
    6688    6707    6708    6709    6710    6727    6728    6737    6707    6708
    6709    6710    6727    6729    6737    6690    6711    6712    6713    6714
    6730    6731    6738    6711    6712    6713    6714    6730    6732    6738
    6692    6693    6715    6716    6717    6733    6739    6715    6716    6694
    6715    6716    6717    6733    6739    6715    6717    6696    6718    6719
    6698    6718    6719    6720    6734    6740    6698    6718    6720    6718
    6719    6720    6734    6740    6700    6701    6721    6722    6723    6735
    6741    6721    6722    6702    6721    6722    6723    6735    6741    6722
    6723    6704    6705    6724    6725    6726    6736    6742    6724    6725
    6706    6724    6725    6726    6736    6742    6724    6726    6708    6709
    6727    6728    6729    6737    6743    6727    6728    6710    6727    6728
    6729    6737    6743    6727    6729    6712    6713    6730    6731    6732
    6738    6744    6730    6731    6714    6730    6731    6732    6738    6744
    6730    6732    6716    6717    6733    6739    6745    6746    6747    6733
    6733    6719    6720    6734    6740    6748    6749    6750    6734    6734
    6722    6735    6723    6735    6741    6751    6752    6753    6735    6725
    6726    6736    6742    6754    6755    6756    6736    6736    6728    6729
    6737    6743    6757    6758    6759    6737    6737    6731    6732    6738
    6744    6760    6761    6762    6738    6738    6739    6745    6746    6747
    6740    6748    6749    6750    6741    6751    6752    6753    6742    6754
    6755    6756    6743    6757    6758    6759    6744    6760    6761    6762
    6745    6746    6747    6748    6749    6750    6751    6752    6753    6754
    6755    6756    6757    6758    6759    6760    6761    6762    6746    6747
    6747       0    6749    6750    6750       0    6752    6753    6753       0
    6755    6756    6756       0    6758    6759    6759       0    6761    6762
    6762       0    6764    6765    6766    6767    6768    6769    6770    6771
    6772    6773    6774    6765    6766    6767    6768    6769    6770    6771
    6772    6773    6774    6775    6776    6777    6766    6767    6768    6769
    6770    6767    6771    6772    6773    6774    6775    6776    6778    6771
    6772    6773    6774    6775    6777    6778    6769    6770    6770       0
    6772    6773    6775    6776    6777    6778    6779    6780    6775    6776
    6774    6775    6776    6777    6778    6779    6780    6775    6777    6776
    6777    6778    6779    6780    6781    6782    6783    6784    6778    6778
    6779    6780    6781    6782    6783    6784    6785    6786    6787    6788
    6789    6790    6791    6792    6780    6781    6782    6783    6784    6785
    6786    6787    6788    6793    6794    6795    6781    6782    6783    6784
    6789    6790    6791    6792    6796    6797    6798    6782    6785    6786
    6787    6788    6793    6794    6799    6800    6801    6802    6785    6786
    6787    6788    6793    6795    6799    6784    6789    6790    6791    6792
    6796    6797    6803    6789    6790    6791    6792    6796    6798    6803
    6786    6787    6793    6794    6795    6799    6800    6801    6802    6804
    6805    6806    6807    6808    6809    6793    6794    6788    6793    6794
    6795    6799    6800    6804    6793    6795    6790    6791    6796    6797
    6798    6803    6810    6796    6797    6792    6796    6797    6798    6803
    6810    6796    6798    6794    6795    6799    6800    6801    6802    6804
    6805    6811    6812    6799    6800    6801    6802    6804    6805    6806
    6807    6808    6809    6813    6814    6815    6816    6817    6818    6819
    6820    6799    6797    6798    6803    6810    6821    6822    6823    6803
    6803    6800    6801    6802    6804    6805    6811    6812    6813    6814
    6824    6801    6802    6804    6805    6806    6807    6808    6809    6811
    6812    6813    6814    6825    6802    6805    6806    6807    6808    6809
    6815    6816    6817    6820    6826    6827    6828    6805    6806    6807
    6808    6809    6817    6818    6819    6820    6829    6830    6831    6810
    6821    6822    6823    6805    6811    6812    6813    6824    6825    6811
    6813    6814    6824    6825    6832    6833    6807    6809    6815    6816
    6817    6826    6827    6834    6835    6836    6808    6809    6815    6816
    6817    6820    6827    6828    6830    6831    6836    6809    6818    6819
    6820    6829    6830    6837    6838    6839    6817    6818    6819    6820
    6827    6828    6830    6831    6839    6821    6822    6823    6812    6813
    6814    6824    6825    6832    6833    6813    6824    6814    6824    6825
    6832    6833    6840    6841    6842    6843    6825    6816    6817    6826
    6827    6828    6834    6835    6836    6844    6845    6846    6847    6826
    6827    6820    6826    6827    6828    6836    6819    6829    6830    6820
    6829    6830    6831    6837    6838    6839    6848    6849    6850    6851
    6829    6830    6831    6839    6822    6823    6823       0    6825    6832
    6833    6840    6841    6842    6843    6852    6853    6854    6855    6856
    6857    6858    6859    6827    6834    6835    6836    6844    6845    6846
    6847    6860    6861    6862    6863    6864    6865    6866    6867    6828
    6834    6835    6836    6836    6830    6837    6838    6839    6848    6849
    6850    6851    6868    6869    6870    6871    6872    6873    6874    6875
    6831    6837    6838    6839    6839    6833    6840    6841    6842    6843
    6852    6853    6854    6855    6876    6877    6878    6840    6841    6842
    6843    6856    6857    6858    6859    6879    6880    6881    6835    6844
    6845    6846    6847    6860    6861    6862    6863    6882    6883    6884
    6844    6845    6846    6847    6864    6865    6866    6867    6885    6886
    6887       0    6838    6848    6849    6850    6851    6868    6869    6870
    6871    6888    6889    6890    6848    6849    6850    6851    6872    6873
    6874    6875    6891    6892    6893       0    6841    6852    6853    6854
    6855    6876    6877    6894    6852    6853    6854    6855    6876    6878
    6894    6843    6856    6857    6858    6859    6879    6880    6895    6856
    6857    6858    6859    6879    6881    6895    6845    6860    6861    6862
    6863    6882    6883    6896    6860    6861    6862    6863    6883    6884
    6896    6847    6864    6865    6866    6867    6885    6886    6897    6864
    6865    6866    6867    6885    6887    6897    6849    6868    6869    6870
    6871    6888    6889    6898    6868    6869    6870    6871    6888    6890
    6898    6851    6872    6873    6874    6875    6891    6892    6899    6872
    6873    6874    6875    6891    6893    6899    6853    6854    6876    6877
    6878    6894    6900    6876    6877    6855    6876    6877    6878    6894
    6900    6876    6878    6857    6879    6880    6859    6879    6880    6881
    6895    6901    6859    6879    6881    6879    6880    6881    6895    6901
    6861    6862    6882    6883    6884    6896    6902    6882    6883    6863
    6882    6883    6884    6896    6902    6883    6884    6865    6866    6885
    6886    6887    6897    6903    6885    6886    6867    6885    6886    6887
    6897    6903    6885    6887    6869    6870    6888    6889    6890    6898
    6904    6888    6889    6871    6888    6889    6890    6898    6904    6888
    6890    6873    6874    6891    6892    6893    6899    6905    6891    6892
    6875    6891    6892    6893    6899    6905    6891    6893    6877    6878
    6894    6900    6906    6907    6908    6894    6894    6880    6881    6895
    6901    6909    6910    6911    6895    6895    6883    6896    6884    6896
    6902    6912    6913    6914    6896    6886    6887    6897    6903    6915
    6916    6917    6897    6897    6889    6890    6898    6904    6918    6919
    6920    6898    6898    6892    6893    6899    6905    6921    6922    6923
    6899    6899    6900    6906    6907    6908    6901    6909    6910    6911
    6902    6912    6913    6914    6903    6915    6916    6917    6904    6918
    6919    6920    6905    6921    6922    6923    6906    6907    6908    6909
    6910    6911    6912    6913    6914    6915    6916    6917    6918    6919
    6920    6921    6922    6923    6907    6908    6908       0    6910    6911
    6911       0    6913    6914    6914       0    6916    6917    6917       0
    6919    6920    6920       0    6922    6923    6923       0    6925    6926
    6927    6928    6929    6930    6931    6932    6933    6934    6935    6926
    6927    6928    6929    6930    6931    6932    6933    6934    6935    6936
    6937    6938    6927    6928    6929    6930    6931    6928    6932    6933
    6934    6935    6936    6937    6939    6932    6933    6934    6935    6936
    6938    6939    6930    6931    6931       0    6933    6934    6936    6937
    6938    6939    6940    6941    6936    6937    6935    6936    6937    6938
    6939    6940    6941    6936    6938    6937    6938    6939    6940    6941
    6942    6943    6944    6945    6939    6939    6940    6941    6942    6943
    6944    6945    6946    6947    6948    6949    6950    6951    6952    6953
    6941    6942    6943    6944    6945    6946    6947    6948    6949    6954
    6955    6956    6942    6943    6944    6945    6950    6951    6952    6953
    6957    6958    6959    6943    6946    6947    6948    6949    6954    6955
    6960    6961    6962    6963    6946    6947    6948    6949    6954    6956
    6960    6945    6950    6951    6952    6953    6957    6958    6964    6950
    6951    6952    6953    6957    6959    6964    6947    6948    6954    6955
    6956    6960    6961    6962    6963    6965    6966    6967    6968    6969
    6970    6954    6955    6949    6954    6955    6956    6960    6961    6965
    6954    6956    6951    6952    6957    6958    6959    6964    6971    6957
    6958    6953    6957    6958    6959    6964    6971    6957    6959    6955
    6956    6960    6961    6962    6963    6965    6966    6972    6973    6960
    6961    6962    6963    6965    6966    6967    6968    6969    6970    6974
    6975    6976    6977    6978    6979    6980    6981    6960    6958    6959
    6964    6971    6982    6983    6984    6964    6964    6961    6962    6963
    6965    6966    6972    6973    6974    6975    6985    6962    6963    6965
    6966    6967    6968    6969    6970    6972    6973    6974    6975    6986
    6963    6966    6967    6968    6969    6970    6976    6977    6978    6981
    6987    6988    6989    6966    6967    6968    6969    6970    6978    6979
    6980    6981    6990    6991    6992    6971    6982    6983    6984    6966
    6972    6973    6974    6985    6986    6972    6974    6975    6985    6986
    6993    6994    6968    6970    6976    6977    6978    6987    6988    6995
    6996    6997    6969    6970    6976    6977    6978    6981    6988    6989
    6991    6992    6997    6970    6979    6980    6981    6990    6991    6998
    6999    7000    6978    6979    6980    6981    6988    6989    6991    6992
    7000    6982    6983    6984    6973    6974    6975    6985    6986    6993
    6994    6974    6985    6975    6985    6986    6993    6994    7001    7002
    7003    7004    6986    6977    6978    6987    6988    6989    6995    6996
    6997    7005    7006    7007    7008    6987    6988    6981    6987    6988
    6989    6997    6980    6990    6991    6981    6990    6991    6992    6998
    6999    7000    7009    7010    7011    7012    6990    6991    6992    7000
    6983    6984    6984       0    6986    6993    6994    7001    7002    7003
    7004    7013    7014    7015    7016    7017    7018    7019    7020    6988
    6995    6996    6997    7005    7006    7007    7008    7021    7022    7023
    7024    7025    7026    7027    7028    6989    6995    6996    6997    6997
    6991    6998    6999    7000    7009    7010    7011    7012    7029    7030
    7031    7032    7033    7034    7035    7036    6992    6998    6999    7000
    7000    6994    7001    7002    7003    7004    7013    7014    7015    7016
    7037    7038    7039    7001    7002    7003    7004    7017    7018    7019
    7020    7040    7041    7042    6996    7005    7006    7007    7008    7021
    7022    7023    7024    7043    7044    7045    7005    7006    7007    7008
    7025    7026    7027    7028    7046    7047    7048       0    6999    7009
    7010    7011    7012    7029    7030    7031    7032    7049    7050    7051
    7009    7010    7011    7012    7033    7034    7035    7036    7052    7053
    7054       0    7002    7013    7014    7015    7016    7037    7038    7055
    7013    7014    7015    7016    7037    7039    7055    7004    7017    7018
    7019    7020    7040    7041    7056    7017    7018    7019    7020    7040
    7042    7056    7006    7021    7022    7023    7024    7043    7044    7057
    7021    7022    7023    7024    7044    7045    7057    7008    7025    7026
    7027    7028    7046    7047    7058    7025    7026    7027    7028    7046
    7048    7058    7010    7029    7030    7031    7032    7049    7050    7059
    7029    7030    7031    7032    7049    7051    7059    7012    7033    7034
    7035    7036    7052    7053    7060    7033    7034    7035    7036    7052
    7054    7060    7014    7015    7037    7038    7039    7055    7061    7037
    7038    7016    7037    7038    7039    7055    7061    7037    7039    7018
    7040    7041    7020    7040    7041    7042    7056    7062    7020    7040
    7042    7040    7041    7042    7056    7062    7022    7023    7043    7044
    7045    7057    7063    7043    7044    7024    7043    7044    7045    7057
    7063    7044    7045    7026    7027    7046    7047    7048    7058    7064
    7046    7047    7028    7046    7047    7048    7058    7064    7046    7048
    7030    7031    7049    7050    7051    7059    7065    7049    7050    7032
    7049    7050    7051    7059    7065    7049    7051    7034    7035    7052
    7053    7054    7060    7066    7052    7053    7036    7052    7053    7054
    7060    7066    7052    7054    7038    7039    7055    7061    7067    7068
    7069    7055    7055    7041    7042    7056    7062    7070    7071    7072
    7056    7056    7044    7057    7045    7057    7063    7073    7074    7075
    7057    7047    7048    7058    7064    7076    7077    7078    7058    7058
    7050    7051    7059    7065    7079    7080    7081    7059    7059    7053
    7054    7060    7066    7082    7083    7084    7060    7060    7061    7067
    7068    7069    7062    7070    7071    7072    7063    7073    7074    7075
    7064    7076    7077    7078    7065    7079    7080    7081    7066    7082
    7083    7084    7067    7068    7069    7070    7071    7072    7073    7074
    7075    7076    7077    7078    7079    7080    7081    7082    7083    7084
    7068    7069    7069       0    7071    7072    7072       0    7074    7075
    7075       0    7077    7078    7078       0    7080    7081    7081       0
    7083    7084    7084       0    7086    7087    7088    7089    7090    7091
    7092    7093    7094    7095    7096    7087    7088    7089    7090    7091
    7092    7093    7094    7095    7096    7097    7098    7099    7088    7089
    7090    7091    7092    7089    7093    7094    7095    7096    7097    7098
    7100    7093    7094    7095    7096    7097    7099    7100    7091    7092
    7092       0    7094    7095    7097    7098    7099    7100    7101    7102
    7097    7098    7096    7097    7098    7099    7100    7101    7102    7097
    7099    7098    7099    7100    7101    7102    7103    7104    7105    7106
    7100    7100    7101    7102    7103    7104    7105    7106    7107    7108
    7109    7110    7111    7112    7113    7114    7102    7103    7104    7105
    7106    7107    7108    7109    7110    7115    7116    7117    7103    7104
    7105    7106    7111    7112    7113    7114    7118    7119    7120    7104
    7107    7108    7109    7110    7115    7116    7121    7122    7123    7124
    7107    7108    7109    7110    7115    7117    7121    7106    7111    7112
    7113    7114    7118    7119    7125    7111    7112    7113    7114    7118
    7120    7125    7108    7109    7115    7116    7117    7121    7122    7123
    7124    7126    7127    7128    7129    7130    7131    7115    7116    7110
    7115    7116    7117    7121    7122    7126    7115    7117    7112    7113
    7118    7119    7120    7125    7132    7118    7119    7114    7118    7119
    7120    7125    7132    7118    7120    7116    7117    7121    7122    7123
    7124    7126    7127    7133    7134    7121    7122    7123    7124    7126
    7127    7128    7129    7130    7131    7135    7136    7137    7138    7139
    7140    7141    7142    7121    7119    7120    7125    7132    7143    7144
    7145    7125    7125    7122    7123    7124    7126    7127    7133    7134
    7135    7136    7146    7123    7124    7126    7127    7128    7129    7130
    7131    7133    7134    7135    7136    7147    7124    7127    7128    7129
    7130    7131    7137    7138    7139    7142    7148    7149    7150    7127
    7128    7129    7130    7131    7139    7140    7141    7142    7151    7152
    7153    7132    7143    7144    7145    7127    7133    7134    7135    7146
    7147    7133    7135    7136    7146    7147    7154    7155    7129    7131
    7137    7138    7139    7148    7149    7156    7157    7158    7130    7131
    7137    7138    7139    7142    7149    7150    7152    7153    7158    7131
    7140    7141    7142    7151    7152    7159    7160    7161    7139    7140
    7141    7142    7149    7150    7152    7153    7161    7143    7144    7145
    7134    7135    7136    7146    7147    7154    7155    7135    7146    7136
    7146    7147    7154    7155    7162    7163    7164    7165    7147    7138
    7139    7148    7149    7150    7156    7157    7158    7166    7167    7168
    7169    7148    7149    7142    7148    7149    7150    7158    7141    7151
    7152    7142    7151    7152    7153    7159    7160    7161    7170    7171
    7172    7173    7151    7152    7153    7161    7144    7145    7145       0
    7147    7154    7155    7162    7163    7164    7165    7174    7175    7176
    7177    7178    7179    7180    7181    7149    7156    7157    7158    7166
    7167    7168    7169    7182    7183    7184    7185    7186    7187    7188
    7189    7150    7156    7157    7158    7158    7152    7159    7160    7161
    7170    7171    7172    7173    7190    7191    7192    7193    7194    7195
    7196    7197    7153    7159    7160    7161    7161    7155    7162    7163
    7164    7165    7174    7175    7176    7177    7198    7199    7200    7162
    7163    7164    7165    7178    7179    7180    7181    7201    7202    7203
    7157    7166    7167    7168    7169    7182    7183    7184    7185    7204
    7205    7206    7166    7167    7168    7169    7186    7187    7188    7189
    7207    7208    7209       0    7160    7170    7171    7172    7173    7190
    7191    7192    7193    7210    7211    7212    7170    7171    7172    7173
    7194    7195    7196    7197    7213    7214    7215       0    7163    7174
    7175    7176    7177    7198    7199    7216    7174    7175    7176    7177
    7198    7200    7216    7165    7178    7179    7180    7181    7201    7202
    7217    7178    7179    7180    7181    7201    7203    7217    7167    7182
    7183    7184    7185    7204    7205    7218    7182    7183    7184    7185
    7205    7206    7218    7169    7186    7187    7188    7189    7207    7208
    7219    7186    7187    7188    7189    7207    7209    7219    7171    7190
    7191    7192    7193    7210    7211    7220    7190    7191    7192    7193
    7210    7212    7220    7173    7194    7195    7196    7197    7213    7214
    7221    7194    7195    7196    7197    7213    7215    7221    7175    7176
    7198    7199    7200    7216    7222    7198    7199    7177    7198    7199
    7200    7216    7222    7198    7200    7179    7201    7202    7181    7201
    7202    7203    7217    7223    7181    7201    7203    7201    7202    7203
    7217    7223    7183    7184    7204    7205    7206    7218    7224    7204
    7205    7185    7204    7205    7206    7218    7224    7205    7206    7187
    7188    7207    7208    7209    7219    7225    7207    7208    7189    7207
    7208    7209    7219    7225    7207    7209    7191    7192    7210    7211
    7212    7220    7226    7210    7211    7193    7210    7211    7212    7220
    7226    7210    7212    7195    7196    7213    7214    7215    7221    7227
    7213    7214    7197    7213    7214    7215    7221    7227    7213    7215
    7199    7200    7216    7222    7228    7229    7230    7216    7216    7202
    7203    7217    7223    7231    7232    7233    7217    7217    7205    7218
    7206    7218    7224    7234    7235    7236    7218    7208    7209    7219
    7225    7237    7238    7239    7219    7219    7211    7212    7220    7226
    7240    7241    7242    7220    7220    7214    7215    7221    7227    7243
    7244    7245    7221    7221    7222    7228    7229    7230    7223    7231
    7232    7233    7224    7234    7235    7236    7225    7237    7238    7239
    7226    7240    7241    7242    7227    7243    7244    7245    7228    7229
    7230    7231    7232    7233    7234    7235    7236    7237    7238    7239
    7240    7241    7242    7243    7244    7245    7229    7230    7230       0
    7232    7233    7233       0    7235    7236    7236       0    7238    7239
    7239       0    7241    7242    7242       0    7244    7245    7245       0
    7247    7248    7249    7250    7251    7252    7253    7254    7255    7256
    7257    7248    7249    7250    7251    7252    7253    7254    7255    7256
    7257    7258    7259    7260    7249    7250    7251    7252    7253    7250
    7254    7255    7256    7257    7258    7259    7261    7254    7255    7256
    7257    7258    7260    7261    7252    7253    7253       0    7255    7256
    7258    7259    7260    7261    7262    7263    7258    7259    7257    7258
    7259    7260    7261    7262    7263    7258    7260    7259    7260    7261
    7262    7263    7264    7265    7266    7267    7261    7261    7262    7263
    7264    7265    7266    7267    7268    7269    7270    7271    7272    7273
    7274    7275    7263    7264    7265    7266    7267    7268    7269    7270
    7271    7276    7277    7278    7264    7265    7266    7267    7272    7273
    7274    7275    7279    7280    7281    7265    7268    7269    7270    7271
    7276    7277    7282    7283    7284    7285    7268    7269    7270    7271
    7276    7278    7282    7267    7272    7273    7274    7275    7279    7280
    7286    7272    7273    7274    7275    7279    7281    7286    7269    7270
    7276    7277    7278    7282    7283    7284    7285    7287    7288    7289
    7290    7291    7292    7276    7277    7271    7276    7277    7278    7282
    7283    7287    7276    7278    7273    7274    7279    7280    7281    7286
    7293    7279    7280    7275    7279    7280    7281    7286    7293    7279
    7281    7277    7278    7282    7283    7284    7285    7287    7288    7294
    7295    7282    7283    7284    7285    7287    7288    7289    7290    7291
    7292    7296    7297    7298    7299    7300    7301    7302    7303    7282
    7280    7281    7286    7293    7304    7305    7306    7286    7286    7283
    7284    7285    7287    7288    7294    7295    7296    7297    7307    7284
    7285    7287    7288    7289    7290    7291    7292    7294    7295    7296
    7297    7308    7285    7288    7289    7290    7291    7292    7298    7299
    7300    7303    7309    7310    7311    7288    7289    7290    7291    7292
    7300    7301    7302    7303    7312    7313    7314    7293    7304    7305
    7306    7288    7294    7295    7296    7307    7308    7294    7296    7297
    7307    7308    7315    7316    7290    7292    7298    7299    7300    7309
    7310    7317    7318    7319    7291    7292    7298    7299    7300    7303
    7310    7311    7313    7314    7319    7292    7301    7302    7303    7312
    7313    7320    7321    7322    7300    7301    7302    7303    7310    7311
    7313    7314    7322    7304    7305    7306    7295    7296    7297    7307
    7308    7315    7316    7296    7307    7297    7307    7308    7315    7316
    7323    7324    7325    7326    7308    7299    7300    7309    7310    7311
    7317    7318    7319    7327    7328    7329    7330    7309    7310    7303
    7309    7310    7311    7319    7302    7312    7313    7303    7312    7313
    7314    7320    7321    7322    7331    7332    7333    7334    7312    7313
    7314    7322    7305    7306    7306       0    7308    7315    7316    7323
    7324    7325    7326    7335    7336    7337    7338    7339    7340    7341
    7342    7310    7317    7318    7319    7327    7328    7329    7330    7343
    7344    7345    7346    7347    7348    7349    7350    7311    7317    7318
    7319    7319    7313    7320    7321    7322    7331    7332    7333    7334
    7351    7352    7353    7354    7355    7356    7357    7358    7314    7320
    7321    7322    7322    7316    7323    7324    7325    7326    7335    7336
    7337    7338    7359    7360    7361    7323    7324    7325    7326    7339
    7340    7341    7342    7362    7363    7364    7318    7327    7328    7329
    7330    7343    7344    7345    7346    7365    7366    7367    7327    7328
    7329    7330    7347    7348    7349    7350    7368    7369    7370       0
    7321    7331    7332    7333    7334    7351    7352    7353    7354    7371
    7372    7373    7331    7332    7333    7334    7355    7356    7357    7358
    7374    7375    7376       0    7324    7335    7336    7337    7338    7359
    7360    7377    7335    7336    7337    7338    7359    7361    7377    7326
    7339    7340    7341    7342    7362    7363    7378    7339    7340    7341
    7342    7362    7364    7378    7328    7343    7344    7345    7346    7365
    7366    7379    7343    7344    7345    7346    7366    7367    7379    7330
    7347    7348    7349    7350    7368    7369    7380    7347    7348    7349
    7350    7368    7370    7380    7332    7351    7352    7353    7354    7371
    7372    7381    7351    7352    7353    7354    7371    7373    7381    7334
    7355    7356    7357    7358    7374    7375    7382    7355    7356    7357
    7358    7374    7376    7382    7336    7337    7359    7360    7361    7377
    7383    7359    7360    7338    7359    7360    7361    7377    7383    7359
    7361    7340    7362    7363    7342    7362    7363    7364    7378    7384
    7342    7362    7364    7362    7363    7364    7378    7384    7344    7345
    7365    7366    7367    7379    7385    7365    7366    7346    7365    7366
    7367    7379    7385    7366    7367    7348    7349    7368    7369    7370
    7380    7386    7368    7369    7350    7368    7369    7370    7380    7386
    7368    7370    7352    7353    7371    7372    7373    7381    7387    7371
    7372    7354    7371    7372    7373    7381    7387    7371    7373    7356
    7357    7374    7375    7376    7382    7388    7374    7375    7358    7374
    7375    7376    7382    7388    7374    7376    7360    7361    7377    7383
    7389    7390    7391    7377    7377    7363    7364    7378    7384    7392
    7393    7394    7378    7378    7366    7379    7367    7379    7385    7395
    7396    7397    7379    7369    7370    7380    7386    7398    7399    7400
    7380    7380    7372    7373    7381    7387    7401    7402    7403    7381
    7381    7375    7376    7382    7388    7404    7405    7406    7382    7382
    7383    7389    7390    7391    7384    7392    7393    7394    7385    7395
    7396    7397    7386    7398    7399    7400    7387    7401    7402    7403
    7388    7404    7405    7406    7389    7390    7391    7392    7393    7394
    7395    7396    7397    7398    7399    7400    7401    7402    7403    7404
    7405    7406    7390    7391    7391       0    7393    7394    7394       0
    7396    7397    7397       0    7399    7400    7400       0    7402    7403
    7403       0    7405    7406    7406       0    7408    7409    7410    7411
    7412    7413    7414    7415    7416    7417    7418    7409    7410    7411
    7412    7413    7414    7415    7416    7417    7418    7419    7420    7421
    7410    7411    7412    7413    7414    7411    7415    7416    7417    7418
    7419    7420    7422    7415    7416    7417    7418    7419    7421    7422
    7413    7414    7414       0    7416    7417    7419    7420    7421    7422
    7423    7424    7419    7420    7418    7419    7420    7421    7422    7423
    7424    7419    7421    7420    7421    7422    7423    7424    7425    7426
    7427    7428    7422    7422    7423    7424    7425    7426    7427    7428
    7429    7430    7431    7432    7433    7434    7435    7436    7424    7425
    7426    7427    7428    7429    7430    7431    7432    7437    7438    7439
    7425    7426    7427    7428    7433    7434    7435    7436    7440    7441
    7442    7426    7429    7430    7431    7432    7437    7438    7443    7444
    7445    7446    7429    7430    7431    7432    7437    7439    7443    7428
    7433    7434    7435    7436    7440    7441    7447    7433    7434    7435
    7436    7440    7442    7447    7430    7431    7437    7438    7439    7443
    7444    7445    7446    7448    7449    7450    7451    7452    7453    7437
    7438    7432    7437    7438    7439    7443    7444    7448    7437    7439
    7434    7435    7440    7441    7442    7447    7454    7440    7441    7436
    7440    7441    7442    7447    7454    7440    7442    7438    7439    7443
    7444    7445    7446    7448    7449    7455    7456    7443    7444    7445
    7446    7448    7449    7450    7451    7452    7453    7457    7458    7459
    7460    7461    7462    7463    7464    7443    7441    7442    7447    7454
    7465    7466    7467    7447    7447    7444    7445    7446    7448    7449
    7455    7456    7457    7458    7468    7445    7446    7448    7449    7450
    7451    7452    7453    7455    7456    7457    7458    7469    7446    7449
    7450    7451    7452    7453    7459    7460    7461    7464    7470    7471
    7472    7449    7450    7451    7452    7453    7461    7462    7463    7464
    7473    7474    7475    7454    7465    7466    7467    7449    7455    7456
    7457    7468    7469    7455    7457    7458    7468    7469    7476    7477
    7451    7453    7459    7460    7461    7470    7471    7478    7479    7480
    7452    7453    7459    7460    7461    7464    7471    7472    7474    7475
    7480    7453    7462    7463    7464    7473    7474    7481    7482    7483
    7461    7462    7463    7464    7471    7472    7474    7475    7483    7465
    7466    7467    7456    7457    7458    7468    7469    7476    7477    7457
    7468    7458    7468    7469    7476    7477    7484    7485    7486    7487
    7469    7460    7461    7470    7471    7472    7478    7479    7480    7488
    7489    7490    7491    7470    7471    7464    7470    7471    7472    7480
    7463    7473    7474    7464    7473    7474    7475    7481    7482    7483
    7492    7493    7494    7495    7473    7474    7475    7483    7466    7467
    7467       0    7469    7476    7477    7484    7485    7486    7487    7496
    7497    7498    7499    7500    7501    7502    7503    7471    7478    7479
    7480    7488    7489    7490    7491    7504    7505    7506    7507    7508
    7509    7510    7511    7472    7478    7479    7480    7480    7474    7481
    7482    7483    7492    7493    7494    7495    7512    7513    7514    7515
    7516    7517    7518    7519    7475    7481    7482    7483    7483    7477
    7484    7485    7486    7487    7496    7497    7498    7499    7520    7521
    7522    7484    7485    7486    7487    7500    7501    7502    7503    7523
    7524    7525    7479    7488    7489    7490    7491    7504    7505    7506
    7507    7526    7527    7528    7488    7489    7490    7491    7508    7509
    7510    7511    7529    7530    7531       0    7482    7492    7493    7494
    7495    7512    7513    7514    7515    7532    7533    7534    7492    7493
    7494    7495    7516    7517    7518    7519    7535    7536    7537       0
    7485    7496    7497    7498    7499    7520    7521    7538    7496    7497
    7498    7499    7520    7522    7538    7487    7500    7501    7502    7503
    7523    7524    7539    7500    7501    7502    7503    7523    7525    7539
    7489    7504    7505    7506    7507    7526    7527    7540    7504    7505
    7506    7507    7527    7528    7540    7491    7508    7509    7510    7511
    7529    7530    7541    7508    7509    7510    7511    7529    7531    7541
    7493    7512    7513    7514    7515    7532    7533    7542    7512    7513
    7514    7515    7532    7534    7542    7495    7516    7517    7518    7519
    7535    7536    7543    7516    7517    7518    7519    7535    7537    7543
    7497    7498    7520    7521    7522    7538    7544    7520    7521    7499
    7520    7521    7522    7538    7544    7520    7522    7501    7523    7524
    7503    7523    7524    7525    7539    7545    7503    7523    7525    7523
    7524    7525    7539    7545    7505    7506    7526    7527    7528    7540
    7546    7526    7527    7507    7526    7527    7528    7540    7546    7527
    7528    7509    7510    7529    7530    7531    7541    7547    7529    7530
    7511    7529    7530    7531    7541    7547    7529    7531    7513    7514
    7532    7533    7534    7542    7548    7532    7533    7515    7532    7533
    7534    7542    7548    7532    7534    7517    7518    7535    7536    7537
    7543    7549    7535    7536    7519    7535    7536    7537    7543    7549
    7535    7537    7521    7522    7538    7544    7550    7551    7552    7538
    7538    7524    7525    7539    7545    7553    7554    7555    7539    7539
    7527    7540    7528    7540    7546    7556    7557    7558    7540    7530
    7531    7541    7547    7559    7560    7561    7541    7541    7533    7534
    7542    7548    7562    7563    7564    7542    7542    7536    7537    7543
    7549    7565    7566    7567    7543    7543    7544    7550    7551    7552
    7545    7553    7554    7555    7546    7556    7557    7558    7547    7559
    7560    7561    7548    7562    7563    7564    7549    7565    7566    7567
    7550    7551    7552    7553    7554    7555    7556    7557    7558    7559
    7560    7561    7562    7563    7564    7565    7566    7567    7551    7552
    7552       0    7554    7555    7555       0    7557    7558    7558       0
    7560    7561    7561       0    7563    7564    7564       0    7566    7567
    7567       0    7569    7570    7571    7572    7573    7574    7575    7576
    7577    7578    7579    7570    7571    7572    7573    7574    7575    7576
    7577    7578    7579    7580    7581    7582    7571    7572    7573    7574
    7575    7572    7576    7577    7578    7579    7580    7581    7583    7576
    7577    7578    7579    7580    7582    7583    7574    7575    7575       0
    7577    7578    7580    7581    7582    7583    7584    7585    7580    7581
    7579    7580    7581    7582    7583    7584    7585    7580    7582    7581
    7582    7583    7584    7585    7586    7587    7588    7589    7583    7583
    7584    7585    7586    7587    7588    7589    7590    7591    7592    7593
    7594    7595    7596    7597    7585    7586    7587    7588    7589    7590
    7591    7592    7593    7598    7599    7600    7586    7587    7588    7589
    7594    7595    7596    7597    7601    7602    7603    7587    7590    7591
    7592    7593    7598    7599    7604    7605    7606    7607    7590    7591
    7592    7593    7598    7600    7604    7589    7594    7595    7596    7597
    7601    7602    7608    7594    7595    7596    7597    7601    7603    7608
    7591    7592    7598    7599    7600    7604    7605    7606    7607    7609
    7610    7611    7612    7613    7614    7598    7599    7593    7598    7599
    7600    7604    7605    7609    7598    7600    7595    7596    7601    7602
    7603    7608    7615    7601    7602    7597    7601    7602    7603    7608
    7615    7601    7603    7599    7600    7604    7605    7606    7607    7609
    7610    7616    7617    7604    7605    7606    7607    7609    7610    7611
    7612    7613    7614    7618    7619    7620    7621    7622    7623    7624
    7625    7604    7602    7603    7608    7615    7626    7627    7628    7608
    7608    7605    7606    7607    7609    7610    7616    7617    7618    7619
    7629    7606    7607    7609    7610    7611    7612    7613    7614    7616
    7617    7618    7619    7630    7607    7610    7611    7612    7613    7614
    7620    7621    7622    7625    7631    7632    7633    7610    7611    7612
    7613    7614    7622    7623    7624    7625    7634    7635    7636    7615
    7626    7627    7628    7610    7616    7617    7618    7629    7630    7616
    7618    7619    7629    7630    7637    7638    7612    7614    7620    7621
    7622    7631    7632    7639    7640    7641    7613    7614    7620    7621
    7622    7625    7632    7633    7635    7636    7641    7614    7623    7624
    7625    7634    7635    7642    7643    7644    7622    7623    7624    7625
    7632    7633    7635    7636    7644    7626    7627    7628    7617    7618
    7619    7629    7630    7637    7638    7618    7629    7619    7629    7630
    7637    7638    7645    7646    7647    7648    7630    7621    7622    7631
    7632    7633    7639    7640    7641    7649    7650    7651    7652    7631
    7632    7625    7631    7632    7633    7641    7624    7634    7635    7625
    7634    7635    7636    7642    7643    7644    7653    7654    7655    7656
    7634    7635    7636    7644    7627    7628    7628       0    7630    7637
    7638    7645    7646    7647    7648    7657    7658    7659    7660    7661
    7662    7663    7664    7632    7639    7640    7641    7649    7650    7651
    7652    7665    7666    7667    7668    7669    7670    7671    7672    7633
    7639    7640    7641    7641    7635    7642    7643    7644    7653    7654
    7655    7656    7673    7674    7675    7676    7677    7678    7679    7680
    7636    7642    7643    7644    7644    7638    7645    7646    7647    7648
    7657    7658    7659    7660    7681    7682    7683    7645    7646    7647
    7648    7661    7662    7663    7664    7684    7685    7686    7640    7649
    7650    7651    7652    7665    7666    7667    7668    7687    7688    7689
    7649    7650    7651    7652    7669    7670    7671    7672    7690    7691
    7692       0    7643    7653    7654    7655    7656    7673    7674    7675
    7676    7693    7694    7695    7653    7654    7655    7656    7677    7678
    7679    7680    7696    7697    7698       0    7646    7657    7658    7659
    7660    7681    7682    7699    7657    7658    7659    7660    7681    7683
    7699    7648    7661    7662    7663    7664    7684    7685    7700    7661
    7662    7663    7664    7684    7686    7700    7650    7665    7666    7667
    7668    7687    7688    7701    7665    7666    7667    7668    7688    7689
    7701    7652    7669    7670    7671    7672    7690    7691    7702    7669
    7670    7671    7672    7690    7692    7702    7654    7673    7674    7675
    7676    7693    7694    7703    7673    7674    7675    7676    7693    7695
    7703    7656    7677    7678    7679    7680    7696    7697    7704    7677
    7678    7679    7680    7696    7698    7704    7658    7659    7681    7682
    7683    7699    7705    7681    7682    7660    7681    7682    7683    7699
    7705    7681    7683    7662    7684    7685    7664    7684    7685    7686
    7700    7706    7664    7684    7686    7684    7685    7686    7700    7706
    7666    7667    7687    7688    7689    7701    7707    7687    7688    7668
    7687    7688    7689    7701    7707    7688    7689    7670    7671    7690
    7691    7692    7702    7708    7690    7691    7672    7690    7691    7692
    7702    7708    7690    7692    7674    7675    7693    7694    7695    7703
    7709    7693    7694    7676    7693    7694    7695    7703    7709    7693
    7695    7678    7679    7696    7697    7698    7704    7710    7696    7697
    7680    7696    7697    7698    7704    7710    7696    7698    7682    7683
    7699    7705    7711    7712    7713    7699    7699    7685    7686    7700
    7706    7714    7715    7716    7700    7700    7688    7701    7689    7701
    7707    7717    7718    7719    7701    7691    7692    7702    7708    7720
    7721    7722    7702    7702    7694    7695    7703    7709    7723    7724
    7725    7703    7703    7697    7698    7704    7710    7726    7727    7728
    7704    7704    7705    7711    7712    7713    7706    7714    7715    7716
    7707    7717    7718    7719    7708    7720    7721    7722    7709    7723
    7724    7725    7710    7726    7727    7728    7711    7712    7713    7714
    7715    7716    7717    7718    7719    7720    7721    7722    7723    7724
    7725    7726    7727    7728    7712    7713    7713       0    7715    7716
    7716       0    7718    7719    7719       0    7721    7722    7722       0
    7724    7725    7725       0    7727    7728    7728       0    7730    7731
    7732    7733    7734    7735    7736    7737    7738    7739    7740    7731
    7732    7733    7734    7735    7736    7737    7738    7739    7740    7741
    7742    7743    7732    7733    7734    7735    7736    7733    7737    7738
    7739    7740    7741    7742    7744    7737    7738    7739    7740    7741
    7743    7744    7735    7736    7736       0    7738    7739    7741    7742
    7743    7744    7745    7746    7741    7742    7740    7741    7742    7743
    7744    7745    7746    7741    7743    7742    7743    7744    7745    7746
    7747    7748    7749    7750    7744    7744    7745    7746    7747    7748
    7749    7750    7751    7752    7753    7754    7755    7756    7757    7758
    7746    7747    7748    7749    7750    7751    7752    7753    7754    7759
    7760    7761    7747    7748    7749    7750    7755    7756    7757    7758
    7762    7763    7764    7748    7751    7752    7753    7754    7759    7760
    7765    7766    7767    7768    7751    7752    7753    7754    7759    7761
    7765    7750    7755    7756    7757    7758    7762    7763    7769    7755
    7756    7757    7758    7762    7764    7769    7752    7753    7759    7760
    7761    7765    7766    7767    7768    7770    7771    7772    7773    7774
    7775    7759    7760    7754    7759    7760    7761    7765    7766    7770
    7759    7761    7756    7757    7762    7763    7764    7769    7776    7762
    7763    7758    7762    7763    7764    7769    7776    7762    7764    7760
    7761    7765    7766    7767    7768    7770    7771    7777    7778    7765
    7766    7767    7768    7770    7771    7772    7773    7774    7775    7779
    7780    7781    7782    7783    7784    7785    7786    7765    7763    7764
    7769    7776    7787    7788    7789    7769    7769    7766    7767    7768
    7770    7771    7777    7778    7779    7780    7790    7767    7768    7770
    7771    7772    7773    7774    7775    7777    7778    7779    7780    7791
    7768    7771    7772    7773    7774    7775    7781    7782    7783    7786
    7792    7793    7794    7771    7772    7773    7774    7775    7783    7784
    7785    7786    7795    7796    7797    7776    7787    7788    7789    7771
    7777    7778    7779    7790    7791    7777    7779    7780    7790    7791
    7798    7799    7773    7775    7781    7782    7783    7792    7793    7800
    7801    7802    7774    7775    7781    7782    7783    7786    7793    7794
    7796    7797    7802    7775    7784    7785    7786    7795    7796    7803
    7804    7805    7783    7784    7785    7786    7793    7794    7796    7797
    7805    7787    7788    7789    7778    7779    7780    7790    7791    7798
    7799    7779    7790    7780    7790    7791    7798    7799    7806    7807
    7808    7809    7791    7782    7783    7792    7793    7794    7800    7801
    7802    7810    7811    7812    7813    7792    7793    7786    7792    7793
    7794    7802    7785    7795    7796    7786    7795    7796    7797    7803
    7804    7805    7814    7815    7816    7817    7795    7796    7797    7805
    7788    7789    7789       0    7791    7798    7799    7806    7807    7808
    7809    7818    7819    7820    7821    7822    7823    7824    7825    7793
    7800    7801    7802    7810    7811    7812    7813    7826    7827    7828
    7829    7830    7831    7832    7833    7794    7800    7801    7802    7802
    7796    7803    7804    7805    7814    7815    7816    7817    7834    7835
    7836    7837    7838    7839    7840    7841    7797    7803    7804    7805
    7805    7799    7806    7807    7808    7809    7818    7819    7820    7821
    7842    7843    7844    7806    7807    7808    7809    7822    7823    7824
    7825    7845    7846    7847    7801    7810    7811    7812    7813    7826
    7827    7828    7829    7848    7849    7850    7810    7811    7812    7813
    7830    7831    7832    7833    7851    7852    7853       0    7804    7814
    7815    7816    7817    7834    7835    7836    7837    7854    7855    7856
    7814    7815    7816    7817    7838    7839    7840    7841    7857    7858
    7859       0    7807    7818    7819    7820    7821    7842    7843    7860
    7818    7819    7820    7821    7842    7844    7860    7809    7822    7823
    7824    7825    7845    7846    7861    7822    7823    7824    7825    7845
    7847    7861    7811    7826    7827    7828    7829    7848    7849    7862
    7826    7827    7828    7829    7849    7850    7862    7813    7830    7831
    7832    7833    7851    7852    7863    7830    7831    7832    7833    7851
    7853    7863    7815    7834    7835    7836    7837    7854    7855    7864
    7834    7835    7836    7837    7854    7856    7864    7817    7838    7839
    7840    7841    7857    7858    7865    7838    7839    7840    7841    7857
    7859    7865    7819    7820    7842    7843    7844    7860    7866    7842
    7843    7821    7842    7843    7844    7860    7866    7842    7844    7823
    7845    7846    7825    7845    7846    7847    7861    7867    7825    7845
    7847    7845    7846    7847    7861    7867    7827    7828    7848    7849
    7850    7862    7868    7848    7849    7829    7848    7849    7850    7862
    7868    7849    7850    7831    7832    7851    7852    7853    7863    7869
    7851    7852    7833    7851    7852    7853    7863    7869    7851    7853
    7835    7836    7854    7855    7856    7864    7870    7854    7855    7837
    7854    7855    7856    7864    7870    7854    7856    7839    7840    7857
    7858    7859    7865    7871    7857    7858    7841    7857    7858    7859
    7865    7871    7857    7859    7843    7844    7860    7866    7872    7873
    7874    7860    7860    7846    7847    7861    7867    7875    7876    7877
    7861    7861    7849    7862    7850    7862    7868    7878    7879    7880
    7862    7852    7853    7863    7869    7881    7882    7883    7863    7863
    7855    7856    7864    7870    7884    7885    7886    7864    7864    7858
    7859    7865    7871    7887    7888    7889    7865    7865    7866    7872
    7873    7874    7867    7875    7876    7877    7868    7878    7879    7880
    7869    7881    7882    7883    7870    7884    7885    7886    7871    7887
    7888    7889    7872    7873    7874    7875    7876    7877    7878    7879
    7880    7881    7882    7883    7884    7885    7886    7887    7888    7889
    7873    7874    7874       0    7876    7877    7877       0    7879    7880
    7880       0    7882    7883    7883       0    7885    7886    7886       0
    7888    7889    7889       0    7891    7892    7893    7894    7895    7896
    7897    7898    7899    7900    7901    7892    7893    7894    7895    7896
    7897    7898    7899    7900    7901    7902    7903    7904    7893    7894
    7895    7896    7897    7894    7898    7899    7900    7901    7902    7903
    7905    7898    7899    7900    7901    7902    7904    7905    7896    7897
    7897       0    7899    7900    7902    7903    7904    7905    7906    7907
    7902    7903    7901    7902    7903    7904    7905    7906    7907    7902
    7904    7903    7904    7905    7906    7907    7908    7909    7910    7911
    7905    7905    7906    7907    7908    7909    7910    7911    7912    7913
    7914    7915    7916    7917    7918    7919    7907    7908    7909    7910
    7911    7912    7913    7914    7915    7920    7921    7922    7908    7909
    7910    7911    7916    7917    7918    7919    7923    7924    7925    7909
    7912    7913    7914    7915    7920    7921    7926    7927    7928    7929
    7912    7913    7914    7915    7920    7922    7926    7911    7916    7917
    7918    7919    7923    7924    7930    7916    7917    7918    7919    7923
    7925    7930    7913    7914    7920    7921    7922    7926    7927    7928
    7929    7931    7932    7933    7934    7935    7936    7920    7921    7915
    7920    7921    7922    7926    7927    7931    7920    7922    7917    7918
    7923    7924    7925    7930    7937    7923    7924    7919    7923    7924
    7925    7930    7937    7923    7925    7921    7922    7926    7927    7928
    7929    7931    7932    7938    7939    7926    7927    7928    7929    7931
    7932    7933    7934    7935    7936    7940    7941    7942    7943    7944
    7945    7946    7947    7926    7924    7925    7930    7937    7948    7949
    7950    7930    7930    7927    7928    7929    7931    7932    7938    7939
    7940    7941    7951    7928    7929    7931    7932    7933    7934    7935
    7936    7938    7939    7940    7941    7952    7929    7932    7933    7934
    7935    7936    7942    7943    7944    7947    7953    7954    7955    7932
    7933    7934    7935    7936    7944    7945    7946    7947    7956    7957
    7958    7937    7948    7949    7950    7932    7938    7939    7940    7951
    7952    7938    7940    7941    7951    7952    7959    7960    7934    7936
    7942    7943    7944    7953    7954    7961    7962    7963    7935    7936
    7942    7943    7944    7947    7954    7955    7957    7958    7963    7936
    7945    7946    7947    7956    7957    7964    7965    7966    7944    7945
    7946    7947    7954    7955    7957    7958    7966    7948    7949    7950
    7939    7940    7941    7951    7952    7959    7960    7940    7951    7941
    7951    7952    7959    7960    7967    7968    7969    7970    7952    7943
    7944    7953    7954    7955    7961    7962    7963    7971    7972    7973
    7974    7953    7954    7947    7953    7954    7955    7963    7946    7956
    7957    7947    7956    7957    7958    7964    7965    7966    7975    7976
    7977    7978    7956    7957    7958    7966    7949    7950    7950       0
    7952    7959    7960    7967    7968    7969    7970    7979    7980    7981
    7982    7983    7984    7985    7986    7954    7961    7962    7963    7971
    7972    7973    7974    7987    7988    7989    7990    7991    7992    7993
    7994    7955    7961    7962    7963    7963    7957    7964    7965    7966
    7975    7976    7977    7978    7995    7996    7997    7998    7999    8000
    8001    8002    7958    7964    7965    7966    7966    7960    7967    7968
    7969    7970    7979    7980    7981    7982    8003    8004    8005    7967
    7968    7969    7970    7983    7984    7985    7986    8006    8007    8008
    7962    7971    7972    7973    7974    7987    7988    7989    7990    8009
    8010    8011    7971    7972    7973    7974    7991    7992    7993    7994
    8012    8013    8014       0    7965    7975    7976    7977    7978    7995
    7996    7997    7998    8015    8016    8017    7975    7976    7977    7978
    7999    8000    8001    8002    8018    8019    8020       0    7968    7979
    7980    7981    7982    8003    8004    8021    7979    7980    7981    7982
    8003    8005    8021    7970    7983    7984    7985    7986    8006    8007
    8022    7983    7984    7985    7986    8006    8008    8022    7972    7987
    7988    7989    7990    8009    8010    8023    7987    7988    7989    7990
    8010    8011    8023    7974    7991    7992    7993    7994    8012    8013
    8024    7991    7992    7993    7994    8012    8014    8024    7976    7995
    7996    7997    7998    8015    8016    8025    7995    7996    7997    7998
    8015    8017    8025    7978    7999    8000    8001    8002    8018    8019
    8026    7999    8000    8001    8002    8018    8020    8026    7980    7981
    8003    8004    8005    8021    8027    8003    8004    7982    8003    8004
    8005    8021    8027    8003    8005    7984    8006    8007    7986    8006
    8007    8008    8022    8028    7986    8006    8008    8006    8007    8008
    8022    8028    7988    7989    8009    8010    8011    8023    8029    8009
    8010    7990    8009    8010    8011    8023    8029    8010    8011    7992
    7993    8012    8013    8014    8024    8030    8012    8013    7994    8012
    8013    8014    8024    8030    8012    8014    7996    7997    8015    8016
    8017    8025    8031    8015    8016    7998    8015    8016    8017    8025
    8031    8015    8017    8000    8001    8018    8019    8020    8026    8032
    8018    8019    8002    8018    8019    8020    8026    8032    8018    8020
    8004    8005    8021    8027    8033    8034    8035    8021    8021    8007
    8008    8022    8028    8036    8037    8038    8022    8022    8010    8023
    8011    8023    8029    8039    8040    8041    8023    8013    8014    8024
    8030    8042    8043    8044    8024    8024    8016    8017    8025    8031
    8045    8046    8047    8025    8025    8019    8020    8026    8032    8048
    8049    8050    8026    8026    8027    8033    8034    8035    8028    8036
    8037    8038    8029    8039    8040    8041    8030    8042    8043    8044
    8031    8045    8046    8047    8032    8048    8049    8050    8033    8034
    8035    8036    8037    8038    8039    8040    8041    8042    8043    8044
    8045    8046    8047    8048    8049    8050    8034    8035    8035       0
    8037    8038    8038       0    8040    8041    8041       0    8043    8044
    8044       0    8046    8047    8047       0    8049    8050    8050       0
    8052    8053    8054    8055    8056    8057    8058    8059    8060    8061
    8062    8053    8054    8055    8056    8057    8058    8059    8060    8061
    8062    8063    8064    8065    8054    8055    8056    8057    8058    8055
    8059    8060    8061    8062    8063    8064    8066    8059    8060    8061
    8062    8063    8065    8066    8057    8058    8058       0    8060    8061
    8063    8064    8065    8066    8067    8068    8063    8064    8062    8063
    8064    8065    8066    8067    8068    8063    8065    8064    8065    8066
    8067    8068    8069    8070    8071    8072    8066    8066    8067    8068
    8069    8070    8071    8072    8073    8074    8075    8076    8077    8078
    8079    8080    8068    8069    8070    8071    8072    8073    8074    8075
    8076    8081    8082    8083    8069    8070    8071    8072    8077    8078
    8079    8080    8084    8085    8086    8070    8073    8074    8075    8076
    8081    8082    8087    8088    8089    8090    8073    8074    8075    8076
    8081    8083    8087    8072    8077    8078    8079    8080    8084    8085
    8091    8077    8078    8079    8080    8084    8086    8091    8074    8075
    8081    8082    8083    8087    8088    8089    8090    8092    8093    8094
    8095    8096    8097    8081    8082    8076    8081    8082    8083    8087
    8088    8092    8081    8083    8078    8079    8084    8085    8086    8091
    8098    8084    8085    8080    8084    8085    8086    8091    8098    8084
    8086    8082    8083    8087    8088    8089    8090    8092    8093    8099
    8100    8087    8088    8089    8090    8092    8093    8094    8095    8096
    8097    8101    8102    8103    8104    8105    8106    8107    8108    8087
    8085    8086    8091    8098    8109    8110    8111    8091    8091    8088
    8089    8090    8092    8093    8099    8100    8101    8102    8112    8089
    8090    8092    8093    8094    8095    8096    8097    8099    8100    8101
    8102    8113    8090    8093    8094    8095    8096    8097    8103    8104
    8105    8108    8114    8115    8116    8093    8094    8095    8096    8097
    8105    8106    8107    8108    8117    8118    8119    8098    8109    8110
    8111    8093    8099    8100    8101    8112    8113    8099    8101    8102
    8112    8113    8120    8121    8095    8097    8103    8104    8105    8114
    8115    8122    8123    8124    8096    8097    8103    8104    8105    8108
    8115    8116    8118    8119    8124    8097    8106    8107    8108    8117
    8118    8125    8126    8127    8105    8106    8107    8108    8115    8116
    8118    8119    8127    8109    8110    8111    8100    8101    8102    8112
    8113    8120    8121    8101    8112    8102    8112    8113    8120    8121
    8128    8129    8130    8131    8113    8104    8105    8114    8115    8116
    8122    8123    8124    8132    8133    8134    8135    8114    8115    8108
    8114    8115    8116    8124    8107    8117    8118    8108    8117    8118
    8119    8125    8126    8127    8136    8137    8138    8139    8117    8118
    8119    8127    8110    8111    8111       0    8113    8120    8121    8128
    8129    8130    8131    8140    8141    8142    8143    8144    8145    8146
    8147    8115    8122    8123    8124    8132    8133    8134    8135    8148
    8149    8150    8151    8152    8153    8154    8155    8116    8122    8123
    8124    8124    8118    8125    8126    8127    8136    8137    8138    8139
    8156    8157    8158    8159    8160    8161    8162    8163    8119    8125
    8126    8127    8127    8121    8128    8129    8130    8131    8140    8141
    8142    8143    8164    8165    8166    8128    8129    8130    8131    8144
    8145    8146    8147    8167    8168    8169    8123    8132    8133    8134
    8135    8148    8149    8150    8151    8170    8171    8172    8132    8133
    8134    8135    8152    8153    8154    8155    8173    8174    8175       0
    8126    8136    8137    8138    8139    8156    8157    8158    8159    8176
    8177    8178    8136    8137    8138    8139    8160    8161    8162    8163
    8179    8180    8181       0    8129    8140    8141    8142    8143    8164
    8165    8182    8140    8141    8142    8143    8164    8166    8182    8131
    8144    8145    8146    8147    8167    8168    8183    8144    8145    8146
    8147    8167    8169    8183    8133    8148    8149    8150    8151    8170
    8171    8184    8148    8149    8150    8151    8171    8172    8184    8135
    8152    8153    8154    8155    8173    8174    8185    8152    8153    8154
    8155    8173    8175    8185    8137    8156    8157    8158    8159    8176
    8177    8186    8156    8157    8158    8159    8176    8178    8186    8139
    8160    8161    8162    8163    8179    8180    8187    8160    8161    8162
    8163    8179    8181    8187    8141    8142    8164    8165    8166    8182
    8188    8164    8165    8143    8164    8165    8166    8182    8188    8164
    8166    8145    8167    8168    8147    8167    8168    8169    8183    8189
    8147    8167    8169    8167    8168    8169    8183    8189    8149    8150
    8170    8171    8172    8184    8190    8170    8171    8151    8170    8171
    8172    8184    8190    8171    8172    8153    8154    8173    8174    8175
    8185    8191    8173    8174    8155    8173    8174    8175    8185    8191
    8173    8175    8157    8158    8176    8177    8178    8186    8192    8176
    8177    8159    8176    8177    8178    8186    8192    8176    8178    8161
    8162    8179    8180    8181    8187    8193    8179    8180    8163    8179
    8180    8181    8187    8193    8179    8181    8165    8166    8182    8188
    8194    8195    8196    8182    8182    8168    8169    8183    8189    8197
    8198    8199    8183    8183    8171    8184    8172    8184    8190    8200
    8201    8202    8184    8174    8175    8185    8191    8203    8204    8205
    8185    8185    8177    8178    8186    8192    8206    8207    8208    8186
    8186    8180    8181    8187    8193    8209    8210    8211    8187    8187
    8188    8194    8195    8196    8189    8197    8198    8199    8190    8200
    8201    8202    8191    8203    8204    8205    8192    8206    8207    8208
    8193    8209    8210    8211    8194    8195    8196    8197    8198    8199
    8200    8201    8202    8203    8204    8205    8206    8207    8208    8209
    8210    8211    8195    8196    8196       0    8198    8199    8199       0
    8201    8202    8202       0    8204    8205    8205       0    8207    8208
    8208       0    8210    8211    8211       0    8213    8214    8215    8216
    8217    8218    8219    8220    8221    8222    8223    8214    8215    8216
    8217    8218    8219    8220    8221    8222    8223    8224    8225    8226
    8215    8216    8217    8218    8219    8216    8220    8221    8222    8223
    8224    8225    8227    8220    8221    8222    8223    8224    8226    8227
    8218    8219    8219       0    8221    8222    8224    8225    8226    8227
    8228    8229    8224    8225    8223    8224    8225    8226    8227    8228
    8229    8224    8226    8225    8226    8227    8228    8229    8230    8231
    8232    8233    8227    8227    8228    8229    8230    8231    8232    8233
    8234    8235    8236    8237    8238    8239    8240    8241    8229    8230
    8231    8232    8233    8234    8235    8236    8237    8242    8243    8244
    8230    8231    8232    8233    8238    8239    8240    8241    8245    8246
    8247    8231    8234    8235    8236    8237    8242    8243    8248    8249
    8250    8251    8234    8235    8236    8237    8242    8244    8248    8233
    8238    8239    8240    8241    8245    8246    8252    8238    8239    8240
    8241    8245    8247    8252    8235    8236    8242    8243    8244    8248
    8249    8250    8251    8253    8254    8255    8256    8257    8258    8242
    8243    8237    8242    8243    8244    8248    8249    8253    8242    8244
    8239    8240    8245    8246    8247    8252    8259    8245    8246    8241
    8245    8246    8247    8252    8259    8245    8247    8243    8244    8248
    8249    8250    8251    8253    8254    8260    8261    8248    8249    8250
    8251    8253    8254    8255    8256    8257    8258    8262    8263    8264
    8265    8266    8267    8268    8269    8248    8246    8247    8252    8259
    8270    8271    8272    8252    8252    8249    8250    8251    8253    8254
    8260    8261    8262    8263    8273    8250    8251    8253    8254    8255
    8256    8257    8258    8260    8261    8262    8263    8274    8251    8254
    8255    8256    8257    8258    8264    8265    8266    8269    8275    8276
    8277    8254    8255    8256    8257    8258    8266    8267    8268    8269
    8278    8279    8280    8259    8270    8271    8272    8254    8260    8261
    8262    8273    8274    8260    8262    8263    8273    8274    8281    8282
    8256    8258    8264    8265    8266    8275    8276    8283    8284    8285
    8257    8258    8264    8265    8266    8269    8276    8277    8279    8280
    8285    8258    8267    8268    8269    8278    8279    8286    8287    8288
    8266    8267    8268    8269    8276    8277    8279    8280    8288    8270
    8271    8272    8261    8262    8263    8273    8274    8281    8282    8262
    8273    8263    8273    8274    8281    8282    8289    8290    8291    8292
    8274    8265    8266    8275    8276    8277    8283    8284    8285    8293
    8294    8295    8296    8275    8276    8269    8275    8276    8277    8285
    8268    8278    8279    8269    8278    8279    8280    8286    8287    8288
    8297    8298    8299    8300    8278    8279    8280    8288    8271    8272
    8272       0    8274    8281    8282    8289    8290    8291    8292    8301
    8302    8303    8304    8305    8306    8307    8308    8276    8283    8284
    8285    8293    8294    8295    8296    8309    8310    8311    8312    8313
    8314    8315    8316    8277    8283    8284    8285    8285    8279    8286
    8287    8288    8297    8298    8299    8300    8317    8318    8319    8320
    8321    8322    8323    8324    8280    8286    8287    8288    8288    8282
    8289    8290    8291    8292    8301    8302    8303    8304    8325    8326
    8327    8289    8290    8291    8292    8305    8306    8307    8308    8328
    8329    8330    8284    8293    8294    8295    8296    8309    8310    8311
    8312    8331    8332    8333    8293    8294    8295    8296    8313    8314
    8315    8316    8334    8335    8336       0    8287    8297    8298    8299
    8300    8317    8318    8319    8320    8337    8338    8339    8297    8298
    8299    8300    8321    8322    8323    8324    8340    8341    8342       0
    8290    8301    8302    8303    8304    8325    8326    8343    8301    8302
    8303    8304    8325    8327    8343    8292    8305    8306    8307    8308
    8328    8329    8344    8305    8306    8307    8308    8328    8330    8344
    8294    8309    8310    8311    8312    8331    8332    8345    8309    8310
    8311    8312    8332    8333    8345    8296    8313    8314    8315    8316
    8334    8335    8346    8313    8314    8315    8316    8334    8336    8346
    8298    8317    8318    8319    8320    8337    8338    8347    8317    8318
    8319    8320    8337    8339    8347    8300    8321    8322    8323    8324
    8340    8341    8348    8321    8322    8323    8324    8340    8342    8348
    8302    8303    8325    8326    8327    8343    8349    8325    8326    8304
    8325    8326    8327    8343    8349    8325    8327    8306    8328    8329
    8308    8328    8329    8330    8344    8350    8308    8328    8330    8328
    8329    8330    8344    8350    8310    8311    8331    8332    8333    8345
    8351    8331    8332    8312    8331    8332    8333    8345    8351    8332
    8333    8314    8315    8334    8335    8336    8346    8352    8334    8335
    8316    8334    8335    8336    8346    8352    8334    8336    8318    8319
    8337    8338    8339    8347    8353    8337    8338    8320    8337    8338
    8339    8347    8353    8337    8339    8322    8323    8340    8341    8342
    8348    8354    8340    8341    8324    8340    8341    8342    8348    8354
    8340    8342    8326    8327    8343    8349    8355    8356    8357    8343
    8343    8329    8330    8344    8350    8358    8359    8360    8344    8344
    8332    8345    8333    8345    8351    8361    8362    8363    8345    8335
    8336    8346    8352    8364    8365    8366    8346    8346    8338    8339
    8347    8353    8367    8368    8369    8347    8347    8341    8342    8348
    8354    8370    8371    8372    8348    8348    8349    8355    8356    8357
    8350    8358    8359    8360    8351    8361    8362    8363    8352    8364
    8365    8366    8353    8367    8368    8369    8354    8370    8371    8372
    8355    8356    8357    8358    8359    8360    8361    8362    8363    8364
    8365    8366    8367    8368    8369    8370    8371    8372    8356    8357
    8357       0    8359    8360    8360       0    8362    8363    8363       0
    8365    8366    8366       0    8368    8369    8369       0    8371    8372
    8372       0    8374    8375    8376    8377    8378    8379    8380    8381
    8382    8383    8384    8375    8376    8377    8378    8379    8380    8381
    8382    8383    8384    8385    8386    8387    8376    8377    8378    8379
    8380    8377    8381    8382    8383    8384    8385    8386    8388    8381
    8382    8383    8384    8385    8387    8388    8379    8380    8380       0
    8382    8383    8385    8386    8387    8388    8389    8390    8385    8386
    8384    8385    8386    8387    8388    8389    8390    8385    8387    8386
    8387    8388    8389    8390    8391    8392    8393    8394    8388    8388
    8389    8390    8391    8392    8393    8394    8395    8396    8397    8398
    8399    8400    8401    8402    8390    8391    8392    8393    8394    8395
    8396    8397    8398    8403    8404    8405    8391    8392    8393    8394
    8399    8400    8401    8402    8406    8407    8408    8392    8395    8396
    8397    8398    8403    8404    8409    8410    8411    8412    8395    8396
    8397    8398    8403    8405    8409    8394    8399    8400    8401    8402
    8406    8407    8413    8399    8400    8401    8402    8406    8408    8413
    8396    8397    8403    8404    8405    8409    8410    8411    8412    8414
    8415    8416    8417    8418    8419    8403    8404    8398    8403    8404
    8405    8409    8410    8414    8403    8405    8400    8401    8406    8407
    8408    8413    8420    8406    8407    8402    8406    8407    8408    8413
    8420    8406    8408    8404    8405    8409    8410    8411    8412    8414
    8415    8421    8422    8409    8410    8411    8412    8414    8415    8416
    8417    8418    8419    8423    8424    8425    8426    8427    8428    8429
    8430    8409    8407    8408    8413    8420    8431    8432    8433    8413
    8413    8410    8411    8412    8414    8415    8421    8422    8423    8424
    8434    8411    8412    8414    8415    8416    8417    8418    8419    8421
    8422    8423    8424    8435    8412    8415    8416    8417    8418    8419
    8425    8426    8427    8430    8436    8437    8438    8415    8416    8417
    8418    8419    8427    8428    8429    8430    8439    8440    8441    8420
    8431    8432    8433    8415    8421    8422    8423    8434    8435    8421
    8423    8424    8434    8435    8442    8443    8417    8419    8425    8426
    8427    8436    8437    8444    8445    8446    8418    8419    8425    8426
    8427    8430    8437    8438    8440    8441    8446    8419    8428    8429
    8430    8439    8440    8447    8448    8449    8427    8428    8429    8430
    8437    8438    8440    8441    8449    8431    8432    8433    8422    8423
    8424    8434    8435    8442    8443    8423    8434    8424    8434    8435
    8442    8443    8450    8451    8452    8453    8435    8426    8427    8436
    8437    8438    8444    8445    8446    8454    8455    8456    8457    8436
    8437    8430    8436    8437    8438    8446    8429    8439    8440    8430
    8439    8440    8441    8447    8448    8449    8458    8459    8460    8461
    8439    8440    8441    8449    8432    8433    8433       0    8435    8442
    8443    8450    8451    8452    8453    8462    8463    8464    8465    8466
    8467    8468    8469    8437    8444    8445    8446    8454    8455    8456
    8457    8470    8471    8472    8473    8474    8475    8476    8477    8438
    8444    8445    8446    8446    8440    8447    8448    8449    8458    8459
    8460    8461    8478    8479    8480    8481    8482    8483    8484    8485
    8441    8447    8448    8449    8449    8443    8450    8451    8452    8453
    8462    8463    8464    8465    8486    8487    8488    8450    8451    8452
    8453    8466    8467    8468    8469    8489    8490    8491    8445    8454
    8455    8456    8457    8470    8471    8472    8473    8492    8493    8494
    8454    8455    8456    8457    8474    8475    8476    8477    8495    8496
    8497       0    8448    8458    8459    8460    8461    8478    8479    8480
    8481    8498    8499    8500    8458    8459    8460    8461    8482    8483
    8484    8485    8501    8502    8503       0    8451    8462    8463    8464
    8465    8486    8487    8504    8462    8463    8464    8465    8486    8488
    8504    8453    8466    8467    8468    8469    8489    8490    8505    8466
    8467    8468    8469    8489    8491    8505    8455    8470    8471    8472
    8473    8492    8493    8506    8470    8471    8472    8473    8493    8494
    8506    8457    8474    8475    8476    8477    8495    8496    8507    8474
    8475    8476    8477    8495    8497    8507    8459    8478    8479    8480
    8481    8498    8499    8508    8478    8479    8480    8481    8498    8500
    8508    8461    8482    8483    8484    8485    8501    8502    8509    8482
    8483    8484    8485    8501    8503    8509    8463    8464    8486    8487
    8488    8504    8510    8486    8487    8465    8486    8487    8488    8504
    8510    8486    8488    8467    8489    8490    8469    8489    8490    8491
    8505    8511    8469    8489    8491    8489    8490    8491    8505    8511
    8471    8472    8492    8493    8494    8506    8512    8492    8493    8473
    8492    8493    8494    8506    8512    8493    8494    8475    8476    8495
    8496    8497    8507    8513    8495    8496    8477    8495    8496    8497
    8507    8513    8495    8497    8479    8480    8498    8499    8500    8508
    8514    8498    8499    8481    8498    8499    8500    8508    8514    8498
    8500    8483    8484    8501    8502    8503    8509    8515    8501    8502
    8485    8501    8502    8503    8509    8515    8501    8503    8487    8488
    8504    8510    8516    8517    8518    8504    8504    8490    8491    8505
    8511    8519    8520    8521    8505    8505    8493    8506    8494    8506
    8512    8522    8523    8524    8506    8496    8497    8507    8513    8525
    8526    8527    8507    8507    8499    8500    8508    8514    8528    8529
    8530    8508    8508    8502    8503    8509    8515    8531    8532    8533
    8509    8509    8510    8516    8517    8518    8511    8519    8520    8521
    8512    8522    8523    8524    8513    8525    8526    8527    8514    8528
    8529    8530    8515    8531    8532    8533    8516    8517    8518    8519
    8520    8521    8522    8523    8524    8525    8526    8527    8528    8529
    8530    8531    8532    8533    8517    8518    8518       0    8520    8521
    8521       0    8523    8524    8524       0    8526    8527    8527       0
    8529    8530    8530       0    8532    8533    8533       0    8535    8536
    8537    8538    8539    8540    8541    8542    8543    8544    8545    8536
    8537    8538    8539    8540    8541    8542    8543    8544    8545    8546
    8547    8548    8537    8538    8539    8540    8541    8538    8542    8543
    8544    8545    8546    8547    8549    8542    8543    8544    8545    8546
    8548    8549    8540    8541    8541       0    8543    8544    8546    8547
    8548    8549    8550    8551    8546    8547    8545    8546    8547    8548
    8549    8550    8551    8546    8548    8547    8548    8549    8550    8551
    8552    8553    8554    8555    8549    8549    8550    8551    8552    8553
    8554    8555    8556    8557    8558    8559    8560    8561    8562    8563
    8551    8552    8553    8554    8555    8556    8557    8558    8559    8564
    8565    8566    8552    8553    8554    8555    8560    8561    8562    8563
    8567    8568    8569    8553    8556    8557    8558    8559    8564    8565
    8570    8571    8572    8573    8556    8557    8558    8559    8564    8566
    8570    8555    8560    8561    8562    8563    8567    8568    8574    8560
    8561    8562    8563    8567    8569    8574    8557    8558    8564    8565
    8566    8570    8571    8572    8573    8575    8576    8577    8578    8579
    8580    8564    8565    8559    8564    8565    8566    8570    8571    8575
    8564    8566    8561    8562    8567    8568    8569    8574    8581    8567
    8568    8563    8567    8568    8569    8574    8581    8567    8569    8565
    8566    8570    8571    8572    8573    8575    8576    8582    8583    8570
    8571    8572    8573    8575    8576    8577    8578    8579    8580    8584
    8585    8586    8587    8588    8589    8590    8591    8570    8568    8569
    8574    8581    8592    8593    8594    8574    8574    8571    8572    8573
    8575    8576    8582    8583    8584    8585    8595    8572    8573    8575
    8576    8577    8578    8579    8580    8582    8583    8584    8585    8596
    8573    8576    8577    8578    8579    8580    8586    8587    8588    8591
    8597    8598    8599    8576    8577    8578    8579    8580    8588    8589
    8590    8591    8600    8601    8602    8581    8592    8593    8594    8576
    8582    8583    8584    8595    8596    8582    8584    8585    8595    8596
    8603    8604    8578    8580    8586    8587    8588    8597    8598    8605
    8606    8607    8579    8580    8586    8587    8588    8591    8598    8599
    8601    8602    8607    8580    8589    8590    8591    8600    8601    8608
    8609    8610    8588    8589    8590    8591    8598    8599    8601    8602
    8610    8592    8593    8594    8583    8584    8585    8595    8596    8603
    8604    8584    8595    8585    8595    8596    8603    8604    8611    8612
    8613    8614    8596    8587    8588    8597    8598    8599    8605    8606
    8607    8615    8616    8617    8618    8597    8598    8591    8597    8598
    8599    8607    8590    8600    8601    8591    8600    8601    8602    8608
    8609    8610    8619    8620    8621    8622    8600    8601    8602    8610
    8593    8594    8594       0    8596    8603    8604    8611    8612    8613
    8614    8623    8624    8625    8626    8627    8628    8629    8630    8598
    8605    8606    8607    8615    8616    8617    8618    8631    8632    8633
    8634    8635    8636    8637    8638    8599    8605    8606    8607    8607
    8601    8608    8609    8610    8619    8620    8621    8622    8639    8640
    8641    8642    8643    8644    8645    8646    8602    8608    8609    8610
    8610    8604    8611    8612    8613    8614    8623    8624    8625    8626
    8647    8648    8649    8611    8612    8613    8614    8627    8628    8629
    8630    8650    8651    8652    8606    8615    8616    8617    8618    8631
    8632    8633    8634    8653    8654    8655    8615    8616    8617    8618
    8635    8636    8637    8638    8656    8657    8658       0    8609    8619
    8620    8621    8622    8639    8640    8641    8642    8659    8660    8661
    8619    8620    8621    8622    8643    8644    8645    8646    8662    8663
    8664       0    8612    8623    8624    8625    8626    8647    8648    8665
    8623    8624    8625    8626    8647    8649    8665    8614    8627    8628
    8629    8630    8650    8651    8666    8627    8628    8629    8630    8650
    8652    8666    8616    8631    8632    8633    8634    8653    8654    8667
    8631    8632    8633    8634    8654    8655    8667    8618    8635    8636
    8637    8638    8656    8657    8668    8635    8636    8637    8638    8656
    8658    8668    8620    8639    8640    8641    8642    8659    8660    8669
    8639    8640    8641    8642    8659    8661    8669    8622    8643    8644
    8645    8646    8662    8663    8670    8643    8644    8645    8646    8662
    8664    8670    8624    8625    8647    8648    8649    8665    8671    8647
    8648    8626    8647    8648    8649    8665    8671    8647    8649    8628
    8650    8651    8630    8650    8651    8652    8666    8672    8630    8650
    8652    8650    8651    8652    8666    8672    8632    8633    8653    8654
    8655    8667    8673    8653    8654    8634    8653    8654    8655    8667
    8673    8654    8655    8636    8637    8656    8657    8658    8668    8674
    8656    8657    8638    8656    8657    8658    8668    8674    8656    8658
    8640    8641    8659    8660    8661    8669    8675    8659    8660    8642
    8659    8660    8661    8669    8675    8659    8661    8644    8645    8662
    8663    8664    8670    8676    8662    8663    8646    8662    8663    8664
    8670    8676    8662    8664    8648    8649    8665    8671    8677    8678
    8679    8665    8665    8651    8652    8666    8672    8680    8681    8682
    8666    8666    8654    8667    8655    8667    8673    8683    8684    8685
    8667    8657    8658    8668    8674    8686    8687    8688    8668    8668
    8660    8661    8669    8675    8689    8690    8691    8669    8669    8663
    8664    8670    8676    8692    8693    8694    8670    8670    8671    8677
    8678    8679    8672    8680    8681    8682    8673    8683    8684    8685
    8674    8686    8687    8688    8675    8689    8690    8691    8676    8692
    8693    8694    8677    8678    8679    8680    8681    8682    8683    8684
    8685    8686    8687    8688    8689    8690    8691    8692    8693    8694
    8678    8679    8679       0    8681    8682    8682       0    8684    8685
    8685       0    8687    8688    8688       0    8690    8691    8691       0
    8693    8694    8694       0    8696    8697    8698    8699    8700    8701
    8702    8703    8704    8705    8706    8697    8698    8699    8700    8701
    8702    8703    8704    8705    8706    8707    8708    8709    8698    8699
    8700    8701    8702    8699    8703    8704    8705    8706    8707    8708
    8710    8703    8704    8705    8706    8707    8709    8710    8701    8702
    8702       0    8704    8705    8707    8708    8709    8710    8711    8712
    8707    8708    8706    8707    8708    8709    8710    8711    8712    8707
    8709    8708    8709    8710    8711    8712    8713    8714    8715    8716
    8710    8710    8711    8712    8713    8714    8715    8716    8717    8718
    8719    8720    8721    8722    8723    8724    8712    8713    8714    8715
    8716    8717    8718    8719    8720    8725    8726    8727    8713    8714
    8715    8716    8721    8722    8723    8724    8728    8729    8730    8714
    8717    8718    8719    8720    8725    8726    8731    8732    8733    8734
    8717    8718    8719    8720    8725    8727    8731    8716    8721    8722
    8723    8724    8728    8729    8735    8721    8722    8723    8724    8728
    8730    8735    8718    8719    8725    8726    8727    8731    8732    8733
    8734    8736    8737    8738    8739    8740    8741    8725    8726    8720
    8725    8726    8727    8731    8732    8736    8725    8727    8722    8723
    8728    8729    8730    8735    8742    8728    8729    8724    8728    8729
    8730    8735    8742    8728    8730    8726    8727    8731    8732    8733
    8734    8736    8737    8743    8744    8731    8732    8733    8734    8736
    8737    8738    8739    8740    8741    8745    8746    8747    8748    8749
    8750    8751    8752    8731    8729    8730    8735    8742    8753    8754
    8755    8735    8735    8732    8733    8734    8736    8737    8743    8744
    8745    8746    8756    8733    8734    8736    8737    8738    8739    8740
    8741    8743    8744    8745    8746    8757    8734    8737    8738    8739
    8740    8741    8747    8748    8749    8752    8758    8759    8760    8737
    8738    8739    8740    8741    8749    8750    8751    8752    8761    8762
    8763    8742    8753    8754    8755    8737    8743    8744    8745    8756
    8757    8743    8745    8746    8756    8757    8764    8765    8739    8741
    8747    8748    8749    8758    8759    8766    8767    8768    8740    8741
    8747    8748    8749    8752    8759    8760    8762    8763    8768    8741
    8750    8751    8752    8761    8762    8769    8770    8771    8749    8750
    8751    8752    8759    8760    8762    8763    8771    8753    8754    8755
    8744    8745    8746    8756    8757    8764    8765    8745    8756    8746
    8756    8757    8764    8765    8772    8773    8774    8775    8757    8748
    8749    8758    8759    8760    8766    8767    8768    8776    8777    8778
    8779    8758    8759    8752    8758    8759    8760    8768    8751    8761
    8762    8752    8761    8762    8763    8769    8770    8771    8780    8781
    8782    8783    8761    8762    8763    8771    8754    8755    8755       0
    8757    8764    8765    8772    8773    8774    8775    8784    8785    8786
    8787    8788    8789    8790    8791    8759    8766    8767    8768    8776
    8777    8778    8779    8792    8793    8794    8795    8796    8797    8798
    8799    8760    8766    8767    8768    8768    8762    8769    8770    8771
    8780    8781    8782    8783    8800    8801    8802    8803    8804    8805
    8806    8807    8763    8769    8770    8771    8771    8765    8772    8773
    8774    8775    8784    8785    8786    8787    8808    8809    8810    8772
    8773    8774    8775    8788    8789    8790    8791    8811    8812    8813
    8767    8776    8777    8778    8779    8792    8793    8794    8795    8814
    8815    8816    8776    8777    8778    8779    8796    8797    8798    8799
    8817    8818    8819       0    8770    8780    8781    8782    8783    8800
    8801    8802    8803    8820    8821    8822    8780    8781    8782    8783
    8804    8805    8806    8807    8823    8824    8825       0    8773    8784
    8785    8786    8787    8808    8809    8826    8784    8785    8786    8787
    8808    8810    8826    8775    8788    8789    8790    8791    8811    8812
    8827    8788    8789    8790    8791    8811    8813    8827    8777    8792
    8793    8794    8795    8814    8815    8828    8792    8793    8794    8795
    8815    8816    8828    8779    8796    8797    8798    8799    8817    8818
    8829    8796    8797    8798    8799    8817    8819    8829    8781    8800
    8801    8802    8803    8820    8821    8830    8800    8801    8802    8803
    8820    8822    8830    8783    8804    8805    8806    8807    8823    8824
    8831    8804    8805    8806    8807    8823    8825    8831    8785    8786
    8808    8809    8810    8826    8832    8808    8809    8787    8808    8809
    8810    8826    8832    8808    8810    8789    8811    8812    8791    8811
    8812    8813    8827    8833    8791    8811    8813    8811    8812    8813
    8827    8833    8793    8794    8814    8815    8816    8828    8834    8814
    8815    8795    8814    8815    8816    8828    8834    8815    8816    8797
    8798    8817    8818    8819    8829    8835    8817    8818    8799    8817
    8818    8819    8829    8835    8817    8819    8801    8802    8820    8821
    8822    8830    8836    8820    8821    8803    8820    8821    8822    8830
    8836    8820    8822    8805    8806    8823    8824    8825    8831    8837
    8823    8824    8807    8823    8824    8825    8831    8837    8823    8825
    8809    8810    8826    8832    8838    8839    8840    8826    8826    8812
    8813    8827    8833    8841    8842    8843    8827    8827    8815    8828
    8816    8828    8834    8844    8845    8846    8828    8818    8819    8829
    8835    8847    8848    8849    8829    8829    8821    8822    8830    8836
    8850    8851    8852    8830    8830    8824    8825    8831    8837    8853
    8854    8855    8831    8831    8832    8838    8839    8840    8833    8841
    8842    8843    8834    8844    8845    8846    8835    8847    8848    8849
    8836    8850    8851    8852    8837    8853    8854    8855    8838    8839
    8840    8841    8842    8843    8844    8845    8846    8847    8848    8849
    8850    8851    8852    8853    8854    8855    8839    8840    8840       0
    8842    8843    8843       0    8845    8846    8846       0    8848    8849
    8849       0    8851    8852    8852       0    8854    8855    8855       0
    8857    8858    8859    8860    8861    8862    8863    8864    8865    8866
    8867    8858    8859    8860    8861    8862    8863    8864    8865    8866
    8867    8868    8869    8870    8859    8860    8861    8862    8863    8860
    8864    8865    8866    8867    8868    8869    8871    8864    8865    8866
    8867    8868    8870    8871    8862    8863    8863       0    8865    8866
    8868    8869    8870    8871    8872    8873    8868    8869    8867    8868
    8869    8870    8871    8872    8873    8868    8870    8869    8870    8871
    8872    8873    8874    8875    8876    8877    8871    8871    8872    8873
    8874    8875    8876    8877    8878    8879    8880    8881    8882    8883
    8884    8885    8873    8874    8875    8876    8877    8878    8879    8880
    8881    8886    8887    8888    8874    8875    8876    8877    8882    8883
    8884    8885    8889    8890    8891    8875    8878    8879    8880    8881
    8886    8887    8892    8893    8894    8895    8878    8879    8880    8881
    8886    8888    8892    8877    8882    8883    8884    8885    8889    8890
    8896    8882    8883    8884    8885    8889    8891    8896    8879    8880
    8886    8887    8888    8892    8893    8894    8895    8897    8898    8899
    8900    8901    8902    8886    8887    8881    8886    8887    8888    8892
    8893    8897    8886    8888    8883    8884    8889    8890    8891    8896
    8903    8889    8890    8885    8889    8890    8891    8896    8903    8889
    8891    8887    8888    8892    8893    8894    8895    8897    8898    8904
    8905    8892    8893    8894    8895    8897    8898    8899    8900    8901
    8902    8906    8907    8908    8909    8910    8911    8912    8913    8892
    8890    8891    8896    8903    8914    8915    8916    8896    8896    8893
    8894    8895    8897    8898    8904    8905    8906    8907    8917    8894
    8895    8897    8898    8899    8900    8901    8902    8904    8905    8906
    8907    8918    8895    8898    8899    8900    8901    8902    8908    8909
    8910    8913    8919    8920    8921    8898    8899    8900    8901    8902
    8910    8911    8912    8913    8922    8923    8924    8903    8914    8915
    8916    8898    8904    8905    8906    8917    8918    8904    8906    8907
    8917    8918    8925    8926    8900    8902    8908    8909    8910    8919
    8920    8927    8928    8929    8901    8902    8908    8909    8910    8913
    8920    8921    8923    8924    8929    8902    8911    8912    8913    8922
    8923    8930    8931    8932    8910    8911    8912    8913    8920    8921
    8923    8924    8932    8914    8915    8916    8905    8906    8907    8917
    8918    8925    8926    8906    8917    8907    8917    8918    8925    8926
    8933    8934    8935    8936    8918    8909    8910    8919    8920    8921
    8927    8928    8929    8937    8938    8939    8940    8919    8920    8913
    8919    8920    8921    8929    8912    8922    8923    8913    8922    8923
    8924    8930    8931    8932    8941    8942    8943    8944    8922    8923
    8924    8932    8915    8916    8916       0    8918    8925    8926    8933
    8934    8935    8936    8945    8946    8947    8948    8949    8950    8951
    8952    8920    8927    8928    8929    8937    8938    8939    8940    8953
    8954    8955    8956    8957    8958    8959    8960    8921    8927    8928
    8929    8929    8923    8930    8931    8932    8941    8942    8943    8944
    8961    8962    8963    8964    8965    8966    8967    8968    8924    8930
    8931    8932    8932    8926    8933    8934    8935    8936    8945    8946
    8947    8948    8969    8970    8971    8933    8934    8935    8936    8949
    8950    8951    8952    8972    8973    8974    8928    8937    8938    8939
    8940    8953    8954    8955    8956    8975    8976    8977    8937    8938
    8939    8940    8957    8958    8959    8960    8978    8979    8980       0
    8931    8941    8942    8943    8944    8961    8962    8963    8964    8981
    8982    8983    8941    8942    8943    8944    8965    8966    8967    8968
    8984    8985    8986       0    8934    8945    8946    8947    8948    8969
    8970    8987    8945    8946    8947    8948    8969    8971    8987    8936
    8949    8950    8951    8952    8972    8973    8988    8949    8950    8951
    8952    8972    8974    8988    8938    8953    8954    8955    8956    8975
    8976    8989    8953    8954    8955    8956    8976    8977    8989    8940
    8957    8958    8959    8960    8978    8979    8990    8957    8958    8959
    8960    8978    8980    8990    8942    8961    8962    8963    8964    8981
    8982    8991    8961    8962    8963    8964    8981    8983    8991    8944
    8965    8966    8967    8968    8984    8985    8992    8965    8966    8967
    8968    8984    8986    8992    8946    8947    8969    8970    8971    8987
    8993    8969    8970    8948    8969    8970    8971    8987    8993    8969
    8971    8950    8972    8973    8952    8972    8973    8974    8988    8994
    8952    8972    8974    8972    8973    8974    8988    8994    8954    8955
    8975    8976    8977    8989    8995    8975    8976    8956    8975    8976
    8977    8989    8995    8976    8977    8958    8959    8978    8979    8980
    8990    8996    8978    8979    8960    8978    8979    8980    8990    8996
    8978    8980    8962    8963    8981    8982    8983    8991    8997    8981
    8982    8964    8981    8982    8983    8991    8997    8981    8983    8966
    8967    8984    8985    8986    8992    8998    8984    8985    8968    8984
    8985    8986    8992    8998    8984    8986    8970    8971    8987    8993
    8999    9000    9001    8987    8987    8973    8974    8988    8994    9002
    9003    9004    8988    8988    8976    8989    8977    8989    8995    9005
    9006    9007    8989    8979    8980    8990    8996    9008    9009    9010
    8990    8990    8982    8983    8991    8997    9011    9012    9013    8991
    8991    8985    8986    8992    8998    9014    9015    9016    8992    8992
    8993    8999    9000    9001    8994    9002    9003    9004    8995    9005
    9006    9007    8996    9008    9009    9010    8997    9011    9012    9013
    8998    9014    9015    9016    8999    9000    9001    9002    9003    9004
    9005    9006    9007    9008    9009    9010    9011    9012    9013    9014
    9015    9016    9000    9001    9001       0    9003    9004    9004       0
    9006    9007    9007       0    9009    9010    9010       0    9012    9013
    9013       0    9015    9016    9016       0    9018    9019    9020    9021
    9022    9023    9024    9025    9026    9027    9028    9019    9020    9021
    9022    9023    9024    9025    9026    9027    9028    9029    9030    9031
    9020    9021    9022    9023    9024    9021    9025    9026    9027    9028
    9029    9030    9032    9025    9026    9027    9028    9029    9031    9032
    9023    9024    9024       0    9026    9027    9029    9030    9031    9032
    9033    9034    9029    9030    9028    9029    9030    9031    9032    9033
    9034    9029    9031    9030    9031    9032    9033    9034    9035    9036
    9037    9038    9032    9032    9033    9034    9035    9036    9037    9038
    9039    9040    9041    9042    9043    9044    9045    9046    9034    9035
    9036    9037    9038    9039    9040    9041    9042    9047    9048    9049
    9035    9036    9037    9038    9043    9044    9045    9046    9050    9051
    9052    9036    9039    9040    9041    9042    9047    9048    9053    9054
    9055    9056    9039    9040    9041    9042    9047    9049    9053    9038
    9043    9044    9045    9046    9050    9051    9057    9043    9044    9045
    9046    9050    9052    9057    9040    9041    9047    9048    9049    9053
    9054    9055    9056    9058    9059    9060    9061    9062    9063    9047
    9048    9042    9047    9048    9049    9053    9054    9058    9047    9049
    9044    9045    9050    9051    9052    9057    9064    9050    9051    9046
    9050    9051    9052    9057    9064    9050    9052    9048    9049    9053
    9054    9055    9056    9058    9059    9065    9066    9053    9054    9055
    9056    9058    9059    9060    9061    9062    9063    9067    9068    9069
    9070    9071    9072    9073    9074    9053    9051    9052    9057    9064
    9075    9076    9077    9057    9057    9054    9055    9056    9058    9059
    9065    9066    9067    9068    9078    9055    9056    9058    9059    9060
    9061    9062    9063    9065    9066    9067    9068    9079    9056    9059
    9060    9061    9062    9063    9069    9070    9071    9074    9080    9081
    9082    9059    9060    9061    9062    9063    9071    9072    9073    9074
    9083    9084    9085    9064    9075    9076    9077    9059    9065    9066
    9067    9078    9079    9065    9067    9068    9078    9079    9086    9087
    9061    9063    9069    9070    9071    9080    9081    9088    9089    9090
    9062    9063    9069    9070    9071    9074    9081    9082    9084    9085
    9090    9063    9072    9073    9074    9083    9084    9091    9092    9093
    9071    9072    9073    9074    9081    9082    9084    9085    9093    9075
    9076    9077    9066    9067    9068    9078    9079    9086    9087    9067
    9078    9068    9078    9079    9086    9087    9094    9095    9096    9097
    9079    9070    9071    9080    9081    9082    9088    9089    9090    9098
    9099    9100    9101    9080    9081    9074    9080    9081    9082    9090
    9073    9083    9084    9074    9083    9084    9085    9091    9092    9093
    9102    9103    9104    9105    9083    9084    9085    9093    9076    9077
    9077       0    9079    9086    9087    9094    9095    9096    9097    9106
    9107    9108    9109    9110    9111    9112    9113    9081    9088    9089
    9090    9098    9099    9100    9101    9114    9115    9116    9117    9118
    9119    9120    9121    9082    9088    9089    9090    9090    9084    9091
    9092    9093    9102    9103    9104    9105    9122    9123    9124    9125
    9126    9127    9128    9129    9085    9091    9092    9093    9093    9087
    9094    9095    9096    9097    9106    9107    9108    9109    9130    9131
    9132    9094    9095    9096    9097    9110    9111    9112    9113    9133
    9134    9135    9089    9098    9099    9100    9101    9114    9115    9116
    9117    9136    9137    9138    9098    9099    9100    9101    9118    9119
    9120    9121    9139    9140    9141       0    9092    9102    9103    9104
    9105    9122    9123    9124    9125    9142    9143    9144    9102    9103
    9104    9105    9126    9127    9128    9129    9145    9146    9147       0
    9095    9106    9107    9108    9109    9130    9131    9148    9106    9107
    9108    9109    9130    9132    9148    9097    9110    9111    9112    9113
    9133    9134    9149    9110    9111    9112    9113    9133    9135    9149
    9099    9114    9115    9116    9117    9136    9137    9150    9114    9115
    9116    9117    9137    9138    9150    9101    9118    9119    9120    9121
    9139    9140    9151    9118    9119    9120    9121    9139    9141    9151
    9103    9122    9123    9124    9125    9142    9143    9152    9122    9123
    9124    9125    9142    9144    9152    9105    9126    9127    9128    9129
    9145    9146    9153    9126    9127    9128    9129    9145    9147    9153
    9107    9108    9130    9131    9132    9148    9154    9130    9131    9109
    9130    9131    9132    9148    9154    9130    9132    9111    9133    9134
    9113    9133    9134    9135    9149    9155    9113    9133    9135    9133
    9134    9135    9149    9155    9115    9116    9136    9137    9138    9150
    9156    9136    9137    9117    9136    9137    9138    9150    9156    9137
    9138    9119    9120    9139    9140    9141    9151    9157    9139    9140
    9121    9139    9140    9141    9151    9157    9139    9141    9123    9124
    9142    9143    9144    9152    9158    9142    9143    9125    9142    9143
    9144    9152    9158    9142    9144    9127    9128    9145    9146    9147
    9153    9159    9145    9146    9129    9145    9146    9147    9153    9159
    9145    9147    9131    9132    9148    9154    9160    9161    9162    9148
    9148    9134    9135    9149    9155    9163    9164    9165    9149    9149
    9137    9150    9138    9150    9156    9166    9167    9168    9150    9140
    9141    9151    9157    9169    9170    9171    9151    9151    9143    9144
    9152    9158    9172    9173    9174    9152    9152    9146    9147    9153
    9159    9175    9176    9177    9153    9153    9154    9160    9161    9162
    9155    9163    9164    9165    9156    9166    9167    9168    9157    9169
    9170    9171    9158    9172    9173    9174    9159    9175    9176    9177
    9160    9161    9162    9163    9164    9165    9166    9167    9168    9169
    9170    9171    9172    9173    9174    9175    9176    9177    9161    9162
    9162       0    9164    9165    9165       0    9167    9168    9168       0
    9170    9171    9171       0    9173    9174    9174       0    9176    9177
    9177       0    9179    9180    9181    9182    9183    9184    9185    9186
    9187    9188    9189    9180    9181    9182    9183    9184    9185    9186
    9187    9188    9189    9190    9191    9192    9181    9182    9183    9184
    9185    9182    9186    9187    9188    9189    9190    9191    9193    9186
    9187    9188    9189    9190    9192    9193    9184    9185    9185       0
    9187    9188    9190    9191    9192    9193    9194    9195    9190    9191
    9189    9190    9191    9192    9193    9194    9195    9190    9192    9191
    9192    9193    9194    9195    9196    9197    9198    9199    9193    9193
    9194    9195    9196    9197    9198    9199    9200    9201    9202    9203
    9204    9205    9206    9207    9195    9196    9197    9198    9199    9200
    9201    9202    9203    9208    9209    9210    9196    9197    9198    9199
    9204    9205    9206    9207    9211    9212    9213    9197    9200    9201
    9202    9203    9208    9209    9214    9215    9216    9217    9200    9201
    9202    9203    9208    9210    9214    9199    9204    9205    9206    9207
    9211    9212    9218    9204    9205    9206    9207    9211    9213    9218
    9201    9202    9208    9209    9210    9214    9215    9216    9217    9219
    9220    9221    9222    9223    9224    9208    9209    9203    9208    9209
    9210    9214    9215    9219    9208    9210    9205    9206    9211    9212
    9213    9218    9225    9211    9212    9207    9211    9212    9213    9218
    9225    9211    9213    9209    9210    9214    9215    9216    9217    9219
    9220    9226    9227    9214    9215    9216    9217    9219    9220    9221
    9222    9223    9224    9228    9229    9230    9231    9232    9233    9234
    9235    9214    9212    9213    9218    9225    9236    9237    9238    9218
    9218    9215    9216    9217    9219    9220    9226    9227    9228    9229
    9239    9216    9217    9219    9220    9221    9222    9223    9224    9226
    9227    9228    9229    9240    9217    9220    9221    9222    9223    9224
    9230    9231    9232    9235    9241    9242    9243    9220    9221    9222
    9223    9224    9232    9233    9234    9235    9244    9245    9246    9225
    9236    9237    9238    9220    9226    9227    9228    9239    9240    9226
    9228    9229    9239    9240    9247    9248    9222    9224    9230    9231
    9232    9241    9242    9249    9250    9251    9223    9224    9230    9231
    9232    9235    9242    9243    9245    9246    9251    9224    9233    9234
    9235    9244    9245    9252    9253    9254    9232    9233    9234    9235
    9242    9243    9245    9246    9254    9236    9237    9238    9227    9228
    9229    9239    9240    9247    9248    9228    9239    9229    9239    9240
    9247    9248    9255    9256    9257    9258    9240    9231    9232    9241
    9242    9243    9249    9250    9251    9259    9260    9261    9262    9241
    9242    9235    9241    9242    9243    9251    9234    9244    9245    9235
    9244    9245    9246    9252    9253    9254    9263    9264    9265    9266
    9244    9245    9246    9254    9237    9238    9238       0    9240    9247
    9248    9255    9256    9257    9258    9267    9268    9269    9270    9271
    9272    9273    9274    9242    9249    9250    9251    9259    9260    9261
    9262    9275    9276    9277    9278    9279    9280    9281    9282    9243
    9249    9250    9251    9251    9245    9252    9253    9254    9263    9264
    9265    9266    9283    9284    9285    9286    9287    9288    9289    9290
    9246    9252    9253    9254    9254    9248    9255    9256    9257    9258
    9267    9268    9269    9270    9291    9292    9293    9255    9256    9257
    9258    9271    9272    9273    9274    9294    9295    9296    9250    9259
    9260    9261    9262    9275    9276    9277    9278    9297    9298    9299
    9259    9260    9261    9262    9279    9280    9281    9282    9300    9301
    9302       0    9253    9263    9264    9265    9266    9283    9284    9285
    9286    9303    9304    9305    9263    9264    9265    9266    9287    9288
    9289    9290    9306    9307    9308       0    9256    9267    9268    9269
    9270    9291    9292    9309    9267    9268    9269    9270    9291    9293
    9309    9258    9271    9272    9273    9274    9294    9295    9310    9271
    9272    9273    9274    9294    9296    9310    9260    9275    9276    9277
    9278    9297    9298    9311    9275    9276    9277    9278    9298    9299
    9311    9262    9279    9280    9281    9282    9300    9301    9312    9279
    9280    9281    9282    9300    9302    9312    9264    9283    9284    9285
    9286    9303    9304    9313    9283    9284    9285    9286    9303    9305
    9313    9266    9287    9288    9289    9290    9306    9307    9314    9287
    9288    9289    9290    9306    9308    9314    9268    9269    9291    9292
    9293    9309    9315    9291    9292    9270    9291    9292    9293    9309
    9315    9291    9293    9272    9294    9295    9274    9294    9295    9296
    9310    9316    9274    9294    9296    9294    9295    9296    9310    9316
    9276    9277    9297    9298    9299    9311    9317    9297    9298    9278
    9297    9298    9299    9311    9317    9298    9299    9280    9281    9300
    9301    9302    9312    9318    9300    9301    9282    9300    9301    9302
    9312    9318    9300    9302    9284    9285    9303    9304    9305    9313
    9319    9303    9304    9286    9303    9304    9305    9313    9319    9303
    9305    9288    9289    9306    9307    9308    9314    9320    9306    9307
    9290    9306    9307    9308    9314    9320    9306    9308    9292    9293
    9309    9315    9321    9322    9323    9309    9309    9295    9296    9310
    9316    9324    9325    9326    9310    9310    9298    9311    9299    9311
    9317    9327    9328    9329    9311    9301    9302    9312    9318    9330
    9331    9332    9312    9312    9304    9305    9313    9319    9333    9334
    9335    9313    9313    9307    9308    9314    9320    9336    9337    9338
    9314    9314    9315    9321    9322    9323    9316    9324    9325    9326
    9317    9327    9328    9329    9318    9330    9331    9332    9319    9333
    9334    9335    9320    9336    9337    9338    9321    9322    9323    9324
    9325    9326    9327    9328    9329    9330    9331    9332    9333    9334
    9335    9336    9337    9338    9322    9323    9323       0    9325    9326
    9326       0    9328    9329    9329       0    9331    9332    9332       0
    9334    9335    9335       0    9337    9338    9338       0    9340    9341
    9342    9343    9344    9345    9346    9347    9348    9349    9350    9341
    9342    9343    9344    9345    9346    9347    9348    9349    9350    9351
    9352    9353    9342    9343    9344    9345    9346    9343    9347    9348
    9349    9350    9351    9352    9354    9347    9348    9349    9350    9351
    9353    9354    9345    9346    9346       0    9348    9349    9351    9352
    9353    9354    9355    9356    9351    9352    9350    9351    9352    9353
    9354    9355    9356    9351    9353    9352    9353    9354    9355    9356
    9357    9358    9359    9360    9354    9354    9355    9356    9357    9358
    9359    9360    9361    9362    9363    9364    9365    9366    9367    9368
    9356    9357    9358    9359    9360    9361    9362    9363    9364    9369
    9370    9371    9357    9358    9359    9360    9365    9366    9367    9368
    9372    9373    9374    9358    9361    9362    9363    9364    9369    9370
    9375    9376    9377    9378    9361    9362    9363    9364    9369    9371
    9375    9360    9365    9366    9367    9368    9372    9373    9379    9365
    9366    9367    9368    9372    9374    9379    9362    9363    9369    9370
    9371    9375    9376    9377    9378    9380    9381    9382    9383    9384
    9385    9369    9370    9364    9369    9370    9371    9375    9376    9380
    9369    9371    9366    9367    9372    9373    9374    9379    9386    9372
    9373    9368    9372    9373    9374    9379    9386    9372    9374    9370
    9371    9375    9376    9377    9378    9380    9381    9387    9388    9375
    9376    9377    9378    9380    9381    9382    9383    9384    9385    9389
    9390    9391    9392    9393    9394    9395    9396    9375    9373    9374
    9379    9386    9397    9398    9399    9379    9379    9376    9377    9378
    9380    9381    9387    9388    9389    9390    9400    9377    9378    9380
    9381    9382    9383    9384    9385    9387    9388    9389    9390    9401
    9378    9381    9382    9383    9384    9385    9391    9392    9393    9396
    9402    9403    9404    9381    9382    9383    9384    9385    9393    9394
    9395    9396    9405    9406    9407    9386    9397    9398    9399    9381
    9387    9388    9389    9400    9401    9387    9389    9390    9400    9401
    9408    9409    9383    9385    9391    9392    9393    9402    9403    9410
    9411    9412    9384    9385    9391    9392    9393    9396    9403    9404
    9406    9407    9412    9385    9394    9395    9396    9405    9406    9413
    9414    9415    9393    9394    9395    9396    9403    9404    9406    9407
    9415    9397    9398    9399    9388    9389    9390    9400    9401    9408
    9409    9389    9400    9390    9400    9401    9408    9409    9416    9417
    9418    9419    9401    9392    9393    9402    9403    9404    9410    9411
    9412    9420    9421    9422    9423    9402    9403    9396    9402    9403
    9404    9412    9395    9405    9406    9396    9405    9406    9407    9413
    9414    9415    9424    9425    9426    9427    9405    9406    9407    9415
    9398    9399    9399       0    9401    9408    9409    9416    9417    9418
    9419    9428    9429    9430    9431    9432    9433    9434    9435    9403
    9410    9411    9412    9420    9421    9422    9423    9436    9437    9438
    9439    9440    9441    9442    9443    9404    9410    9411    9412    9412
    9406    9413    9414    9415    9424    9425    9426    9427    9444    9445
    9446    9447    9448    9449    9450    9451    9407    9413    9414    9415
    9415    9409    9416    9417    9418    9419    9428    9429    9430    9431
    9452    9453    9454    9416    9417    9418    9419    9432    9433    9434
    9435    9455    9456    9457    9411    9420    9421    9422    9423    9436
    9437    9438    9439    9458    9459    9460    9420    9421    9422    9423
    9440    9441    9442    9443    9461    9462    9463       0    9414    9424
    9425    9426    9427    9444    9445    9446    9447    9464    9465    9466
    9424    9425    9426    9427    9448    9449    9450    9451    9467    9468
    9469       0    9417    9428    9429    9430    9431    9452    9453    9470
    9428    9429    9430    9431    9452    9454    9470    9419    9432    9433
    9434    9435    9455    9456    9471    9432    9433    9434    9435    9455
    9457    9471    9421    9436    9437    9438    9439    9458    9459    9472
    9436    9437    9438    9439    9459    9460    9472    9423    9440    9441
    9442    9443    9461    9462    9473    9440    9441    9442    9443    9461
    9463    9473    9425    9444    9445    9446    9447    9464    9465    9474
    9444    9445    9446    9447    9464    9466    9474    9427    9448    9449
    9450    9451    9467    9468    9475    9448    9449    9450    9451    9467
    9469    9475    9429    9430    9452    9453    9454    9470    9476    9452
    9453    9431    9452    9453    9454    9470    9476    9452    9454    9433
    9455    9456    9435    9455    9456    9457    9471    9477    9435    9455
    9457    9455    9456    9457    9471    9477    9437    9438    9458    9459
    9460    9472    9478    9458    9459    9439    9458    9459    9460    9472
    9478    9459    9460    9441    9442    9461    9462    9463    9473    9479
    9461    9462    9443    9461    9462    9463    9473    9479    9461    9463
    9445    9446    9464    9465    9466    9474    9480    9464    9465    9447
    9464    9465    9466    9474    9480    9464    9466    9449    9450    9467
    9468    9469    9475    9481    9467    9468    9451    9467    9468    9469
    9475    9481    9467    9469    9453    9454    9470    9476    9482    9483
    9484    9470    9470    9456    9457    9471    9477    9485    9486    9487
    9471    9471    9459    9472    9460    9472    9478    9488    9489    9490
    9472    9462    9463    9473    9479    9491    9492    9493    9473    9473
    9465    9466    9474    9480    9494    9495    9496    9474    9474    9468
    9469    9475    9481    9497    9498    9499    9475    9475    9476    9482
    9483    9484    9477    9485    9486    9487    9478    9488    9489    9490
    9479    9491    9492    9493    9480    9494    9495    9496    9481    9497
    9498    9499    9482    9483    9484    9485    9486    9487    9488    9489
    9490    9491    9492    9493    9494    9495    9496    9497    9498    9499
    9483    9484    9484       0    9486    9487    9487       0    9489    9490
    9490       0    9492    9493    9493       0    9495    9496    9496       0
    9498    9499    9499       0    9501    9502    9503    9504    9505    9506
    9507    9508    9509    9510    9511    9502    9503    9504    9505    9506
    9507    9508    9509    9510    9511    9512    9513    9514    9503    9504
    9505    9506    9507    9504    9508    9509    9510    9511    9512    9513
    9515    9508    9509    9510    9511    9512    9514    9515    9506    9507
    9507       0    9509    9510    9512    9513    9514    9515    9516    9517
    9512    9513    9511    9512    9513    9514    9515    9516    9517    9512
    9514    9513    9514    9515    9516    9517    9518    9519    9520    9521
    9515    9515    9516    9517    9518    9519    9520    9521    9522    9523
    9524    9525    9526    9527    9528    9529    9517    9518    9519    9520
    9521    9522    9523    9524    9525    9530    9531    9532    9518    9519
    9520    9521    9526    9527    9528    9529    9533    9534    9535    9519
    9522    9523    9524    9525    9530    9531    9536    9537    9538    9539
    9522    9523    9524    9525    9530    9532    9536    9521    9526    9527
    9528    9529    9533    9534    9540    9526    9527    9528    9529    9533
    9535    9540    9523    9524    9530    9531    9532    9536    9537    9538
    9539    9541    9542    9543    9544    9545    9546    9530    9531    9525
    9530    9531    9532    9536    9537    9541    9530    9532    9527    9528
    9533    9534    9535    9540    9547    9533    9534    9529    9533    9534
    9535    9540    9547    9533    9535    9531    9532    9536    9537    9538
    9539    9541    9542    9548    9549    9536    9537    9538    9539    9541
    9542    9543    9544    9545    9546    9550    9551    9552    9553    9554
    9555    9556    9557    9536    9534    9535    9540    9547    9558    9559
    9560    9540    9540    9537    9538    9539    9541    9542    9548    9549
    9550    9551    9561    9538    9539    9541    9542    9543    9544    9545
    9546    9548    9549    9550    9551    9562    9539    9542    9543    9544
    9545    9546    9552    9553    9554    9557    9563    9564    9565    9542
    9543    9544    9545    9546    9554    9555    9556    9557    9566    9567
    9568    9547    9558    9559    9560    9542    9548    9549    9550    9561
    9562    9548    9550    9551    9561    9562    9569    9570    9544    9546
    9552    9553    9554    9563    9564    9571    9572    9573    9545    9546
    9552    9553    9554    9557    9564    9565    9567    9568    9573    9546
    9555    9556    9557    9566    9567    9574    9575    9576    9554    9555
    9556    9557    9564    9565    9567    9568    9576    9558    9559    9560
    9549    9550    9551    9561    9562    9569    9570    9550    9561    9551
    9561    9562    9569    9570    9577    9578    9579    9580    9562    9553
    9554    9563    9564    9565    9571    9572    9573    9581    9582    9583
    9584    9563    9564    9557    9563    9564    9565    9573    9556    9566
    9567    9557    9566    9567    9568    9574    9575    9576    9585    9586
    9587    9588    9566    9567    9568    9576    9559    9560    9560       0
    9562    9569    9570    9577    9578    9579    9580    9589    9590    9591
    9592    9593    9594    9595    9596    9564    9571    9572    9573    9581
    9582    9583    9584    9597    9598    9599    9600    9601    9602    9603
    9604    9565    9571    9572    9573    9573    9567    9574    9575    9576
    9585    9586    9587    9588    9605    9606    9607    9608    9609    9610
    9611    9612    9568    9574    9575    9576    9576    9570    9577    9578
    9579    9580    9589    9590    9591    9592    9613    9614    9615    9577
    9578    9579    9580    9593    9594    9595    9596    9616    9617    9618
    9572    9581    9582    9583    9584    9597    9598    9599    9600    9619
    9620    9621    9581    9582    9583    9584    9601    9602    9603    9604
    9622    9623    9624       0    9575    9585    9586    9587    9588    9605
    9606    9607    9608    9625    9626    9627    9585    9586    9587    9588
    9609    9610    9611    9612    9628    9629    9630       0    9578    9589
    9590    9591    9592    9613    9614    9631    9589    9590    9591    9592
    9613    9615    9631    9580    9593    9594    9595    9596    9616    9617
    9632    9593    9594    9595    9596    9616    9618    9632    9582    9597
    9598    9599    9600    9619    9620    9633    9597    9598    9599    9600
    9620    9621    9633    9584    9601    9602    9603    9604    9622    9623
    9634    9601    9602    9603    9604    9622    9624    9634    9586    9605
    9606    9607    9608    9625    9626    9635    9605    9606    9607    9608
    9625    9627    9635    9588    9609    9610    9611    9612    9628    9629
    9636    9609    9610    9611    9612    9628    9630    9636    9590    9591
    9613    9614    9615    9631    9637    9613    9614    9592    9613    9614
    9615    9631    9637    9613    9615    9594    9616    9617    9596    9616
    9617    9618    9632    9638    9596    9616    9618    9616    9617    9618
    9632    9638    9598    9599    9619    9620    9621    9633    9639    9619
    9620    9600    9619    9620    9621    9633    9639    9620    9621    9602
    9603    9622    9623    9624    9634    9640    9622    9623    9604    9622
    9623    9624    9634    9640    9622    9624    9606    9607    9625    9626
    9627    9635    9641    9625    9626    9608    9625    9626    9627    9635
    9641    9625    9627    9610    9611    9628    9629    9630    9636    9642
    9628    9629    9612    9628    9629    9630    9636    9642    9628    9630
    9614    9615    9631    9637    9643    9644    9645    9631    9631    9617
    9618    9632    9638    9646    9647    9648    9632    9632    9620    9633
    9621    9633    9639    9649    9650    9651    9633    9623    9624    9634
    9640    9652    9653    9654    9634    9634    9626    9627    9635    9641
    9655    9656    9657    9635    9635    9629    9630    9636    9642    9658
    9659    9660    9636    9636    9637    9643    9644    9645    9638    9646
    9647    9648    9639    9649    9650    9651    9640    9652    9653    9654
    9641    9655    9656    9657    9642    9658    9659    9660    9643    9644
    9645    9646    9647    9648    9649    9650    9651    9652    9653    9654
    9655    9656    9657    9658    9659    9660    9644    9645    9645       0
    9647    9648    9648       0    9650    9651    9651       0    9653    9654
    9654       0    9656    9657    9657       0    9659    9660    9660       0
    9662    9663    9664    9665    9666    9667    9668    9669    9670    9671
    9672    9663    9664    9665    9666    9667    9668    9669    9670    9671
    9672    9673    9674    9675    9664    9665    9666    9667    9668    9665
    9669    9670    9671    9672    9673    9674    9676    9669    9670    9671
    9672    9673    9675    9676    9667    9668    9668       0    9670    9671
    9673    9674    9675    9676    9677    9678    9673    9674    9672    9673
    9674    9675    9676    9677    9678    9673    9675    9674    9675    9676
    9677    9678    9679    9680    9681    9682    9676    9676    9677    9678
    9679    9680    9681    9682    9683    9684    9685    9686    9687    9688
    9689    9690    9678    9679    9680    9681    9682    9683    9684    9685
    9686    9691    9692    9693    9679    9680    9681    9682    9687    9688
    9689    9690    9694    9695    9696    9680    9683    9684    9685    9686
    9691    9692    9697    9698    9699    9700    9683    9684    9685    9686
    9691    9693    9697    9682    9687    9688    9689    9690    9694    9695
    9701    9687    9688    9689    9690    9694    9696    9701    9684    9685
    9691    9692    9693    9697    9698    9699    9700    9702    9703    9704
    9705    9706    9707    9691    9692    9686    9691    9692    9693    9697
    9698    9702    9691    9693    9688    9689    9694    9695    9696    9701
    9708    9694    9695    9690    9694    9695    9696    9701    9708    9694
    9696    9692    9693    9697    9698    9699    9700    9702    9703    9709
    9710    9697    9698    9699    9700    9702    9703    9704    9705    9706
    9707    9711    9712    9713    9714    9715    9716    9717    9718    9697
    9695    9696    9701    9708    9719    9720    9721    9701    9701    9698
    9699    9700    9702    9703    9709    9710    9711    9712    9722    9699
    9700    9702    9703    9704    9705    9706    9707    9709    9710    9711
    9712    9723    9700    9703    9704    9705    9706    9707    9713    9714
    9715    9718    9724    9725    9726    9703    9704    9705    9706    9707
    9715    9716    9717    9718    9727    9728    9729    9708    9719    9720
    9721    9703    9709    9710    9711    9722    9723    9709    9711    9712
    9722    9723    9730    9731    9705    9707    9713    9714    9715    9724
    9725    9732    9733    9734    9706    9707    9713    9714    9715    9718
    9725    9726    9728    9729    9734    9707    9716    9717    9718    9727
    9728    9735    9736    9737    9715    9716    9717    9718    9725    9726
    9728    9729    9737    9719    9720    9721    9710    9711    9712    9722
    9723    9730    9731    9711    9722    9712    9722    9723    9730    9731
    9738    9739    9740    9741    9723    9714    9715    9724    9725    9726
    9732    9733    9734    9742    9743    9744    9745    9724    9725    9718
    9724    9725    9726    9734    9717    9727    9728    9718    9727    9728
    9729    9735    9736    9737    9746    9747    9748    9749    9727    9728
    9729    9737    9720    9721    9721       0    9723    9730    9731    9738
    9739    9740    9741    9750    9751    9752    9753    9754    9755    9756
    9757    9725    9732    9733    9734    9742    9743    9744    9745    9758
    9759    9760    9761    9762    9763    9764    9765    9726    9732    9733
    9734    9734    9728    9735    9736    9737    9746    9747    9748    9749
    9766    9767    9768    9769    9770    9771    9772    9773    9729    9735
    9736    9737    9737    9731    9738    9739    9740    9741    9750    9751
    9752    9753    9774    9775    9776    9738    9739    9740    9741    9754
    9755    9756    9757    9777    9778    9779    9733    9742    9743    9744
    9745    9758    9759    9760    9761    9780    9781    9782    9742    9743
    9744    9745    9762    9763    9764    9765    9783    9784    9785       0
    9736    9746    9747    9748    9749    9766    9767    9768    9769    9786
    9787    9788    9746    9747    9748    9749    9770    9771    9772    9773
    9789    9790    9791       0    9739    9750    9751    9752    9753    9774
    9775    9792    9750    9751    9752    9753    9774    9776    9792    9741
    9754    9755    9756    9757    9777    9778    9793    9754    9755    9756
    9757    9777    9779    9793    9743    9758    9759    9760    9761    9780
    9781    9794    9758    9759    9760    9761    9781    9782    9794    9745
    9762    9763    9764    9765    9783    9784    9795    9762    9763    9764
    9765    9783    9785    9795    9747    9766    9767    9768    9769    9786
    9787    9796    9766    9767    9768    9769    9786    9788    9796    9749
    9770    9771    9772    9773    9789    9790    9797    9770    9771    9772
    9773    9789    9791    9797    9751    9752    9774    9775    9776    9792
    9798    9774    9775    9753    9774    9775    9776    9792    9798    9774
    9776    9755    9777    9778    9757    9777    9778    9779    9793    9799
    9757    9777    9779    9777    9778    9779    9793    9799    9759    9760
    9780    9781    9782    9794    9800    9780    9781    9761    9780    9781
    9782    9794    9800    9781    9782    9763    9764    9783    9784    9785
    9795    9801    9783    9784    9765    9783    9784    9785    9795    9801
    9783    9785    9767    9768    9786    9787    9788    9796    9802    9786
    9787    9769    9786    9787    9788    9796    9802    9786    9788    9771
    9772    9789    9790    9791    9797    9803    9789    9790    9773    9789
    9790    9791    9797    9803    9789    9791    9775    9776    9792    9798
    9804    9805    9806    9792    9792    9778    9779    9793    9799    9807
    9808    9809    9793    9793    9781    9794    9782    9794    9800    9810
    9811    9812    9794    9784    9785    9795    9801    9813    9814    9815
    9795    9795    9787    9788    9796    9802    9816    9817    9818    9796
    9796    9790    9791    9797    9803    9819    9820    9821    9797    9797
    9798    9804    9805    9806    9799    9807    9808    9809    9800    9810
    9811    9812    9801    9813    9814    9815    9802    9816    9817    9818
    9803    9819    9820    9821    9804    9805    9806    9807    9808    9809
    9810    9811    9812    9813    9814    9815    9816    9817    9818    9819
    9820    9821    9805    9806    9806       0    9808    9809    9809       0
    9811    9812    9812       0    9814    9815    9815       0    9817    9818
    9818       0    9820    9821    9821       0    9823    9824    9825    9826
    9827    9828    9829    9830    9831    9832    9833    9824    9825    9826
    9827    9828    9829    9830    9831    9832    9833    9834    9835    9836
    9825    9826    9827    9828    9829    9826    9830    9831    9832    9833
    9834    9835    9837    9830    9831    9832    9833    9834    9836    9837
    9828    9829    9829       0    9831    9832    9834    9835    9836    9837
    9838    9839    9834    9835    9833    9834    9835    9836    9837    9838
    9839    9834    9836    9835    9836    9837    9838    9839    9840    9841
    9842    9843    9837    9837    9838    9839    9840    9841    9842    9843
    9844    9845    9846    9847    9848    9849    9850    9851    9839    9840
    9841    9842    9843    9844    9845    9846    9847    9852    9853    9854
    9840    9841    9842    9843    9848    9849    9850    9851    9855    9856
    9857    9841    9844    9845    9846    9847    9852    9853    9858    9859
    9860    9861    9844    9845    9846    9847    9852    9854    9858    9843
    9848    9849    9850    9851    9855    9856    9862    9848    9849    9850
    9851    9855    9857    9862    9845    9846    9852    9853    9854    9858
    9859    9860    9861    9863    9864    9865    9866    9867    9868    9852
    9853    9847    9852    9853    9854    9858    9859    9863    9852    9854
    9849    9850    9855    9856    9857    9862    9869    9855    9856    9851
    9855    9856    9857    9862    9869    9855    9857    9853    9854    9858
    9859    9860    9861    9863    9864    9870    9871    9858    9859    9860
    9861    9863    9864    9865    9866    9867    9868    9872    9873    9874
    9875    9876    9877    9878    9879    9858    9856    9857    9862    9869
    9880    9881    9882    9862    9862    9859    9860    9861    9863    9864
    9870    9871    9872    9873    9883    9860    9861    9863    9864    9865
    9866    9867    9868    9870    9871    9872    9873    9884    9861    9864
    9865    9866    9867    9868    9874    9875    9876    9879    9885    9886
    9887    9864    9865    9866    9867    9868    9876    9877    9878    9879
    9888    9889    9890    9869    9880    9881    9882    9864    9870    9871
    9872    9883    9884    9870    9872    9873    9883    9884    9891    9892
    9866    9868    9874    9875    9876    9885    9886    9893    9894    9895
    9867    9868    9874    9875    9876    9879    9886    9887    9889    9890
    9895    9868    9877    9878    9879    9888    9889    9896    9897    9898
    9876    9877    9878    9879    9886    9887    9889    9890    9898    9880
    9881    9882    9871    9872    9873    9883    9884    9891    9892    9872
    9883    9873    9883    9884    9891    9892    9899    9900    9901    9902
    9884    9875    9876    9885    9886    9887    9893    9894    9895    9903
    9904    9905    9906    9885    9886    9879    9885    9886    9887    9895
    9878    9888    9889    9879    9888    9889    9890    9896    9897    9898
    9907    9908    9909    9910    9888    9889    9890    9898    9881    9882
    9882       0    9884    9891    9892    9899    9900    9901    9902    9911
    9912    9913    9914    9915    9916    9917    9918    9886    9893    9894
    9895    9903    9904    9905    9906    9919    9920    9921    9922    9923
    9924    9925    9926    9887    9893    9894    9895    9895    9889    9896
    9897    9898    9907    9908    9909    9910    9927    9928    9929    9930
    9931    9932    9933    9934    9890    9896    9897    9898    9898    9892
    9899    9900    9901    9902    9911    9912    9913    9914    9935    9936
    9937    9899    9900    9901    9902    9915    9916    9917    9918    9938
    9939    9940    9894    9903    9904    9905    9906    9919    9920    9921
    9922    9941    9942    9943    9903    9904    9905    9906    9923    9924
    9925    9926    9944    9945    9946       0    9897    9907    9908    9909
    9910    9927    9928    9929    9930    9947    9948    9949    9907    9908
    9909    9910    9931    9932    9933    9934    9950    9951    9952       0
    9900    9911    9912    9913    9914    9935    9936    9953    9911    9912
    9913    9914    9935    9937    9953    9902    9915    9916    9917    9918
    9938    9939    9954    9915    9916    9917    9918    9938    9940    9954
    9904    9919    9920    9921    9922    9941    9942    9955    9919    9920
    9921    9922    9942    9943    9955    9906    9923    9924    9925    9926
    9944    9945    9956    9923    9924    9925    9926    9944    9946    9956
    9908    9927    9928    9929    9930    9947    9948    9957    9927    9928
    9929    9930    9947    9949    9957    9910    9931    9932    9933    9934
    9950    9951    9958    9931    9932    9933    9934    9950    9952    9958
    9912    9913    9935    9936    9937    9953    9959    9935    9936    9914
    9935    9936    9937    9953    9959    9935    9937    9916    9938    9939
    9918    9938    9939    9940    9954    9960    9918    9938    9940    9938
    9939    9940    9954    9960    9920    9921    9941    9942    9943    9955
    9961    9941    9942    9922    9941    9942    9943    9955    9961    9942
    9943    9924    9925    9944    9945    9946    9956    9962    9944    9945
    9926    9944    9945    9946    9956    9962    9944    9946    9928    9929
    9947    9948    9949    9957    9963    9947    9948    9930    9947    9948
    9949    9957    9963    9947    9949    9932    9933    9950    9951    9952
    9958    9964    9950    9951    9934    9950    9951    9952    9958    9964
    9950    9952    9936    9937    9953    9959    9965    9966    9967    9953
    9953    9939    9940    9954    9960    9968    9969    9970    9954    9954
    9942    9955    9943    9955    9961    9971    9972    9973    9955    9945
    9946    9956    9962    9974    9975    9976    9956    9956    9948    9949
    9957    9963    9977    9978    9979    9957    9957    9951    9952    9958
    9964    9980    9981    9982    9958    9958    9959    9965    9966    9967
    9960    9968    9969    9970    9961    9971    9972    9973    9962    9974
    9975    9976    9963    9977    9978    9979    9964    9980    9981    9982
    9965    9966    9967    9968    9969    9970    9971    9972    9973    9974
    9975    9976    9977    9978    9979    9980    9981    9982    9966    9967
    9967       0    9969    9970    9970       0    9972    9973    9973       0
    9975    9976    9976       0    9978    9979    9979       0    9981    9982
    9982       0    9984    9985    9986    9987    9988    9989    9990    9991
    9992    9993    9994    9985    9986    9987    9988    9989    9990    9991
    9992    9993    9994    9995    9996    9997    9986    9987    9988    9989
    9990    9987    9991    9992    9993    9994    9995    9996    9998    9991
    9992    9993    9994    9995    9997    9998    9989    9990    9990       0
    9992    9993    9995    9996    9997    9998    9999   10000    9995    9996
    9994    9995    9996    9997    9998    9999   10000    9995    9997    9996
    9997    9998    9999   10000   10001   10002   10003   10004    9998    9998
    9999   10000   10001   10002   10003   10004   10005   10006   10007   10008
   10009   10010   10011   10012   10000   10001   10002   10003   10004   10005
   10006   10007   10008   10013   10014   10015   10001   10002   10003   10004
   10009   10010   10011   10012   10016   10017   10018   10002   10005   10006
   10007   10008   10013   10014   10019   10020   10021   10022   10005   10006
   10007   10008   10013   10015   10019   10004   10009   10010   10011   10012
   10016   10017   10023   10009   10010   10011   10012   10016   10018   10023
   10006   10007   10013   10014   10015   10019   10020   10021   10022   10024
   10025   10026   10027   10028   10029   10013   10014   10008   10013   10014
   10015   10019   10020   10024   10013   10015   10010   10011   10016   10017
   10018   10023   10030   10016   10017   10012   10016   10017   10018   10023
   10030   10016   10018   10014   10015   10019   10020   10021   10022   10024
   10025   10031   10032   10019   10020   10021   10022   10024   10025   10026
   10027   10028   10029   10033   10034   10035   10036   10037   10038   10039
   10040   10019   10017   10018   10023   10030   10041   10042   10043   10023
   10023   10020   10021   10022   10024   10025   10031   10032   10033   10034
   10044   10021   10022   10024   10025   10026   10027   10028   10029   10031
   10032   10033   10034   10045   10022   10025   10026   10027   10028   10029
   10035   10036   10037   10040   10046   10047   10048   10025   10026   10027
   10028   10029   10037   10038   10039   10040   10049   10050   10051   10030
   10041   10042   10043   10025   10031   10032   10033   10044   10045   10031
   10033   10034   10044   10045   10052   10053   10027   10029   10035   10036
   10037   10046   10047   10054   10055   10056   10028   10029   10035   10036
   10037   10040   10047   10048   10050   10051   10056   10029   10038   10039
   10040   10049   10050   10057   10058   10059   10037   10038   10039   10040
   10047   10048   10050   10051   10059   10041   10042   10043   10032   10033
   10034   10044   10045   10052   10053   10033   10044   10034   10044   10045
   10052   10053   10060   10061   10062   10063   10045   10036   10037   10046
   10047   10048   10054   10055   10056   10064   10065   10066   10067   10046
   10047   10040   10046   10047   10048   10056   10039   10049   10050   10040
   10049   10050   10051   10057   10058   10059   10068   10069   10070   10071
   10049   10050   10051   10059   10042   10043   10043       0   10045   10052
   10053   10060   10061   10062   10063   10072   10073   10074   10075   10076
   10077   10078   10079   10047   10054   10055   10056   10064   10065   10066
   10067   10080   10081   10082   10083   10084   10085   10086   10087   10048
   10054   10055   10056   10056   10050   10057   10058   10059   10068   10069
   10070   10071   10088   10089   10090   10091   10092   10093   10094   10095
   10051   10057   10058   10059   10059   10053   10060   10061   10062   10063
   10072   10073   10074   10075   10096   10097   10098   10060   10061   10062
   10063   10076   10077   10078   10079   10099   10100   10101   10055   10064
   10065   10066   10067   10080   10081   10082   10083   10102   10103   10104
   10064   10065   10066   10067   10084   10085   10086   10087   10105   10106
   10107       0   10058   10068   10069   10070   10071   10088   10089   10090
   10091   10108   10109   10110   10068   10069   10070   10071   10092   10093
   10094   10095   10111   10112   10113       0   10061   10072   10073   10074
   10075   10096   10097   10114   10072   10073   10074   10075   10096   10098
   10114   10063   10076   10077   10078   10079   10099   10100   10115   10076
   10077   10078   10079   10099   10101   10115   10065   10080   10081   10082
   10083   10102   10103   10116   10080   10081   10082   10083   10103   10104
   10116   10067   10084   10085   10086   10087   10105   10106   10117   10084
   10085   10086   10087   10105   10107   10117   10069   10088   10089   10090
   10091   10108   10109   10118   10088   10089   10090   10091   10108   10110
   10118   10071   10092   10093   10094   10095   10111   10112   10119   10092
   10093   10094   10095   10111   10113   10119   10073   10074   10096   10097
   10098   10114   10120   10096   10097   10075   10096   10097   10098   10114
   10120   10096   10098   10077   10099   10100   10079   10099   10100   10101
   10115   10121   10079   10099   10101   10099   10100   10101   10115   10121
   10081   10082   10102   10103   10104   10116   10122   10102   10103   10083
   10102   10103   10104   10116   10122   10103   10104   10085   10086   10105
   10106   10107   10117   10123   10105   10106   10087   10105   10106   10107
   10117   10123   10105   10107   10089   10090   10108   10109   10110   10118
   10124   10108   10109   10091   10108   10109   10110   10118   10124   10108
   10110   10093   10094   10111   10112   10113   10119   10125   10111   10112
   10095   10111   10112   10113   10119   10125   10111   10113   10097   10098
   10114   10120   10126   10127   10128   10114   10114   10100   10101   10115
   10121   10129   10130   10131   10115   10115   10103   10116   10104   10116
   10122   10132   10133   10134   10116   10106   10107   10117   10123   10135
   10136   10137   10117   10117   10109   10110   10118   10124   10138   10139
   10140   10118   10118   10112   10113   10119   10125   10141   10142   10143
   10119   10119   10120   10126   10127   10128   10121   10129   10130   10131
   10122   10132   10133   10134   10123   10135   10136   10137   10124   10138
   10139   10140   10125   10141   10142   10143   10126   10127   10128   10129
   10130   10131   10132   10133   10134   10135   10136   10137   10138   10139
   10140   10141   10142   10143   10127   10128   10128       0   10130   10131
   10131       0   10133   10134   10134       0   10136   10137   10137       0
   10139   10140   10140       0   10142   10143   10143       0   10145   10146
   10147   10148   10149   10150   10151   10152   10153   10154   10155   10146
   10147   10148   10149   10150   10151   10152   10153   10154   10155   10156
   10157   10158   10147   10148   10149   10150   10151   10148   10152   10153
   10154   10155   10156   10157   10159   10152   10153   10154   10155   10156
   10158   10159   10150   10151   10151       0   10153   10154   10156   10157
   10158   10159   10160   10161   10156   10157   10155   10156   10157   10158
   10159   10160   10161   10156   10158   10157   10158   10159   10160   10161
   10162   10163   10164   10165   10159   10159   10160   10161   10162   10163
   10164   10165   10166   10167   10168   10169   10170   10171   10172   10173
   10161   10162   10163   10164   10165   10166   10167   10168   10169   10174
   10175   10176   10162   10163   10164   10165   10170   10171   10172   10173
   10177   10178   10179   10163   10166   10167   10168   10169   10174   10175
   10180   10181   10182   10183   10166   10167   10168   10169   10174   10176
   10180   10165   10170   10171   10172   10173   10177   10178   10184   10170
   10171   10172   10173   10177   10179   10184   10167   10168   10174   10175
   10176   10180   10181   10182   10183   10185   10186   10187   10188   10189
   10190   10174   10175   10169   10174   10175   10176   10180   10181   10185
   10174   10176   10171   10172   10177   10178   10179   10184   10191   10177
   10178   10173   10177   10178   10179   10184   10191   10177   10179   10175
   10176   10180   10181   10182   10183   10185   10186   10192   10193   10180
   10181   10182   10183   10185   10186   10187   10188   10189   10190   10194
   10195   10196   10197   10198   10199   10200   10201   10180   10178   10179
   10184   10191   10202   10203   10204   10184   10184   10181   10182   10183
   10185   10186   10192   10193   10194   10195   10205   10182   10183   10185
   10186   10187   10188   10189   10190   10192   10193   10194   10195   10206
   10183   10186   10187   10188   10189   10190   10196   10197   10198   10201
   10207   10208   10209   10186   10187   10188   10189   10190   10198   10199
   10200   10201   10210   10211   10212   10191   10202   10203   10204   10186
   10192   10193   10194   10205   10206   10192   10194   10195   10205   10206
   10213   10214   10188   10190   10196   10197   10198   10207   10208   10215
   10216   10217   10189   10190   10196   10197   10198   10201   10208   10209
   10211   10212   10217   10190   10199   10200   10201   10210   10211   10218
   10219   10220   10198   10199   10200   10201   10208   10209   10211   10212
   10220   10202   10203   10204   10193   10194   10195   10205   10206   10213
   10214   10194   10205   10195   10205   10206   10213   10214   10221   10222
   10223   10224   10206   10197   10198   10207   10208   10209   10215   10216
   10217   10225   10226   10227   10228   10207   10208   10201   10207   10208
   10209   10217   10200   10210   10211   10201   10210   10211   10212   10218
   10219   10220   10229   10230   10231   10232   10210   10211   10212   10220
   10203   10204   10204       0   10206   10213   10214   10221   10222   10223
   10224   10233   10234   10235   10236   10237   10238   10239   10240   10208
   10215   10216   10217   10225   10226   10227   10228   10241   10242   10243
   10244   10245   10246   10247   10248   10209   10215   10216   10217   10217
   10211   10218   10219   10220   10229   10230   10231   10232   10249   10250
   10251   10252   10253   10254   10255   10256   10212   10218   10219   10220
   10220   10214   10221   10222   10223   10224   10233   10234   10235   10236
   10257   10258   10259   10221   10222   10223   10224   10237   10238   10239
   10240   10260   10261   10262   10216   10225   10226   10227   10228   10241
   10242   10243   10244   10263   10264   10265   10225   10226   10227   10228
   10245   10246   10247   10248   10266   10267   10268       0   10219   10229
   10230   10231   10232   10249   10250   10251   10252   10269   10270   10271
   10229   10230   10231   10232   10253   10254   10255   10256   10272   10273
   10274       0   10222   10233   10234   10235   10236   10257   10258   10275
   10233   10234   10235   10236   10257   10259   10275   10224   10237   10238
   10239   10240   10260   10261   10276   10237   10238   10239   10240   10260
   10262   10276   10226   10241   10242   10243   10244   10263   10264   10277
   10241   10242   10243   10244   10264   10265   10277   10228   10245   10246
   10247   10248   10266   10267   10278   10245   10246   10247   10248   10266
   10268   10278   10230   10249   10250   10251   10252   10269   10270   10279
   10249   10250   10251   10252   10269   10271   10279   10232   10253   10254
   10255   10256   10272   10273   10280   10253   10254   10255   10256   10272
   10274   10280   10234   10235   10257   10258   10259   10275   10281   10257
   10258   10236   10257   10258   10259   10275   10281   10257   10259   10238
   10260   10261   10240   10260   10261   10262   10276   10282   10240   10260
   10262   10260   10261   10262   10276   10282   10242   10243   10263   10264
   10265   10277   10283   10263   10264   10244   10263   10264   10265   10277
   10283   10264   10265   10246   10247   10266   10267   10268   10278   10284
   10266   10267   10248   10266   10267   10268   10278   10284   10266   10268
   10250   10251   10269   10270   10271   10279   10285   10269   10270   10252
   10269   10270   10271   10279   10285   10269   10271   10254   10255   10272
   10273   10274   10280   10286   10272   10273   10256   10272   10273   10274
   10280   10286   10272   10274   10258   10259   10275   10281   10287   10288
   10289   10275   10275   10261   10262   10276   10282   10290   10291   10292
   10276   10276   10264   10277   10265   10277   10283   10293   10294   10295
   10277   10267   10268   10278   10284   10296   10297   10298   10278   10278
   10270   10271   10279   10285   10299   10300   10301   10279   10279   10273
   10274   10280   10286   10302   10303   10304   10280   10280   10281   10287
   10288   10289   10282   10290   10291   10292   10283   10293   10294   10295
   10284   10296   10297   10298   10285   10299   10300   10301   10286   10302
   10303   10304   10287   10288   10289   10290   10291   10292   10293   10294
   10295   10296   10297   10298   10299   10300   10301   10302   10303   10304
   10288   10289   10289       0   10291   10292   10292       0   10294   10295
   10295       0   10297   10298   10298       0   10300   10301   10301       0
   10303   10304   10304       0   10306   10307   10308   10309   10310   10311
   10312   10313   10314   10315   10316   10307   10308   10309   10310   10311
   10312   10313   10314   10315   10316   10317   10318   10319   10308   10309
   10310   10311   10312   10309   10313   10314   10315   10316   10317   10318
   10320   10313   10314   10315   10316   10317   10319   10320   10311   10312
   10312       0   10314   10315   10317   10318   10319   10320   10321   10322
   10317   10318   10316   10317   10318   10319   10320   10321   10322   10317
   10319   10318   10319   10320   10321   10322   10323   10324   10325   10326
   10320   10320   10321   10322   10323   10324   10325   10326   10327   10328
   10329   10330   10331   10332   10333   10334   10322   10323   10324   10325
   10326   10327   10328   10329   10330   10335   10336   10337   10323   10324
   10325   10326   10331   10332   10333   10334   10338   10339   10340   10324
   10327   10328   10329   10330   10335   10336   10341   10342   10343   10344
   10327   10328   10329   10330   10335   10337   10341   10326   10331   10332
   10333   10334   10338   10339   10345   10331   10332   10333   10334   10338
   10340   10345   10328   10329   10335   10336   10337   10341   10342   10343
   10344   10346   10347   10348   10349   10350   10351   10335   10336   10330
   10335   10336   10337   10341   10342   10346   10335   10337   10332   10333
   10338   10339   10340   10345   10352   10338   10339   10334   10338   10339
   10340   10345   10352   10338   10340   10336   10337   10341   10342   10343
   10344   10346   10347   10353   10354   10341   10342   10343   10344   10346
   10347   10348   10349   10350   10351   10355   10356   10357   10358   10359
   10360   10361   10362   10341   10339   10340   10345   10352   10363   10364
   10365   10345   10345   10342   10343   10344   10346   10347   10353   10354
   10355   10356   10366   10343   10344   10346   10347   10348   10349   10350
   10351   10353   10354   10355   10356   10367   10344   10347   10348   10349
   10350   10351   10357   10358   10359   10362   10368   10369   10370   10347
   10348   10349   10350   10351   10359   10360   10361   10362   10371   10372
   10373   10352   10363   10364   10365   10347   10353   10354   10355   10366
   10367   10353   10355   10356   10366   10367   10374   10375   10349   10351
   10357   10358   10359   10368   10369   10376   10377   10378   10350   10351
   10357   10358   10359   10362   10369   10370   10372   10373   10378   10351
   10360   10361   10362   10371   10372   10379   10380   10381   10359   10360
   10361   10362   10369   10370   10372   10373   10381   10363   10364   10365
   10354   10355   10356   10366   10367   10374   10375   10355   10366   10356
   10366   10367   10374   10375   10382   10383   10384   10385   10367   10358
   10359   10368   10369   10370   10376   10377   10378   10386   10387   10388
   10389   10368   10369   10362   10368   10369   10370   10378   10361   10371
   10372   10362   10371   10372   10373   10379   10380   10381   10390   10391
   10392   10393   10371   10372   10373   10381   10364   10365   10365       0
   10367   10374   10375   10382   10383   10384   10385   10394   10395   10396
   10397   10398   10399   10400   10401   10369   10376   10377   10378   10386
   10387   10388   10389   10402   10403   10404   10405   10406   10407   10408
   10409   10370   10376   10377   10378   10378   10372   10379   10380   10381
   10390   10391   10392   10393   10410   10411   10412   10413   10414   10415
   10416   10417   10373   10379   10380   10381   10381   10375   10382   10383
   10384   10385   10394   10395   10396   10397   10418   10419   10420   10382
   10383   10384   10385   10398   10399   10400   10401   10421   10422   10423
   10377   10386   10387   10388   10389   10402   10403   10404   10405   10424
   10425   10426   10386   10387   10388   10389   10406   10407   10408   10409
   10427   10428   10429       0   10380   10390   10391   10392   10393   10410
   10411   10412   10413   10430   10431   10432   10390   10391   10392   10393
   10414   10415   10416   10417   10433   10434   10435       0   10383   10394
   10395   10396   10397   10418   10419   10436   10394   10395   10396   10397
   10418   10420   10436   10385   10398   10399   10400   10401   10421   10422
   10437   10398   10399   10400   10401   10421   10423   10437   10387   10402
   10403   10404   10405   10424   10425   10438   10402   10403   10404   10405
   10425   10426   10438   10389   10406   10407   10408   10409   10427   10428
   10439   10406   10407   10408   10409   10427   10429   10439   10391   10410
   10411   10412   10413   10430   10431   10440   10410   10411   10412   10413
   10430   10432   10440   10393   10414   10415   10416   10417   10433   10434
   10441   10414   10415   10416   10417   10433   10435   10441   10395   10396
   10418   10419   10420   10436   10442   10418   10419   10397   10418   10419
   10420   10436   10442   10418   10420   10399   10421   10422   10401   10421
   10422   10423   10437   10443   10401   10421   10423   10421   10422   10423
   10437   10443   10403   10404   10424   10425   10426   10438   10444   10424
   10425   10405   10424   10425   10426   10438   10444   10425   10426   10407
   10408   10427   10428   10429   10439   10445   10427   10428   10409   10427
   10428   10429   10439   10445   10427   10429   10411   10412   10430   10431
   10432   10440   10446   10430   10431   10413   10430   10431   10432   10440
   10446   10430   10432   10415   10416   10433   10434   10435   10441   10447
   10433   10434   10417   10433   10434   10435   10441   10447   10433   10435
   10419   10420   10436   10442   10448   10449   10450   10436   10436   10422
   10423   10437   10443   10451   10452   10453   10437   10437   10425   10438
   10426   10438   10444   10454   10455   10456   10438   10428   10429   10439
   10445   10457   10458   10459   10439   10439   10431   10432   10440   10446
   10460   10461   10462   10440   10440   10434   10435   10441   10447   10463
   10464   10465   10441   10441   10442   10448   10449   10450   10443   10451
   10452   10453   10444   10454   10455   10456   10445   10457   10458   10459
   10446   10460   10461   10462   10447   10463   10464   10465   10448   10449
   10450   10451   10452   10453   10454   10455   10456   10457   10458   10459
   10460   10461   10462   10463   10464   10465   10449   10450   10450       0
   10452   10453   10453       0   10455   10456   10456       0   10458   10459
   10459       0   10461   10462   10462       0   10464   10465   10465       0
   10467   10468   10469   10470   10471   10472   10473   10474   10475   10476
   10477   10468   10469   10470   10471   10472   10473   10474   10475   10476
   10477   10478   10479   10480   10469   10470   10471   10472   10473   10470
   10474   10475   10476   10477   10478   10479   10481   10474   10475   10476
   10477   10478   10480   10481   10472   10473   10473       0   10475   10476
   10478   10479   10480   10481   10482   10483   10478   10479   10477   10478
   10479   10480   10481   10482   10483   10478   10480   10479   10480   10481
   10482   10483   10484   10485   10486   10487   10481   10481   10482   10483
   10484   10485   10486   10487   10488   10489   10490   10491   10492   10493
   10494   10495   10483   10484   10485   10486   10487   10488   10489   10490
   10491   10496   10497   10498   10484   10485   10486   10487   10492   10493
   10494   10495   10499   10500   10501   10485   10488   10489   10490   10491
   10496   10497   10502   10503   10504   10505   10488   10489   10490   10491
   10496   10498   10502   10487   10492   10493   10494   10495   10499   10500
   10506   10492   10493   10494   10495   10499   10501   10506   10489   10490
   10496   10497   10498   10502   10503   10504   10505   10507   10508   10509
   10510   10511   10512   10496   10497   10491   10496   10497   10498   10502
   10503   10507   10496   10498   10493   10494   10499   10500   10501   10506
   10513   10499   10500   10495   10499   10500   10501   10506   10513   10499
   10501   10497   10498   10502   10503   10504   10505   10507   10508   10514
   10515   10502   10503   10504   10505   10507   10508   10509   10510   10511
   10512   10516   10517   10518   10519   10520   10521   10522   10523   10502
   10500   10501   10506   10513   10524   10525   10526   10506   10506   10503
   10504   10505   10507   10508   10514   10515   10516   10517   10527   10504
   10505   10507   10508   10509   10510   10511   10512   10514   10515   10516
   10517   10528   10505   10508   10509   10510   10511   10512   10518   10519
   10520   10523   10529   10530   10531   10508   10509   10510   10511   10512
   10520   10521   10522   10523   10532   10533   10534   10513   10524   10525
   10526   10508   10514   10515   10516   10527   10528   10514   10516   10517
   10527   10528   10535   10536   10510   10512   10518   10519   10520   10529
   10530   10537   10538   10539   10511   10512   10518   10519   10520   10523
   10530   10531   10533   10534   10539   10512   10521   10522   10523   10532
   10533   10540   10541   10542   10520   10521   10522   10523   10530   10531
   10533   10534   10542   10524   10525   10526   10515   10516   10517   10527
   10528   10535   10536   10516   10527   10517   10527   10528   10535   10536
   10543   10544   10545   10546   10528   10519   10520   10529   10530   10531
   10537   10538   10539   10547   10548   10549   10550   10529   10530   10523
   10529   10530   10531   10539   10522   10532   10533   10523   10532   10533
   10534   10540   10541   10542   10551   10552   10553   10554   10532   10533
   10534   10542   10525   10526   10526       0   10528   10535   10536   10543
   10544   10545   10546   10555   10556   10557   10558   10559   10560   10561
   10562   10530   10537   10538   10539   10547   10548   10549   10550   10563
   10564   10565   10566   10567   10568   10569   10570   10531   10537   10538
   10539   10539   10533   10540   10541   10542   10551   10552   10553   10554
   10571   10572   10573   10574   10575   10576   10577   10578   10534   10540
   10541   10542   10542   10536   10543   10544   10545   10546   10555   10556
   10557   10558   10579   10580   10581   10543   10544   10545   10546   10559
   10560   10561   10562   10582   10583   10584   10538   10547   10548   10549
   10550   10563   10564   10565   10566   10585   10586   10587   10547   10548
   10549   10550   10567   10568   10569   10570   10588   10589   10590       0
   10541   10551   10552   10553   10554   10571   10572   10573   10574   10591
   10592   10593   10551   10552   10553   10554   10575   10576   10577   10578
   10594   10595   10596       0   10544   10555   10556   10557   10558   10579
   10580   10597   10555   10556   10557   10558   10579   10581   10597   10546
   10559   10560   10561   10562   10582   10583   10598   10559   10560   10561
   10562   10582   10584   10598   10548   10563   10564   10565   10566   10585
   10586   10599   10563   10564   10565   10566   10586   10587   10599   10550
   10567   10568   10569   10570   10588   10589   10600   10567   10568   10569
   10570   10588   10590   10600   10552   10571   10572   10573   10574   10591
   10592   10601   10571   10572   10573   10574   10591   10593   10601   10554
   10575   10576   10577   10578   10594   10595   10602   10575   10576   10577
   10578   10594   10596   10602   10556   10557   10579   10580   10581   10597
   10603   10579   10580   10558   10579   10580   10581   10597   10603   10579
   10581   10560   10582   10583   10562   10582   10583   10584   10598   10604
   10562   10582   10584   10582   10583   10584   10598   10604   10564   10565
   10585   10586   10587   10599   10605   10585   10586   10566   10585   10586
   10587   10599   10605   10586   10587   10568   10569   10588   10589   10590
   10600   10606   10588   10589   10570   10588   10589   10590   10600   10606
   10588   10590   10572   10573   10591   10592   10593   10601   10607   10591
   10592   10574   10591   10592   10593   10601   10607   10591   10593   10576
   10577   10594   10595   10596   10602   10608   10594   10595   10578   10594
   10595   10596   10602   10608   10594   10596   10580   10581   10597   10603
   10609   10610   10611   10597   10597   10583   10584   10598   10604   10612
   10613   10614   10598   10598   10586   10599   10587   10599   10605   10615
   10616   10617   10599   10589   10590   10600   10606   10618   10619   10620
   10600   10600   10592   10593   10601   10607   10621   10622   10623   10601
   10601   10595   10596   10602   10608   10624   10625   10626   10602   10602
   10603   10609   10610   10611   10604   10612   10613   10614   10605   10615
   10616   10617   10606   10618   10619   10620   10607   10621   10622   10623
   10608   10624   10625   10626   10609   10610   10611   10612   10613   10614
   10615   10616   10617   10618   10619   10620   10621   10622   10623   10624
   10625   10626   10610   10611   10611       0   10613   10614   10614       0
   10616   10617   10617       0   10619   10620   10620       0   10622   10623
   10623       0   10625   10626   10626       0   10628   10629   10630   10631
   10632   10633   10634   10635   10636   10637   10638   10629   10630   10631
   10632   10633   10634   10635   10636   10637   10638   10639   10640   10641
   10630   10631   10632   10633   10634   10631   10635   10636   10637   10638
   10639   10640   10642   10635   10636   10637   10638   10639   10641   10642
   10633   10634   10634       0   10636   10637   10639   10640   10641   10642
   10643   10644   10639   10640   10638   10639   10640   10641   10642   10643
   10644   10639   10641   10640   10641   10642   10643   10644   10645   10646
   10647   10648   10642   10642   10643   10644   10645   10646   10647   10648
   10649   10650   10651   10652   10653   10654   10655   10656   10644   10645
   10646   10647   10648   10649   10650   10651   10652   10657   10658   10659
   10645   10646   10647   10648   10653   10654   10655   10656   10660   10661
   10662   10646   10649   10650   10651   10652   10657   10658   10663   10664
   10665   10666   10649   10650   10651   10652   10657   10659   10663   10648
   10653   10654   10655   10656   10660   10661   10667   10653   10654   10655
   10656   10660   10662   10667   10650   10651   10657   10658   10659   10663
   10664   10665   10666   10668   10669   10670   10671   10672   10673   10657
   10658   10652   10657   10658   10659   10663   10664   10668   10657   10659
   10654   10655   10660   10661   10662   10667   10674   10660   10661   10656
   10660   10661   10662   10667   10674   10660   10662   10658   10659   10663
   10664   10665   10666   10668   10669   10675   10676   10663   10664   10665
   10666   10668   10669   10670   10671   10672   10673   10677   10678   10679
   10680   10681   10682   10683   10684   10663   10661   10662   10667   10674
   10685   10686   10687   10667   10667   10664   10665   10666   10668   10669
   10675   10676   10677   10678   10688   10665   10666   10668   10669   10670
   10671   10672   10673   10675   10676   10677   10678   10689   10666   10669
   10670   10671   10672   10673   10679   10680   10681   10684   10690   10691
   10692   10669   10670   10671   10672   10673   10681   10682   10683   10684
   10693   10694   10695   10674   10685   10686   10687   10669   10675   10676
   10677   10688   10689   10675   10677   10678   10688   10689   10696   10697
   10671   10673   10679   10680   10681   10690   10691   10698   10699   10700
   10672   10673   10679   10680   10681   10684   10691   10692   10694   10695
   10700   10673   10682   10683   10684   10693   10694   10701   10702   10703
   10681   10682   10683   10684   10691   10692   10694   10695   10703   10685
   10686   10687   10676   10677   10678   10688   10689   10696   10697   10677
   10688   10678   10688   10689   10696   10697   10704   10705   10706   10707
   10689   10680   10681   10690   10691   10692   10698   10699   10700   10708
   10709   10710   10711   10690   10691   10684   10690   10691   10692   10700
   10683   10693   10694   10684   10693   10694   10695   10701   10702   10703
   10712   10713   10714   10715   10693   10694   10695   10703   10686   10687
   10687       0   10689   10696   10697   10704   10705   10706   10707   10716
   10717   10718   10719   10720   10721   10722   10723   10691   10698   10699
   10700   10708   10709   10710   10711   10724   10725   10726   10727   10728
   10729   10730   10731   10692   10698   10699   10700   10700   10694   10701
   10702   10703   10712   10713   10714   10715   10732   10733   10734   10735
   10736   10737   10738   10739   10695   10701   10702   10703   10703   10697
   10704   10705   10706   10707   10716   10717   10718   10719   10740   10741
   10742   10704   10705   10706   10707   10720   10721   10722   10723   10743
   10744   10745   10699   10708   10709   10710   10711   10724   10725   10726
   10727   10746   10747   10748   10708   10709   10710   10711   10728   10729
   10730   10731   10749   10750   10751       0   10702   10712   10713   10714
   10715   10732   10733   10734   10735   10752   10753   10754   10712   10713
   10714   10715   10736   10737   10738   10739   10755   10756   10757       0
   10705   10716   10717   10718   10719   10740   10741   10758   10716   10717
   10718   10719   10740   10742   10758   10707   10720   10721   10722   10723
   10743   10744   10759   10720   10721   10722   10723   10743   10745   10759
   10709   10724   10725   10726   10727   10746   10747   10760   10724   10725
   10726   10727   10747   10748   10760   10711   10728   10729   10730   10731
   10749   10750   10761   10728   10729   10730   10731   10749   10751   10761
   10713   10732   10733   10734   10735   10752   10753   10762   10732   10733
   10734   10735   10752   10754   10762   10715   10736   10737   10738   10739
   10755   10756   10763   10736   10737   10738   10739   10755   10757   10763
   10717   10718   10740   10741   10742   10758   10764   10740   10741   10719
   10740   10741   10742   10758   10764   10740   10742   10721   10743   10744
   10723   10743   10744   10745   10759   10765   10723   10743   10745   10743
   10744   10745   10759   10765   10725   10726   10746   10747   10748   10760
   10766   10746   10747   10727   10746   10747   10748   10760   10766   10747
   10748   10729   10730   10749   10750   10751   10761   10767   10749   10750
   10731   10749   10750   10751   10761   10767   10749   10751   10733   10734
   10752   10753   10754   10762   10768   10752   10753   10735   10752   10753
   10754   10762   10768   10752   10754   10737   10738   10755   10756   10757
   10763   10769   10755   10756   10739   10755   10756   10757   10763   10769
   10755   10757   10741   10742   10758   10764   10770   10771   10772   10758
   10758   10744   10745   10759   10765   10773   10774   10775   10759   10759
   10747   10760   10748   10760   10766   10776   10777   10778   10760   10750
   10751   10761   10767   10779   10780   10781   10761   10761   10753   10754
   10762   10768   10782   10783   10784   10762   10762   10756   10757   10763
   10769   10785   10786   10787   10763   10763   10764   10770   10771   10772
   10765   10773   10774   10775   10766   10776   10777   10778   10767   10779
   10780   10781   10768   10782   10783   10784   10769   10785   10786   10787
   10770   10771   10772   10773   10774   10775   10776   10777   10778   10779
   10780   10781   10782   10783   10784   10785   10786   10787   10771   10772
   10772       0   10774   10775   10775       0   10777   10778   10778       0
   10780   10781   10781       0   10783   10784   10784       0   10786   10787
   10787       0   10789   10790   10791   10792   10793   10794   10795   10796
   10797   10798   10799   10790   10791   10792   10793   10794   10795   10796
   10797   10798   10799   10800   10801   10802   10791   10792   10793   10794
   10795   10792   10796   10797   10798   10799   10800   10801   10803   10796
   10797   10798   10799   10800   10802   10803   10794   10795   10795       0
   10797   10798   10800   10801   10802   10803   10804   10805   10800   10801
   10799   10800   10801   10802   10803   10804   10805   10800   10802   10801
   10802   10803   10804   10805   10806   10807   10808   10809   10803   10803
   10804   10805   10806   10807   10808   10809   10810   10811   10812   10813
   10814   10815   10816   10817   10805   10806   10807   10808   10809   10810
   10811   10812   10813   10818   10819   10820   10806   10807   10808   10809
   10814   10815   10816   10817   10821   10822   10823   10807   10810   10811
   10812   10813   10818   10819   10824   10825   10826   10827   10810   10811
   10812   10813   10818   10820   10824   10809   10814   10815   10816   10817
   10821   10822   10828   10814   10815   10816   10817   10821   10823   10828
   10811   10812   10818   10819   10820   10824   10825   10826   10827   10829
   10830   10831   10832   10833   10834   10818   10819   10813   10818   10819
   10820   10824   10825   10829   10818   10820   10815   10816   10821   10822
   10823   10828   10835   10821   10822   10817   10821   10822   10823   10828
   10835   10821   10823   10819   10820   10824   10825   10826   10827   10829
   10830   10836   10837   10824   10825   10826   10827   10829   10830   10831
   10832   10833   10834   10838   10839   10840   10841   10842   10843   10844
   10845   10824   10822   10823   10828   10835   10846   10847   10848   10828
   10828   10825   10826   10827   10829   10830   10836   10837   10838   10839
   10849   10826   10827   10829   10830   10831   10832   10833   10834   10836
   10837   10838   10839   10850   10827   10830   10831   10832   10833   10834
   10840   10841   10842   10845   10851   10852   10853   10830   10831   10832
   10833   10834   10842   10843   10844   10845   10854   10855   10856   10835
   10846   10847   10848   10830   10836   10837   10838   10849   10850   10836
   10838   10839   10849   10850   10857   10858   10832   10834   10840   10841
   10842   10851   10852   10859   10860   10861   10833   10834   10840   10841
   10842   10845   10852   10853   10855   10856   10861   10834   10843   10844
   10845   10854   10855   10862   10863   10864   10842   10843   10844   10845
   10852   10853   10855   10856   10864   10846   10847   10848   10837   10838
   10839   10849   10850   10857   10858   10838   10849   10839   10849   10850
   10857   10858   10865   10866   10867   10868   10850   10841   10842   10851
   10852   10853   10859   10860   10861   10869   10870   10871   10872   10851
   10852   10845   10851   10852   10853   10861   10844   10854   10855   10845
   10854   10855   10856   10862   10863   10864   10873   10874   10875   10876
   10854   10855   10856   10864   10847   10848   10848       0   10850   10857
   10858   10865   10866   10867   10868   10877   10878   10879   10880   10881
   10882   10883   10884   10852   10859   10860   10861   10869   10870   10871
   10872   10885   10886   10887   10888   10889   10890   10891   10892   10853
   10859   10860   10861   10861   10855   10862   10863   10864   10873   10874
   10875   10876   10893   10894   10895   10896   10897   10898   10899   10900
   10856   10862   10863   10864   10864   10858   10865   10866   10867   10868
   10877   10878   10879   10880   10901   10902   10903   10865   10866   10867
   10868   10881   10882   10883   10884   10904   10905   10906   10860   10869
   10870   10871   10872   10885   10886   10887   10888   10907   10908   10909
   10869   10870   10871   10872   10889   10890   10891   10892   10910   10911
   10912       0   10863   10873   10874   10875   10876   10893   10894   10895
   10896   10913   10914   10915   10873   10874   10875   10876   10897   10898
   10899   10900   10916   10917   10918       0   10866   10877   10878   10879
   10880   10901   10902   10919   10877   10878   10879   10880   10901   10903
   10919   10868   10881   10882   10883   10884   10904   10905   10920   10881
   10882   10883   10884   10904   10906   10920   10870   10885   10886   10887
   10888   10907   10908   10921   10885   10886   10887   10888   10908   10909
   10921   10872   10889   10890   10891   10892   10910   10911   10922   10889
   10890   10891   10892   10910   10912   10922   10874   10893   10894   10895
   10896   10913   10914   10923   10893   10894   10895   10896   10913   10915
   10923   10876   10897   10898   10899   10900   10916   10917   10924   10897
   10898   10899   10900   10916   10918   10924   10878   10879   10901   10902
   10903   10919   10925   10901   10902   10880   10901   10902   10903   10919
   10925   10901   10903   10882   10904   10905   10884   10904   10905   10906
   10920   10926   10884   10904   10906   10904   10905   10906   10920   10926
   10886   10887   10907   10908   10909   10921   10927   10907   10908   10888
   10907   10908   10909   10921   10927   10908   10909   10890   10891   10910
   10911   10912   10922   10928   10910   10911   10892   10910   10911   10912
   10922   10928   10910   10912   10894   10895   10913   10914   10915   10923
   10929   10913   10914   10896   10913   10914   10915   10923   10929   10913
   10915   10898   10899   10916   10917   10918   10924   10930   10916   10917
   10900   10916   10917   10918   10924   10930   10916   10918   10902   10903
   10919   10925   10931   10932   10933   10919   10919   10905   10906   10920
   10926   10934   10935   10936   10920   10920   10908   10921   10909   10921
   10927   10937   10938   10939   10921   10911   10912   10922   10928   10940
   10941   10942   10922   10922   10914   10915   10923   10929   10943   10944
   10945   10923   10923   10917   10918   10924   10930   10946   10947   10948
   10924   10924   10925   10931   10932   10933   10926   10934   10935   10936
   10927   10937   10938   10939   10928   10940   10941   10942   10929   10943
   10944   10945   10930   10946   10947   10948   10931   10932   10933   10934
   10935   10936   10937   10938   10939   10940   10941   10942   10943   10944
   10945   10946   10947   10948   10932   10933   10933       0   10935   10936
   10936       0   10938   10939   10939       0   10941   10942   10942       0
   10944   10945   10945       0   10947   10948   10948       0   10950   10951
   10952   10953   10954   10955   10956   10957   10958   10959   10960   10951
   10952   10953   10954   10955   10956   10957   10958   10959   10960   10961
   10962   10963   10952   10953   10954   10955   10956   10953   10957   10958
   10959   10960   10961   10962   10964   10957   10958   10959   10960   10961
   10963   10964   10955   10956   10956       0   10958   10959   10961   10962
   10963   10964   10965   10966   10961   10962   10960   10961   10962   10963
   10964   10965   10966   10961   10963   10962   10963   10964   10965   10966
   10967   10968   10969   10970   10964   10964   10965   10966   10967   10968
   10969   10970   10971   10972   10973   10974   10975   10976   10977   10978
   10966   10967   10968   10969   10970   10971   10972   10973   10974   10979
   10980   10981   10967   10968   10969   10970   10975   10976   10977   10978
   10982   10983   10984   10968   10971   10972   10973   10974   10979   10980
   10985   10986   10987   10988   10971   10972   10973   10974   10979   10981
   10985   10970   10975   10976   10977   10978   10982   10983   10989   10975
   10976   10977   10978   10982   10984   10989   10972   10973   10979   10980
   10981   10985   10986   10987   10988   10990   10991   10992   10993   10994
   10995   10979   10980   10974   10979   10980   10981   10985   10986   10990
   10979   10981   10976   10977   10982   10983   10984   10989   10996   10982
   10983   10978   10982   10983   10984   10989   10996   10982   10984   10980
   10981   10985   10986   10987   10988   10990   10991   10997   10998   10985
   10986   10987   10988   10990   10991   10992   10993   10994   10995   10999
   11000   11001   11002   11003   11004   11005   11006   10985   10983   10984
   10989   10996   11007   11008   11009   10989   10989   10986   10987   10988
   10990   10991   10997   10998   10999   11000   11010   10987   10988   10990
   10991   10992   10993   10994   10995   10997   10998   10999   11000   11011
   10988   10991   10992   10993   10994   10995   11001   11002   11003   11006
   11012   11013   11014   10991   10992   10993   10994   10995   11003   11004
   11005   11006   11015   11016   11017   10996   11007   11008   11009   10991
   10997   10998   10999   11010   11011   10997   10999   11000   11010   11011
   11018   11019   10993   10995   11001   11002   11003   11012   11013   11020
   11021   11022   10994   10995   11001   11002   11003   11006   11013   11014
   11016   11017   11022   10995   11004   11005   11006   11015   11016   11023
   11024   11025   11003   11004   11005   11006   11013   11014   11016   11017
   11025   11007   11008   11009   10998   10999   11000   11010   11011   11018
   11019   10999   11010   11000   11010   11011   11018   11019   11026   11027
   11028   11029   11011   11002   11003   11012   11013   11014   11020   11021
   11022   11030   11031   11032   11033   11012   11013   11006   11012   11013
   11014   11022   11005   11015   11016   11006   11015   11016   11017   11023
   11024   11025   11034   11035   11036   11037   11015   11016   11017   11025
   11008   11009   11009       0   11011   11018   11019   11026   11027   11028
   11029   11038   11039   11040   11041   11042   11043   11044   11045   11013
   11020   11021   11022   11030   11031   11032   11033   11046   11047   11048
   11049   11050   11051   11052   11053   11014   11020   11021   11022   11022
   11016   11023   11024   11025   11034   11035   11036   11037   11054   11055
   11056   11057   11058   11059   11060   11061   11017   11023   11024   11025
   11025   11019   11026   11027   11028   11029   11038   11039   11040   11041
   11062   11063   11064   11026   11027   11028   11029   11042   11043   11044
   11045   11065   11066   11067   11021   11030   11031   11032   11033   11046
   11047   11048   11049   11068   11069   11070   11030   11031   11032   11033
   11050   11051   11052   11053   11071   11072   11073       0   11024   11034
   11035   11036   11037   11054   11055   11056   11057   11074   11075   11076
   11034   11035   11036   11037   11058   11059   11060   11061   11077   11078
   11079       0   11027   11038   11039   11040   11041   11062   11063   11080
   11038   11039   11040   11041   11062   11064   11080   11029   11042   11043
   11044   11045   11065   11066   11081   11042   11043   11044   11045   11065
   11067   11081   11031   11046   11047   11048   11049   11068   11069   11082
   11046   11047   11048   11049   11069   11070   11082   11033   11050   11051
   11052   11053   11071   11072   11083   11050   11051   11052   11053   11071
   11073   11083   11035   11054   11055   11056   11057   11074   11075   11084
   11054   11055   11056   11057   11074   11076   11084   11037   11058   11059
   11060   11061   11077   11078   11085   11058   11059   11060   11061   11077
   11079   11085   11039   11040   11062   11063   11064   11080   11086   11062
   11063   11041   11062   11063   11064   11080   11086   11062   11064   11043
   11065   11066   11045   11065   11066   11067   11081   11087   11045   11065
   11067   11065   11066   11067   11081   11087   11047   11048   11068   11069
   11070   11082   11088   11068   11069   11049   11068   11069   11070   11082
   11088   11069   11070   11051   11052   11071   11072   11073   11083   11089
   11071   11072   11053   11071   11072   11073   11083   11089   11071   11073
   11055   11056   11074   11075   11076   11084   11090   11074   11075   11057
   11074   11075   11076   11084   11090   11074   11076   11059   11060   11077
   11078   11079   11085   11091   11077   11078   11061   11077   11078   11079
   11085   11091   11077   11079   11063   11064   11080   11086   11092   11093
   11094   11080   11080   11066   11067   11081   11087   11095   11096   11097
   11081   11081   11069   11082   11070   11082   11088   11098   11099   11100
   11082   11072   11073   11083   11089   11101   11102   11103   11083   11083
   11075   11076   11084   11090   11104   11105   11106   11084   11084   11078
   11079   11085   11091   11107   11108   11109   11085   11085   11086   11092
   11093   11094   11087   11095   11096   11097   11088   11098   11099   11100
   11089   11101   11102   11103   11090   11104   11105   11106   11091   11107
   11108   11109   11092   11093   11094   11095   11096   11097   11098   11099
   11100   11101   11102   11103   11104   11105   11106   11107   11108   11109
   11093   11094   11094       0   11096   11097   11097       0   11099   11100
   11100       0   11102   11103   11103       0   11105   11106   11106       0
   11108   11109   11109       0   11111   11112   11113   11114   11115   11116
   11117   11118   11119   11120   11121   11112   11113   11114   11115   11116
   11117   11118   11119   11120   11121   11122   11123   11124   11113   11114
   11115   11116   11117   11114   11118   11119   11120   11121   11122   11123
   11125   11118   11119   11120   11121   11122   11124   11125   11116   11117
   11117       0   11119   11120   11122   11123   11124   11125   11126   11127
   11122   11123   11121   11122   11123   11124   11125   11126   11127   11122
   11124   11123   11124   11125   11126   11127   11128   11129   11130   11131
   11125   11125   11126   11127   11128   11129   11130   11131   11132   11133
   11134   11135   11136   11137   11138   11139   11127   11128   11129   11130
   11131   11132   11133   11134   11135   11140   11141   11142   11128   11129
   11130   11131   11136   11137   11138   11139   11143   11144   11145   11129
   11132   11133   11134   11135   11140   11141   11146   11147   11148   11149
   11132   11133   11134   11135   11140   11142   11146   11131   11136   11137
   11138   11139   11143   11144   11150   11136   11137   11138   11139   11143
   11145   11150   11133   11134   11140   11141   11142   11146   11147   11148
   11149   11151   11152   11153   11154   11155   11156   11140   11141   11135
   11140   11141   11142   11146   11147   11151   11140   11142   11137   11138
   11143   11144   11145   11150   11157   11143   11144   11139   11143   11144
   11145   11150   11157   11143   11145   11141   11142   11146   11147   11148
   11149   11151   11152   11158   11159   11146   11147   11148   11149   11151
   11152   11153   11154   11155   11156   11160   11161   11162   11163   11164
   11165   11166   11167   11146   11144   11145   11150   11157   11168   11169
   11170   11150   11150   11147   11148   11149   11151   11152   11158   11159
   11160   11161   11171   11148   11149   11151   11152   11153   11154   11155
   11156   11158   11159   11160   11161   11172   11149   11152   11153   11154
   11155   11156   11162   11163   11164   11167   11173   11174   11175   11152
   11153   11154   11155   11156   11164   11165   11166   11167   11176   11177
   11178   11157   11168   11169   11170   11152   11158   11159   11160   11171
   11172   11158   11160   11161   11171   11172   11179   11180   11154   11156
   11162   11163   11164   11173   11174   11181   11182   11183   11155   11156
   11162   11163   11164   11167   11174   11175   11177   11178   11183   11156
   11165   11166   11167   11176   11177   11184   11185   11186   11164   11165
   11166   11167   11174   11175   11177   11178   11186   11168   11169   11170
   11159   11160   11161   11171   11172   11179   11180   11160   11171   11161
   11171   11172   11179   11180   11187   11188   11189   11190   11172   11163
   11164   11173   11174   11175   11181   11182   11183   11191   11192   11193
   11194   11173   11174   11167   11173   11174   11175   11183   11166   11176
   11177   11167   11176   11177   11178   11184   11185   11186   11195   11196
   11197   11198   11176   11177   11178   11186   11169   11170   11170       0
   11172   11179   11180   11187   11188   11189   11190   11199   11200   11201
   11202   11203   11204   11205   11206   11174   11181   11182   11183   11191
   11192   11193   11194   11207   11208   11209   11210   11211   11212   11213
   11214   11175   11181   11182   11183   11183   11177   11184   11185   11186
   11195   11196   11197   11198   11215   11216   11217   11218   11219   11220
   11221   11222   11178   11184   11185   11186   11186   11180   11187   11188
   11189   11190   11199   11200   11201   11202   11223   11224   11225   11187
   11188   11189   11190   11203   11204   11205   11206   11226   11227   11228
   11182   11191   11192   11193   11194   11207   11208   11209   11210   11229
   11230   11231   11191   11192   11193   11194   11211   11212   11213   11214
   11232   11233   11234       0   11185   11195   11196   11197   11198   11215
   11216   11217   11218   11235   11236   11237   11195   11196   11197   11198
   11219   11220   11221   11222   11238   11239   11240       0   11188   11199
   11200   11201   11202   11223   11224   11241   11199   11200   11201   11202
   11223   11225   11241   11190   11203   11204   11205   11206   11226   11227
   11242   11203   11204   11205   11206   11226   11228   11242   11192   11207
   11208   11209   11210   11229   11230   11243   11207   11208   11209   11210
   11230   11231   11243   11194   11211   11212   11213   11214   11232   11233
   11244   11211   11212   11213   11214   11232   11234   11244   11196   11215
   11216   11217   11218   11235   11236   11245   11215   11216   11217   11218
   11235   11237   11245   11198   11219   11220   11221   11222   11238   11239
   11246   11219   11220   11221   11222   11238   11240   11246   11200   11201
   11223   11224   11225   11241   11247   11223   11224   11202   11223   11224
   11225   11241   11247   11223   11225   11204   11226   11227   11206   11226
   11227   11228   11242   11248   11206   11226   11228   11226   11227   11228
   11242   11248   11208   11209   11229   11230   11231   11243   11249   11229
   11230   11210   11229   11230   11231   11243   11249   11230   11231   11212
   11213   11232   11233   11234   11244   11250   11232   11233   11214   11232
   11233   11234   11244   11250   11232   11234   11216   11217   11235   11236
   11237   11245   11251   11235   11236   11218   11235   11236   11237   11245
   11251   11235   11237   11220   11221   11238   11239   11240   11246   11252
   11238   11239   11222   11238   11239   11240   11246   11252   11238   11240
   11224   11225   11241   11247   11253   11254   11255   11241   11241   11227
   11228   11242   11248   11256   11257   11258   11242   11242   11230   11243
   11231   11243   11249   11259   11260   11261   11243   11233   11234   11244
   11250   11262   11263   11264   11244   11244   11236   11237   11245   11251
   11265   11266   11267   11245   11245   11239   11240   11246   11252   11268
   11269   11270   11246   11246   11247   11253   11254   11255   11248   11256
   11257   11258   11249   11259   11260   11261   11250   11262   11263   11264
   11251   11265   11266   11267   11252   11268   11269   11270   11253   11254
   11255   11256   11257   11258   11259   11260   11261   11262   11263   11264
   11265   11266   11267   11268   11269   11270   11254   11255   11255       0
   11257   11258   11258       0   11260   11261   11261       0   11263   11264
   11264       0   11266   11267   11267       0   11269   11270   11270       0
   11272   11273   11274   11275   11276   11277   11278   11279   11280   11281
   11282   11273   11274   11275   11276   11277   11278   11279   11280   11281
   11282   11283   11284   11285   11274   11275   11276   11277   11278   11275
   11279   11280   11281   11282   11283   11284   11286   11279   11280   11281
   11282   11283   11285   11286   11277   11278   11278       0   11280   11281
   11283   11284   11285   11286   11287   11288   11283   11284   11282   11283
   11284   11285   11286   11287   11288   11283   11285   11284   11285   11286
   11287   11288   11289   11290   11291   11292   11286   11286   11287   11288
   11289   11290   11291   11292   11293   11294   11295   11296   11297   11298
   11299   11300   11288   11289   11290   11291   11292   11293   11294   11295
   11296   11301   11302   11303   11289   11290   11291   11292   11297   11298
   11299   11300   11304   11305   11306   11290   11293   11294   11295   11296
   11301   11302   11307   11308   11309   11310   11293   11294   11295   11296
   11301   11303   11307   11292   11297   11298   11299   11300   11304   11305
   11311   11297   11298   11299   11300   11304   11306   11311   11294   11295
   11301   11302   11303   11307   11308   11309   11310   11312   11313   11314
   11315   11316   11317   11301   11302   11296   11301   11302   11303   11307
   11308   11312   11301   11303   11298   11299   11304   11305   11306   11311
   11318   11304   11305   11300   11304   11305   11306   11311   11318   11304
   11306   11302   11303   11307   11308   11309   11310   11312   11313   11319
   11320   11307   11308   11309   11310   11312   11313   11314   11315   11316
   11317   11321   11322   11323   11324   11325   11326   11327   11328   11307
   11305   11306   11311   11318   11329   11330   11331   11311   11311   11308
   11309   11310   11312   11313   11319   11320   11321   11322   11332   11309
   11310   11312   11313   11314   11315   11316   11317   11319   11320   11321
   11322   11333   11310   11313   11314   11315   11316   11317   11323   11324
   11325   11328   11334   11335   11336   11313   11314   11315   11316   11317
   11325   11326   11327   11328   11337   11338   11339   11318   11329   11330
   11331   11313   11319   11320   11321   11332   11333   11319   11321   11322
   11332   11333   11340   11341   11315   11317   11323   11324   11325   11334
   11335   11342   11343   11344   11316   11317   11323   11324   11325   11328
   11335   11336   11338   11339   11344   11317   11326   11327   11328   11337
   11338   11345   11346   11347   11325   11326   11327   11328   11335   11336
   11338   11339   11347   11329   11330   11331   11320   11321   11322   11332
   11333   11340   11341   11321   11332   11322   11332   11333   11340   11341
   11348   11349   11350   11351   11333   11324   11325   11334   11335   11336
   11342   11343   11344   11352   11353   11354   11355   11334   11335   11328
   11334   11335   11336   11344   11327   11337   11338   11328   11337   11338
   11339   11345   11346   11347   11356   11357   11358   11359   11337   11338
   11339   11347   11330   11331   11331       0   11333   11340   11341   11348
   11349   11350   11351   11360   11361   11362   11363   11364   11365   11366
   11367   11335   11342   11343   11344   11352   11353   11354   11355   11368
   11369   11370   11371   11372   11373   11374   11375   11336   11342   11343
   11344   11344   11338   11345   11346   11347   11356   11357   11358   11359
   11376   11377   11378   11379   11380   11381   11382   11383   11339   11345
   11346   11347   11347   11341   11348   11349   11350   11351   11360   11361
   11362   11363   11384   11385   11386   11348   11349   11350   11351   11364
   11365   11366   11367   11387   11388   11389   11343   11352   11353   11354
   11355   11368   11369   11370   11371   11390   11391   11392   11352   11353
   11354   11355   11372   11373   11374   11375   11393   11394   11395       0
   11346   11356   11357   11358   11359   11376   11377   11378   11379   11396
   11397   11398   11356   11357   11358   11359   11380   11381   11382   11383
   11399   11400   11401       0   11349   11360   11361   11362   11363   11384
   11385   11402   11360   11361   11362   11363   11384   11386   11402   11351
   11364   11365   11366   11367   11387   11388   11403   11364   11365   11366
   11367   11387   11389   11403   11353   11368   11369   11370   11371   11390
   11391   11404   11368   11369   11370   11371   11391   11392   11404   11355
   11372   11373   11374   11375   11393   11394   11405   11372   11373   11374
   11375   11393   11395   11405   11357   11376   11377   11378   11379   11396
   11397   11406   11376   11377   11378   11379   11396   11398   11406   11359
   11380   11381   11382   11383   11399   11400   11407   11380   11381   11382
   11383   11399   11401   11407   11361   11362   11384   11385   11386   11402
   11408   11384   11385   11363   11384   11385   11386   11402   11408   11384
   11386   11365   11387   11388   11367   11387   11388   11389   11403   11409
   11367   11387   11389   11387   11388   11389   11403   11409   11369   11370
   11390   11391   11392   11404   11410   11390   11391   11371   11390   11391
   11392   11404   11410   11391   11392   11373   11374   11393   11394   11395
   11405   11411   11393   11394   11375   11393   11394   11395   11405   11411
   11393   11395   11377   11378   11396   11397   11398   11406   11412   11396
   11397   11379   11396   11397   11398   11406   11412   11396   11398   11381
   11382   11399   11400   11401   11407   11413   11399   11400   11383   11399
   11400   11401   11407   11413   11399   11401   11385   11386   11402   11408
   11414   11415   11416   11402   11402   11388   11389   11403   11409   11417
   11418   11419   11403   11403   11391   11404   11392   11404   11410   11420
   11421   11422   11404   11394   11395   11405   11411   11423   11424   11425
   11405   11405   11397   11398   11406   11412   11426   11427   11428   11406
   11406   11400   11401   11407   11413   11429   11430   11431   11407   11407
   11408   11414   11415   11416   11409   11417   11418   11419   11410   11420
   11421   11422   11411   11423   11424   11425   11412   11426   11427   11428
   11413   11429   11430   11431   11414   11415   11416   11417   11418   11419
   11420   11421   11422   11423   11424   11425   11426   11427   11428   11429
   11430   11431   11415   11416   11416       0   11418   11419   11419       0
   11421   11422   11422       0   11424   11425   11425       0   11427   11428
   11428       0   11430   11431   11431       0   11433   11434   11435   11436
   11437   11438   11439   11440   11441   11442   11443   11434   11435   11436
   11437   11438   11439   11440   11441   11442   11443   11444   11445   11446
   11435   11436   11437   11438   11439   11436   11440   11441   11442   11443
   11444   11445   11447   11440   11441   11442   11443   11444   11446   11447
   11438   11439   11439       0   11441   11442   11444   11445   11446   11447
   11448   11449   11444   11445   11443   11444   11445   11446   11447   11448
   11449   11444   11446   11445   11446   11447   11448   11449   11450   11451
   11452   11453   11447   11447   11448   11449   11450   11451   11452   11453
   11454   11455   11456   11457   11458   11459   11460   11461   11449   11450
   11451   11452   11453   11454   11455   11456   11457   11462   11463   11464
   11450   11451   11452   11453   11458   11459   11460   11461   11465   11466
   11467   11451   11454   11455   11456   11457   11462   11463   11468   11469
   11470   11471   11454   11455   11456   11457   11462   11464   11468   11453
   11458   11459   11460   11461   11465   11466   11472   11458   11459   11460
   11461   11465   11467   11472   11455   11456   11462   11463   11464   11468
   11469   11470   11471   11473   11474   11475   11476   11477   11478   11462
   11463   11457   11462   11463   11464   11468   11469   11473   11462   11464
   11459   11460   11465   11466   11467   11472   11479   11465   11466   11461
   11465   11466   11467   11472   11479   11465   11467   11463   11464   11468
   11469   11470   11471   11473   11474   11480   11481   11468   11469   11470
   11471   11473   11474   11475   11476   11477   11478   11482   11483   11484
   11485   11486   11487   11488   11489   11468   11466   11467   11472   11479
   11490   11491   11492   11472   11472   11469   11470   11471   11473   11474
   11480   11481   11482   11483   11493   11470   11471   11473   11474   11475
   11476   11477   11478   11480   11481   11482   11483   11494   11471   11474
   11475   11476   11477   11478   11484   11485   11486   11489   11495   11496
   11497   11474   11475   11476   11477   11478   11486   11487   11488   11489
   11498   11499   11500   11479   11490   11491   11492   11474   11480   11481
   11482   11493   11494   11480   11482   11483   11493   11494   11501   11502
   11476   11478   11484   11485   11486   11495   11496   11503   11504   11505
   11477   11478   11484   11485   11486   11489   11496   11497   11499   11500
   11505   11478   11487   11488   11489   11498   11499   11506   11507   11508
   11486   11487   11488   11489   11496   11497   11499   11500   11508   11490
   11491   11492   11481   11482   11483   11493   11494   11501   11502   11482
   11493   11483   11493   11494   11501   11502   11509   11510   11511   11512
   11494   11485   11486   11495   11496   11497   11503   11504   11505   11513
   11514   11515   11516   11495   11496   11489   11495   11496   11497   11505
   11488   11498   11499   11489   11498   11499   11500   11506   11507   11508
   11517   11518   11519   11520   11498   11499   11500   11508   11491   11492
   11492       0   11494   11501   11502   11509   11510   11511   11512   11521
   11522   11523   11524   11525   11526   11527   11528   11496   11503   11504
   11505   11513   11514   11515   11516   11529   11530   11531   11532   11533
   11534   11535   11536   11497   11503   11504   11505   11505   11499   11506
   11507   11508   11517   11518   11519   11520   11537   11538   11539   11540
   11541   11542   11543   11544   11500   11506   11507   11508   11508   11502
   11509   11510   11511   11512   11521   11522   11523   11524   11545   11546
   11547   11509   11510   11511   11512   11525   11526   11527   11528   11548
   11549   11550   11504   11513   11514   11515   11516   11529   11530   11531
   11532   11551   11552   11553   11513   11514   11515   11516   11533   11534
   11535   11536   11554   11555   11556       0   11507   11517   11518   11519
   11520   11537   11538   11539   11540   11557   11558   11559   11517   11518
   11519   11520   11541   11542   11543   11544   11560   11561   11562       0
   11510   11521   11522   11523   11524   11545   11546   11563   11521   11522
   11523   11524   11545   11547   11563   11512   11525   11526   11527   11528
   11548   11549   11564   11525   11526   11527   11528   11548   11550   11564
   11514   11529   11530   11531   11532   11551   11552   11565   11529   11530
   11531   11532   11552   11553   11565   11516   11533   11534   11535   11536
   11554   11555   11566   11533   11534   11535   11536   11554   11556   11566
   11518   11537   11538   11539   11540   11557   11558   11567   11537   11538
   11539   11540   11557   11559   11567   11520   11541   11542   11543   11544
   11560   11561   11568   11541   11542   11543   11544   11560   11562   11568
   11522   11523   11545   11546   11547   11563   11569   11545   11546   11524
   11545   11546   11547   11563   11569   11545   11547   11526   11548   11549
   11528   11548   11549   11550   11564   11570   11528   11548   11550   11548
   11549   11550   11564   11570   11530   11531   11551   11552   11553   11565
   11571   11551   11552   11532   11551   11552   11553   11565   11571   11552
   11553   11534   11535   11554   11555   11556   11566   11572   11554   11555
   11536   11554   11555   11556   11566   11572   11554   11556   11538   11539
   11557   11558   11559   11567   11573   11557   11558   11540   11557   11558
   11559   11567   11573   11557   11559   11542   11543   11560   11561   11562
   11568   11574   11560   11561   11544   11560   11561   11562   11568   11574
   11560   11562   11546   11547   11563   11569   11575   11576   11577   11563
   11563   11549   11550   11564   11570   11578   11579   11580   11564   11564
   11552   11565   11553   11565   11571   11581   11582   11583   11565   11555
   11556   11566   11572   11584   11585   11586   11566   11566   11558   11559
   11567   11573   11587   11588   11589   11567   11567   11561   11562   11568
   11574   11590   11591   11592   11568   11568   11569   11575   11576   11577
   11570   11578   11579   11580   11571   11581   11582   11583   11572   11584
   11585   11586   11573   11587   11588   11589   11574   11590   11591   11592
   11575   11576   11577   11578   11579   11580   11581   11582   11583   11584
   11585   11586   11587   11588   11589   11590   11591   11592   11576   11577
   11577       0   11579   11580   11580       0   11582   11583   11583       0
   11585   11586   11586       0   11588   11589   11589       0   11591   11592
   11592       0   11594   11595   11596   11597   11598   11599   11600   11601
   11602   11603   11604   11595   11596   11597   11598   11599   11600   11601
   11602   11603   11604   11605   11606   11607   11596   11597   11598   11599
   11600   11597   11601   11602   11603   11604   11605   11606   11608   11601
   11602   11603   11604   11605   11607   11608   11599   11600   11600       0
   11602   11603   11605   11606   11607   11608   11609   11610   11605   11606
   11604   11605   11606   11607   11608   11609   11610   11605   11607   11606
   11607   11608   11609   11610   11611   11612   11613   11614   11608   11608
   11609   11610   11611   11612   11613   11614   11615   11616   11617   11618
   11619   11620   11621   11622   11610   11611   11612   11613   11614   11615
   11616   11617   11618   11623   11624   11625   11611   11612   11613   11614
   11619   11620   11621   11622   11626   11627   11628   11612   11615   11616
   11617   11618   11623   11624   11629   11630   11631   11632   11615   11616
   11617   11618   11623   11625   11629   11614   11619   11620   11621   11622
   11626   11627   11633   11619   11620   11621   11622   11626   11628   11633
   11616   11617   11623   11624   11625   11629   11630   11631   11632   11634
   11635   11636   11637   11638   11639   11623   11624   11618   11623   11624
   11625   11629   11630   11634   11623   11625   11620   11621   11626   11627
   11628   11633   11640   11626   11627   11622   11626   11627   11628   11633
   11640   11626   11628   11624   11625   11629   11630   11631   11632   11634
   11635   11641   11642   11629   11630   11631   11632   11634   11635   11636
   11637   11638   11639   11643   11644   11645   11646   11647   11648   11649
   11650   11629   11627   11628   11633   11640   11651   11652   11653   11633
   11633   11630   11631   11632   11634   11635   11641   11642   11643   11644
   11654   11631   11632   11634   11635   11636   11637   11638   11639   11641
   11642   11643   11644   11655   11632   11635   11636   11637   11638   11639
   11645   11646   11647   11650   11656   11657   11658   11635   11636   11637
   11638   11639   11647   11648   11649   11650   11659   11660   11661   11640
   11651   11652   11653   11635   11641   11642   11643   11654   11655   11641
   11643   11644   11654   11655   11662   11663   11637   11639   11645   11646
   11647   11656   11657   11664   11665   11666   11638   11639   11645   11646
   11647   11650   11657   11658   11660   11661   11666   11639   11648   11649
   11650   11659   11660   11667   11668   11669   11647   11648   11649   11650
   11657   11658   11660   11661   11669   11651   11652   11653   11642   11643
   11644   11654   11655   11662   11663   11643   11654   11644   11654   11655
   11662   11663   11670   11671   11672   11673   11655   11646   11647   11656
   11657   11658   11664   11665   11666   11674   11675   11676   11677   11656
   11657   11650   11656   11657   11658   11666   11649   11659   11660   11650
   11659   11660   11661   11667   11668   11669   11678   11679   11680   11681
   11659   11660   11661   11669   11652   11653   11653       0   11655   11662
   11663   11670   11671   11672   11673   11682   11683   11684   11685   11686
   11687   11688   11689   11657   11664   11665   11666   11674   11675   11676
   11677   11690   11691   11692   11693   11694   11695   11696   11697   11658
   11664   11665   11666   11666   11660   11667   11668   11669   11678   11679
   11680   11681   11698   11699   11700   11701   11702   11703   11704   11705
   11661   11667   11668   11669   11669   11663   11670   11671   11672   11673
   11682   11683   11684   11685   11706   11707   11708   11670   11671   11672
   11673   11686   11687   11688   11689   11709   11710   11711   11665   11674
   11675   11676   11677   11690   11691   11692   11693   11712   11713   11714
   11674   11675   11676   11677   11694   11695   11696   11697   11715   11716
   11717       0   11668   11678   11679   11680   11681   11698   11699   11700
   11701   11718   11719   11720   11678   11679   11680   11681   11702   11703
   11704   11705   11721   11722   11723       0   11671   11682   11683   11684
   11685   11706   11707   11724   11682   11683   11684   11685   11706   11708
   11724   11673   11686   11687   11688   11689   11709   11710   11725   11686
   11687   11688   11689   11709   11711   11725   11675   11690   11691   11692
   11693   11712   11713   11726   11690   11691   11692   11693   11713   11714
   11726   11677   11694   11695   11696   11697   11715   11716   11727   11694
   11695   11696   11697   11715   11717   11727   11679   11698   11699   11700
   11701   11718   11719   11728   11698   11699   11700   11701   11718   11720
   11728   11681   11702   11703   11704   11705   11721   11722   11729   11702
   11703   11704   11705   11721   11723   11729   11683   11684   11706   11707
   11708   11724   11730   11706   11707   11685   11706   11707   11708   11724
   11730   11706   11708   11687   11709   11710   11689   11709   11710   11711
   11725   11731   11689   11709   11711   11709   11710   11711   11725   11731
   11691   11692   11712   11713   11714   11726   11732   11712   11713   11693
   11712   11713   11714   11726   11732   11713   11714   11695   11696   11715
   11716   11717   11727   11733   11715   11716   11697   11715   11716   11717
   11727   11733   11715   11717   11699   11700   11718   11719   11720   11728
   11734   11718   11719   11701   11718   11719   11720   11728   11734   11718
   11720   11703   11704   11721   11722   11723   11729   11735   11721   11722
   11705   11721   11722   11723   11729   11735   11721   11723   11707   11708
   11724   11730   11736   11737   11738   11724   11724   11710   11711   11725
   11731   11739   11740   11741   11725   11725   11713   11726   11714   11726
   11732   11742   11743   11744   11726   11716   11717   11727   11733   11745
   11746   11747   11727   11727   11719   11720   11728   11734   11748   11749
   11750   11728   11728   11722   11723   11729   11735   11751   11752   11753
   11729   11729   11730   11736   11737   11738   11731   11739   11740   11741
   11732   11742   11743   11744   11733   11745   11746   11747   11734   11748
   11749   11750   11735   11751   11752   11753   11736   11737   11738   11739
   11740   11741   11742   11743   11744   11745   11746   11747   11748   11749
   11750   11751   11752   11753   11737   11738   11738       0   11740   11741
   11741       0   11743   11744   11744       0   11746   11747   11747       0
   11749   11750   11750       0   11752   11753   11753       0   11755   11756
   11757   11758   11759   11760   11761   11762   11763   11764   11765   11756
   11757   11758   11759   11760   11761   11762   11763   11764   11765   11766
   11767   11768   11757   11758   11759   11760   11761   11758   11762   11763
   11764   11765   11766   11767   11769   11762   11763   11764   11765   11766
   11768   11769   11760   11761   11761       0   11763   11764   11766   11767
   11768   11769   11770   11771   11766   11767   11765   11766   11767   11768
   11769   11770   11771   11766   11768   11767   11768   11769   11770   11771
   11772   11773   11774   11775   11769   11769   11770   11771   11772   11773
   11774   11775   11776   11777   11778   11779   11780   11781   11782   11783
   11771   11772   11773   11774   11775   11776   11777   11778   11779   11784
   11785   11786   11772   11773   11774   11775   11780   11781   11782   11783
   11787   11788   11789   11773   11776   11777   11778   11779   11784   11785
   11790   11791   11792   11793   11776   11777   11778   11779   11784   11786
   11790   11775   11780   11781   11782   11783   11787   11788   11794   11780
   11781   11782   11783   11787   11789   11794   11777   11778   11784   11785
   11786   11790   11791   11792   11793   11795   11796   11797   11798   11799
   11800   11784   11785   11779   11784   11785   11786   11790   11791   11795
   11784   11786   11781   11782   11787   11788   11789   11794   11801   11787
   11788   11783   11787   11788   11789   11794   11801   11787   11789   11785
   11786   11790   11791   11792   11793   11795   11796   11802   11803   11790
   11791   11792   11793   11795   11796   11797   11798   11799   11800   11804
   11805   11806   11807   11808   11809   11810   11811   11790   11788   11789
   11794   11801   11812   11813   11814   11794   11794   11791   11792   11793
   11795   11796   11802   11803   11804   11805   11815   11792   11793   11795
   11796   11797   11798   11799   11800   11802   11803   11804   11805   11816
   11793   11796   11797   11798   11799   11800   11806   11807   11808   11811
   11817   11818   11819   11796   11797   11798   11799   11800   11808   11809
   11810   11811   11820   11821   11822   11801   11812   11813   11814   11796
   11802   11803   11804   11815   11816   11802   11804   11805   11815   11816
   11823   11824   11798   11800   11806   11807   11808   11817   11818   11825
   11826   11827   11799   11800   11806   11807   11808   11811   11818   11819
   11821   11822   11827   11800   11809   11810   11811   11820   11821   11828
   11829   11830   11808   11809   11810   11811   11818   11819   11821   11822
   11830   11812   11813   11814   11803   11804   11805   11815   11816   11823
   11824   11804   11815   11805   11815   11816   11823   11824   11831   11832
   11833   11834   11816   11807   11808   11817   11818   11819   11825   11826
   11827   11835   11836   11837   11838   11817   11818   11811   11817   11818
   11819   11827   11810   11820   11821   11811   11820   11821   11822   11828
   11829   11830   11839   11840   11841   11842   11820   11821   11822   11830
   11813   11814   11814       0   11816   11823   11824   11831   11832   11833
   11834   11843   11844   11845   11846   11847   11848   11849   11850   11818
   11825   11826   11827   11835   11836   11837   11838   11851   11852   11853
   11854   11855   11856   11857   11858   11819   11825   11826   11827   11827
   11821   11828   11829   11830   11839   11840   11841   11842   11859   11860
   11861   11862   11863   11864   11865   11866   11822   11828   11829   11830
   11830   11824   11831   11832   11833   11834   11843   11844   11845   11846
   11867   11868   11869   11831   11832   11833   11834   11847   11848   11849
   11850   11870   11871   11872   11826   11835   11836   11837   11838   11851
   11852   11853   11854   11873   11874   11875   11835   11836   11837   11838
   11855   11856   11857   11858   11876   11877   11878       0   11829   11839
   11840   11841   11842   11859   11860   11861   11862   11879   11880   11881
   11839   11840   11841   11842   11863   11864   11865   11866   11882   11883
   11884       0   11832   11843   11844   11845   11846   11867   11868   11885
   11843   11844   11845   11846   11867   11869   11885   11834   11847   11848
   11849   11850   11870   11871   11886   11847   11848   11849   11850   11870
   11872   11886   11836   11851   11852   11853   11854   11873   11874   11887
   11851   11852   11853   11854   11874   11875   11887   11838   11855   11856
   11857   11858   11876   11877   11888   11855   11856   11857   11858   11876
   11878   11888   11840   11859   11860   11861   11862   11879   11880   11889
   11859   11860   11861   11862   11879   11881   11889   11842   11863   11864
   11865   11866   11882   11883   11890   11863   11864   11865   11866   11882
   11884   11890   11844   11845   11867   11868   11869   11885   11891   11867
   11868   11846   11867   11868   11869   11885   11891   11867   11869   11848
   11870   11871   11850   11870   11871   11872   11886   11892   11850   11870
   11872   11870   11871   11872   11886   11892   11852   11853   11873   11874
   11875   11887   11893   11873   11874   11854   11873   11874   11875   11887
   11893   11874   11875   11856   11857   11876   11877   11878   11888   11894
   11876   11877   11858   11876   11877   11878   11888   11894   11876   11878
   11860   11861   11879   11880   11881   11889   11895   11879   11880   11862
   11879   11880   11881   11889   11895   11879   11881   11864   11865   11882
   11883   11884   11890   11896   11882   11883   11866   11882   11883   11884
   11890   11896   11882   11884   11868   11869   11885   11891   11897   11898
   11899   11885   11885   11871   11872   11886   11892   11900   11901   11902
   11886   11886   11874   11887   11875   11887   11893   11903   11904   11905
   11887   11877   11878   11888   11894   11906   11907   11908   11888   11888
   11880   11881   11889   11895   11909   11910   11911   11889   11889   11883
   11884   11890   11896   11912   11913   11914   11890   11890   11891   11897
   11898   11899   11892   11900   11901   11902   11893   11903   11904   11905
   11894   11906   11907   11908   11895   11909   11910   11911   11896   11912
   11913   11914   11897   11898   11899   11900   11901   11902   11903   11904
   11905   11906   11907   11908   11909   11910   11911   11912   11913   11914
   11898   11899   11899       0   11901   11902   11902       0   11904   11905
   11905       0   11907   11908   11908       0   11910   11911   11911       0
   11913   11914   11914       0   11916   11917   11918   11919   11920   11921
   11922   11923   11924   11925   11926   11917   11918   11919   11920   11921
   11922   11923   11924   11925   11926   11927   11928   11929   11918   11919
   11920   11921   11922   11919   11923   11924   11925   11926   11927   11928
   11930   11923   11924   11925   11926   11927   11929   11930   11921   11922
   11922       0   11924   11925   11927   11928   11929   11930   11931   11932
   11927   11928   11926   11927   11928   11929   11930   11931   11932   11927
   11929   11928   11929   11930   11931   11932   11933   11934   11935   11936
   11930   11930   11931   11932   11933   11934   11935   11936   11937   11938
   11939   11940   11941   11942   11943   11944   11932   11933   11934   11935
   11936   11937   11938   11939   11940   11945   11946   11947   11933   11934
   11935   11936   11941   11942   11943   11944   11948   11949   11950   11934
   11937   11938   11939   11940   11945   11946   11951   11952   11953   11954
   11937   11938   11939   11940   11945   11947   11951   11936   11941   11942
   11943   11944   11948   11949   11955   11941   11942   11943   11944   11948
   11950   11955   11938   11939   11945   11946   11947   11951   11952   11953
   11954   11956   11957   11958   11959   11960   11961   11945   11946   11940
   11945   11946   11947   11951   11952   11956   11945   11947   11942   11943
   11948   11949   11950   11955   11962   11948   11949   11944   11948   11949
   11950   11955   11962   11948   11950   11946   11947   11951   11952   11953
   11954   11956   11957   11963   11964   11951   11952   11953   11954   11956
   11957   11958   11959   11960   11961   11965   11966   11967   11968   11969
   11970   11971   11972   11951   11949   11950   11955   11962   11973   11974
   11975   11955   11955   11952   11953   11954   11956   11957   11963   11964
   11965   11966   11976   11953   11954   11956   11957   11958   11959   11960
   11961   11963   11964   11965   11966   11977   11954   11957   11958   11959
   11960   11961   11967   11968   11969   11972   11978   11979   11980   11957
   11958   11959   11960   11961   11969   11970   11971   11972   11981   11982
   11983   11962   11973   11974   11975   11957   11963   11964   11965   11976
   11977   11963   11965   11966   11976   11977   11984   11985   11959   11961
   11967   11968   11969   11978   11979   11986   11987   11988   11960   11961
   11967   11968   11969   11972   11979   11980   11982   11983   11988   11961
   11970   11971   11972   11981   11982   11989   11990   11991   11969   11970
   11971   11972   11979   11980   11982   11983   11991   11973   11974   11975
   11964   11965   11966   11976   11977   11984   11985   11965   11976   11966
   11976   11977   11984   11985   11992   11993   11994   11995   11977   11968
   11969   11978   11979   11980   11986   11987   11988   11996   11997   11998
   11999   11978   11979   11972   11978   11979   11980   11988   11971   11981
   11982   11972   11981   11982   11983   11989   11990   11991   12000   12001
   12002   12003   11981   11982   11983   11991   11974   11975   11975       0
   11977   11984   11985   11992   11993   11994   11995   12004   12005   12006
   12007   12008   12009   12010   12011   11979   11986   11987   11988   11996
   11997   11998   11999   12012   12013   12014   12015   12016   12017   12018
   12019   11980   11986   11987   11988   11988   11982   11989   11990   11991
   12000   12001   12002   12003   12020   12021   12022   12023   12024   12025
   12026   12027   11983   11989   11990   11991   11991   11985   11992   11993
   11994   11995   12004   12005   12006   12007   12028   12029   12030   11992
   11993   11994   11995   12008   12009   12010   12011   12031   12032   12033
   11987   11996   11997   11998   11999   12012   12013   12014   12015   12034
   12035   12036   11996   11997   11998   11999   12016   12017   12018   12019
   12037   12038   12039       0   11990   12000   12001   12002   12003   12020
   12021   12022   12023   12040   12041   12042   12000   12001   12002   12003
   12024   12025   12026   12027   12043   12044   12045       0   11993   12004
   12005   12006   12007   12028   12029   12046   12004   12005   12006   12007
   12028   12030   12046   11995   12008   12009   12010   12011   12031   12032
   12047   12008   12009   12010   12011   12031   12033   12047   11997   12012
   12013   12014   12015   12034   12035   12048   12012   12013   12014   12015
   12035   12036   12048   11999   12016   12017   12018   12019   12037   12038
   12049   12016   12017   12018   12019   12037   12039   12049   12001   12020
   12021   12022   12023   12040   12041   12050   12020   12021   12022   12023
   12040   12042   12050   12003   12024   12025   12026   12027   12043   12044
   12051   12024   12025   12026   12027   12043   12045   12051   12005   12006
   12028   12029   12030   12046   12052   12028   12029   12007   12028   12029
   12030   12046   12052   12028   12030   12009   12031   12032   12011   12031
   12032   12033   12047   12053   12011   12031   12033   12031   12032   12033
   12047   12053   12013   12014   12034   12035   12036   12048   12054   12034
   12035   12015   12034   12035   12036   12048   12054   12035   12036   12017
   12018   12037   12038   12039   12049   12055   12037   12038   12019   12037
   12038   12039   12049   12055   12037   12039   12021   12022   12040   12041
   12042   12050   12056   12040   12041   12023   12040   12041   12042   12050
   12056   12040   12042   12025   12026   12043   12044   12045   12051   12057
   12043   12044   12027   12043   12044   12045   12051   12057   12043   12045
   12029   12030   12046   12052   12058   12059   12060   12046   12046   12032
   12033   12047   12053   12061   12062   12063   12047   12047   12035   12048
   12036   12048   12054   12064   12065   12066   12048   12038   12039   12049
   12055   12067   12068   12069   12049   12049   12041   12042   12050   12056
   12070   12071   12072   12050   12050   12044   12045   12051   12057   12073
   12074   12075   12051   12051   12052   12058   12059   12060   12053   12061
   12062   12063   12054   12064   12065   12066   12055   12067   12068   12069
   12056   12070   12071   12072   12057   12073   12074   12075   12058   12059
   12060   12061   12062   12063   12064   12065   12066   12067   12068   12069
   12070   12071   12072   12073   12074   12075   12059   12060   12060       0
   12062   12063   12063       0   12065   12066   12066       0   12068   12069
   12069       0   12071   12072   12072       0   12074   12075   12075       0
   12077   12078   12079   12080   12081   12082   12083   12084   12085   12086
   12087   12078   12079   12080   12081   12082   12083   12084   12085   12086
   12087   12088   12089   12090   12079   12080   12081   12082   12083   12080
   12084   12085   12086   12087   12088   12089   12091   12084   12085   12086
   12087   12088   12090   12091   12082   12083   12083       0   12085   12086
   12088   12089   12090   12091   12092   12093   12088   12089   12087   12088
   12089   12090   12091   12092   12093   12088   12090   12089   12090   12091
   12092   12093   12094   12095   12096   12097   12091   12091   12092   12093
   12094   12095   12096   12097   12098   12099   12100   12101   12102   12103
   12104   12105   12093   12094   12095   12096   12097   12098   12099   12100
   12101   12106   12107   12108   12094   12095   12096   12097   12102   12103
   12104   12105   12109   12110   12111   12095   12098   12099   12100   12101
   12106   12107   12112   12113   12114   12115   12098   12099   12100   12101
   12106   12108   12112   12097   12102   12103   12104   12105   12109   12110
   12116   12102   12103   12104   12105   12109   12111   12116   12099   12100
   12106   12107   12108   12112   12113   12114   12115   12117   12118   12119
   12120   12121   12122   12106   12107   12101   12106   12107   12108   12112
   12113   12117   12106   12108   12103   12104   12109   12110   12111   12116
   12123   12109   12110   12105   12109   12110   12111   12116   12123   12109
   12111   12107   12108   12112   12113   12114   12115   12117   12118   12124
   12125   12112   12113   12114   12115   12117   12118   12119   12120   12121
   12122   12126   12127   12128   12129   12130   12131   12132   12133   12112
   12110   12111   12116   12123   12134   12135   12136   12116   12116   12113
   12114   12115   12117   12118   12124   12125   12126   12127   12137   12114
   12115   12117   12118   12119   12120   12121   12122   12124   12125   12126
   12127   12138   12115   12118   12119   12120   12121   12122   12128   12129
   12130   12133   12139   12140   12141   12118   12119   12120   12121   12122
   12130   12131   12132   12133   12142   12143   12144   12123   12134   12135
   12136   12118   12124   12125   12126   12137   12138   12124   12126   12127
   12137   12138   12145   12146   12120   12122   12128   12129   12130   12139
   12140   12147   12148   12149   12121   12122   12128   12129   12130   12133
   12140   12141   12143   12144   12149   12122   12131   12132   12133   12142
   12143   12150   12151   12152   12130   12131   12132   12133   12140   12141
   12143   12144   12152   12134   12135   12136   12125   12126   12127   12137
   12138   12145   12146   12126   12137   12127   12137   12138   12145   12146
   12153   12154   12155   12156   12138   12129   12130   12139   12140   12141
   12147   12148   12149   12157   12158   12159   12160   12139   12140   12133
   12139   12140   12141   12149   12132   12142   12143   12133   12142   12143
   12144   12150   12151   12152   12161   12162   12163   12164   12142   12143
   12144   12152   12135   12136   12136       0   12138   12145   12146   12153
   12154   12155   12156   12165   12166   12167   12168   12169   12170   12171
   12172   12140   12147   12148   12149   12157   12158   12159   12160   12173
   12174   12175   12176   12177   12178   12179   12180   12141   12147   12148
   12149   12149   12143   12150   12151   12152   12161   12162   12163   12164
   12181   12182   12183   12184   12185   12186   12187   12188   12144   12150
   12151   12152   12152   12146   12153   12154   12155   12156   12165   12166
   12167   12168   12189   12190   12191   12153   12154   12155   12156   12169
   12170   12171   12172   12192   12193   12194   12148   12157   12158   12159
   12160   12173   12174   12175   12176   12195   12196   12197   12157   12158
   12159   12160   12177   12178   12179   12180   12198   12199   12200       0
   12151   12161   12162   12163   12164   12181   12182   12183   12184   12201
   12202   12203   12161   12162   12163   12164   12185   12186   12187   12188
   12204   12205   12206       0   12154   12165   12166   12167   12168   12189
   12190   12207   12165   12166   12167   12168   12189   12191   12207   12156
   12169   12170   12171   12172   12192   12193   12208   12169   12170   12171
   12172   12192   12194   12208   12158   12173   12174   12175   12176   12195
   12196   12209   12173   12174   12175   12176   12196   12197   12209   12160
   12177   12178   12179   12180   12198   12199   12210   12177   12178   12179
   12180   12198   12200   12210   12162   12181   12182   12183   12184   12201
   12202   12211   12181   12182   12183   12184   12201   12203   12211   12164
   12185   12186   12187   12188   12204   12205   12212   12185   12186   12187
   12188   12204   12206   12212   12166   12167   12189   12190   12191   12207
   12213   12189   12190   12168   12189   12190   12191   12207   12213   12189
   12191   12170   12192   12193   12172   12192   12193   12194   12208   12214
   12172   12192   12194   12192   12193   12194   12208   12214   12174   12175
   12195   12196   12197   12209   12215   12195   12196   12176   12195   12196
   12197   12209   12215   12196   12197   12178   12179   12198   12199   12200
   12210   12216   12198   12199   12180   12198   12199   12200   12210   12216
   12198   12200   12182   12183   12201   12202   12203   12211   12217   12201
   12202   12184   12201   12202   12203   12211   12217   12201   12203   12186
   12187   12204   12205   12206   12212   12218   12204   12205   12188   12204
   12205   12206   12212   12218   12204   12206   12190   12191   12207   12213
   12219   12220   12221   12207   12207   12193   12194   12208   12214   12222
   12223   12224   12208   12208   12196   12209   12197   12209   12215   12225
   12226   12227   12209   12199   12200   12210   12216   12228   12229   12230
   12210   12210   12202   12203   12211   12217   12231   12232   12233   12211
   12211   12205   12206   12212   12218   12234   12235   12236   12212   12212
   12213   12219   12220   12221   12214   12222   12223   12224   12215   12225
   12226   12227   12216   12228   12229   12230   12217   12231   12232   12233
   12218   12234   12235   12236   12219   12220   12221   12222   12223   12224
   12225   12226   12227   12228   12229   12230   12231   12232   12233   12234
   12235   12236   12220   12221   12221       0   12223   12224   12224       0
   12226   12227   12227       0   12229   12230   12230       0   12232   12233
   12233       0   12235   12236   12236       0   12238   12239   12240   12241
   12242   12243   12244   12245   12246   12247   12248   12239   12240   12241
   12242   12243   12244   12245   12246   12247   12248   12249   12250   12251
   12240   12241   12242   12243   12244   12241   12245   12246   12247   12248
   12249   12250   12252   12245   12246   12247   12248   12249   12251   12252
   12243   12244   12244       0   12246   12247   12249   12250   12251   12252
   12253   12254   12249   12250   12248   12249   12250   12251   12252   12253
   12254   12249   12251   12250   12251   12252   12253   12254   12255   12256
   12257   12258   12252   12252   12253   12254   12255   12256   12257   12258
   12259   12260   12261   12262   12263   12264   12265   12266   12254   12255
   12256   12257   12258   12259   12260   12261   12262   12267   12268   12269
   12255   12256   12257   12258   12263   12264   12265   12266   12270   12271
   12272   12256   12259   12260   12261   12262   12267   12268   12273   12274
   12275   12276   12259   12260   12261   12262   12267   12269   12273   12258
   12263   12264   12265   12266   12270   12271   12277   12263   12264   12265
   12266   12270   12272   12277   12260   12261   12267   12268   12269   12273
   12274   12275   12276   12278   12279   12280   12281   12282   12283   12267
   12268   12262   12267   12268   12269   12273   12274   12278   12267   12269
   12264   12265   12270   12271   12272   12277   12284   12270   12271   12266
   12270   12271   12272   12277   12284   12270   12272   12268   12269   12273
   12274   12275   12276   12278   12279   12285   12286   12273   12274   12275
   12276   12278   12279   12280   12281   12282   12283   12287   12288   12289
   12290   12291   12292   12293   12294   12273   12271   12272   12277   12284
   12295   12296   12297   12277   12277   12274   12275   12276   12278   12279
   12285   12286   12287   12288   12298   12275   12276   12278   12279   12280
   12281   12282   12283   12285   12286   12287   12288   12299   12276   12279
   12280   12281   12282   12283   12289   12290   12291   12294   12300   12301
   12302   12279   12280   12281   12282   12283   12291   12292   12293   12294
   12303   12304   12305   12284   12295   12296   12297   12279   12285   12286
   12287   12298   12299   12285   12287   12288   12298   12299   12306   12307
   12281   12283   12289   12290   12291   12300   12301   12308   12309   12310
   12282   12283   12289   12290   12291   12294   12301   12302   12304   12305
   12310   12283   12292   12293   12294   12303   12304   12311   12312   12313
   12291   12292   12293   12294   12301   12302   12304   12305   12313   12295
   12296   12297   12286   12287   12288   12298   12299   12306   12307   12287
   12298   12288   12298   12299   12306   12307   12314   12315   12316   12317
   12299   12290   12291   12300   12301   12302   12308   12309   12310   12318
   12319   12320   12321   12300   12301   12294   12300   12301   12302   12310
   12293   12303   12304   12294   12303   12304   12305   12311   12312   12313
   12322   12323   12324   12325   12303   12304   12305   12313   12296   12297
   12297       0   12299   12306   12307   12314   12315   12316   12317   12326
   12327   12328   12329   12330   12331   12332   12333   12301   12308   12309
   12310   12318   12319   12320   12321   12334   12335   12336   12337   12338
   12339   12340   12341   12302   12308   12309   12310   12310   12304   12311
   12312   12313   12322   12323   12324   12325   12342   12343   12344   12345
   12346   12347   12348   12349   12305   12311   12312   12313   12313   12307
   12314   12315   12316   12317   12326   12327   12328   12329   12350   12351
   12352   12314   12315   12316   12317   12330   12331   12332   12333   12353
   12354   12355   12309   12318   12319   12320   12321   12334   12335   12336
   12337   12356   12357   12358   12318   12319   12320   12321   12338   12339
   12340   12341   12359   12360   12361       0   12312   12322   12323   12324
   12325   12342   12343   12344   12345   12362   12363   12364   12322   12323
   12324   12325   12346   12347   12348   12349   12365   12366   12367       0
   12315   12326   12327   12328   12329   12350   12351   12368   12326   12327
   12328   12329   12350   12352   12368   12317   12330   12331   12332   12333
   12353   12354   12369   12330   12331   12332   12333   12353   12355   12369
   12319   12334   12335   12336   12337   12356   12357   12370   12334   12335
   12336   12337   12357   12358   12370   12321   12338   12339   12340   12341
   12359   12360   12371   12338   12339   12340   12341   12359   12361   12371
   12323   12342   12343   12344   12345   12362   12363   12372   12342   12343
   12344   12345   12362   12364   12372   12325   12346   12347   12348   12349
   12365   12366   12373   12346   12347   12348   12349   12365   12367   12373
   12327   12328   12350   12351   12352   12368   12374   12350   12351   12329
   12350   12351   12352   12368   12374   12350   12352   12331   12353   12354
   12333   12353   12354   12355   12369   12375   12333   12353   12355   12353
   12354   12355   12369   12375   12335   12336   12356   12357   12358   12370
   12376   12356   12357   12337   12356   12357   12358   12370   12376   12357
   12358   12339   12340   12359   12360   12361   12371   12377   12359   12360
   12341   12359   12360   12361   12371   12377   12359   12361   12343   12344
   12362   12363   12364   12372   12378   12362   12363   12345   12362   12363
   12364   12372   12378   12362   12364   12347   12348   12365   12366   12367
   12373   12379   12365   12366   12349   12365   12366   12367   12373   12379
   12365   12367   12351   12352   12368   12374   12380   12381   12382   12368
   12368   12354   12355   12369   12375   12383   12384   12385   12369   12369
   12357   12370   12358   12370   12376   12386   12387   12388   12370   12360
   12361   12371   12377   12389   12390   12391   12371   12371   12363   12364
   12372   12378   12392   12393   12394   12372   12372   12366   12367   12373
   12379   12395   12396   12397   12373   12373   12374   12380   12381   12382
   12375   12383   12384   12385   12376   12386   12387   12388   12377   12389
   12390   12391   12378   12392   12393   12394   12379   12395   12396   12397
   12380   12381   12382   12383   12384   12385   12386   12387   12388   12389
   12390   12391   12392   12393   12394   12395   12396   12397   12381   12382
   12382       0   12384   12385   12385       0   12387   12388   12388       0
   12390   12391   12391       0   12393   12394   12394       0   12396   12397
   12397       0   12399   12400   12401   12402   12403   12404   12405   12406
   12407   12408   12409   12400   12401   12402   12403   12404   12405   12406
   12407   12408   12409   12410   12411   12412   12401   12402   12403   12404
   12405   12402   12406   12407   12408   12409   12410   12411   12413   12406
   12407   12408   12409   12410   12412   12413   12404   12405   12405       0
   12407   12408   12410   12411   12412   12413   12414   12415   12410   12411
   12409   12410   12411   12412   12413   12414   12415   12410   12412   12411
   12412   12413   12414   12415   12416   12417   12418   12419   12413   12413
   12414   12415   12416   12417   12418   12419   12420   12421   12422   12423
   12424   12425   12426   12427   12415   12416   12417   12418   12419   12420
   12421   12422   12423   12428   12429   12430   12416   12417   12418   12419
   12424   12425   12426   12427   12431   12432   12433   12417   12420   12421
   12422   12423   12428   12429   12434   12435   12436   12437   12420   12421
   12422   12423   12428   12430   12434   12419   12424   12425   12426   12427
   12431   12432   12438   12424   12425   12426   12427   12431   12433   12438
   12421   12422   12428   12429   12430   12434   12435   12436   12437   12439
   12440   12441   12442   12443   12444   12428   12429   12423   12428   12429
   12430   12434   12435   12439   12428   12430   12425   12426   12431   12432
   12433   12438   12445   12431   12432   12427   12431   12432   12433   12438
   12445   12431   12433   12429   12430   12434   12435   12436   12437   12439
   12440   12446   12447   12434   12435   12436   12437   12439   12440   12441
   12442   12443   12444   12448   12449   12450   12451   12452   12453   12454
   12455   12434   12432   12433   12438   12445   12456   12457   12458   12438
   12438   12435   12436   12437   12439   12440   12446   12447   12448   12449
   12459   12436   12437   12439   12440   12441   12442   12443   12444   12446
   12447   12448   12449   12460   12437   12440   12441   12442   12443   12444
   12450   12451   12452   12455   12461   12462   12463   12440   12441   12442
   12443   12444   12452   12453   12454   12455   12464   12465   12466   12445
   12456   12457   12458   12440   12446   12447   12448   12459   12460   12446
   12448   12449   12459   12460   12467   12468   12442   12444   12450   12451
   12452   12461   12462   12469   12470   12471   12443   12444   12450   12451
   12452   12455   12462   12463   12465   12466   12471   12444   12453   12454
   12455   12464   12465   12472   12473   12474   12452   12453   12454   12455
   12462   12463   12465   12466   12474   12456   12457   12458   12447   12448
   12449   12459   12460   12467   12468   12448   12459   12449   12459   12460
   12467   12468   12475   12476   12477   12478   12460   12451   12452   12461
   12462   12463   12469   12470   12471   12479   12480   12481   12482   12461
   12462   12455   12461   12462   12463   12471   12454   12464   12465   12455
   12464   12465   12466   12472   12473   12474   12483   12484   12485   12486
   12464   12465   12466   12474   12457   12458   12458       0   12460   12467
   12468   12475   12476   12477   12478   12487   12488   12489   12490   12491
   12492   12493   12494   12462   12469   12470   12471   12479   12480   12481
   12482   12495   12496   12497   12498   12499   12500   12501   12502   12463
   12469   12470   12471   12471   12465   12472   12473   12474   12483   12484
   12485   12486   12503   12504   12505   12506   12507   12508   12509   12510
   12466   12472   12473   12474   12474   12468   12475   12476   12477   12478
   12487   12488   12489   12490   12511   12512   12513   12475   12476   12477
   12478   12491   12492   12493   12494   12514   12515   12516   12470   12479
   12480   12481   12482   12495   12496   12497   12498   12517   12518   12519
   12479   12480   12481   12482   12499   12500   12501   12502   12520   12521
   12522       0   12473   12483   12484   12485   12486   12503   12504   12505
   12506   12523   12524   12525   12483   12484   12485   12486   12507   12508
   12509   12510   12526   12527   12528       0   12476   12487   12488   12489
   12490   12511   12512   12529   12487   12488   12489   12490   12511   12513
   12529   12478   12491   12492   12493   12494   12514   12515   12530   12491
   12492   12493   12494   12514   12516   12530   12480   12495   12496   12497
   12498   12517   12518   12531   12495   12496   12497   12498   12518   12519
   12531   12482   12499   12500   12501   12502   12520   12521   12532   12499
   12500   12501   12502   12520   12522   12532   12484   12503   12504   12505
   12506   12523   12524   12533   12503   12504   12505   12506   12523   12525
   12533   12486   12507   12508   12509   12510   12526   12527   12534   12507
   12508   12509   12510   12526   12528   12534   12488   12489   12511   12512
   12513   12529   12535   12511   12512   12490   12511   12512   12513   12529
   12535   12511   12513   12492   12514   12515   12494   12514   12515   12516
   12530   12536   12494   12514   12516   12514   12515   12516   12530   12536
   12496   12497   12517   12518   12519   12531   12537   12517   12518   12498
   12517   12518   12519   12531   12537   12518   12519   12500   12501   12520
   12521   12522   12532   12538   12520   12521   12502   12520   12521   12522
   12532   12538   12520   12522   12504   12505   12523   12524   12525   12533
   12539   12523   12524   12506   12523   12524   12525   12533   12539   12523
   12525   12508   12509   12526   12527   12528   12534   12540   12526   12527
   12510   12526   12527   12528   12534   12540   12526   12528   12512   12513
   12529   12535   12541   12542   12543   12529   12529   12515   12516   12530
   12536   12544   12545   12546   12530   12530   12518   12531   12519   12531
   12537   12547   12548   12549   12531   12521   12522   12532   12538   12550
   12551   12552   12532   12532   12524   12525   12533   12539   12553   12554
   12555   12533   12533   12527   12528   12534   12540   12556   12557   12558
   12534   12534   12535   12541   12542   12543   12536   12544   12545   12546
   12537   12547   12548   12549   12538   12550   12551   12552   12539   12553
   12554   12555   12540   12556   12557   12558   12541   12542   12543   12544
   12545   12546   12547   12548   12549   12550   12551   12552   12553   12554
   12555   12556   12557   12558   12542   12543   12543       0   12545   12546
   12546       0   12548   12549   12549       0   12551   12552   12552       0
   12554   12555   12555       0   12557   12558   12558       0   12560   12561
   12562   12563   12564   12565   12566   12567   12568   12569   12570   12561
   12562   12563   12564   12565   12566   12567   12568   12569   12570   12571
   12572   12573   12562   12563   12564   12565   12566   12563   12567   12568
   12569   12570   12571   12572   12574   12567   12568   12569   12570   12571
   12573   12574   12565   12566   12566       0   12568   12569   12571   12572
   12573   12574   12575   12576   12571   12572   12570   12571   12572   12573
   12574   12575   12576   12571   12573   12572   12573   12574   12575   12576
   12577   12578   12579   12580   12574   12574   12575   12576   12577   12578
   12579   12580   12581   12582   12583   12584   12585   12586   12587   12588
   12576   12577   12578   12579   12580   12581   12582   12583   12584   12589
   12590   12591   12577   12578   12579   12580   12585   12586   12587   12588
   12592   12593   12594   12578   12581   12582   12583   12584   12589   12590
   12595   12596   12597   12598   12581   12582   12583   12584   12589   12591
   12595   12580   12585   12586   12587   12588   12592   12593   12599   12585
   12586   12587   12588   12592   12594   12599   12582   12583   12589   12590
   12591   12595   12596   12597   12598   12600   12601   12602   12603   12604
   12605   12589   12590   12584   12589   12590   12591   12595   12596   12600
   12589   12591   12586   12587   12592   12593   12594   12599   12606   12592
   12593   12588   12592   12593   12594   12599   12606   12592   12594   12590
   12591   12595   12596   12597   12598   12600   12601   12607   12608   12595
   12596   12597   12598   12600   12601   12602   12603   12604   12605   12609
   12610   12611   12612   12613   12614   12615   12616   12595   12593   12594
   12599   12606   12617   12618   12619   12599   12599   12596   12597   12598
   12600   12601   12607   12608   12609   12610   12620   12597   12598   12600
   12601   12602   12603   12604   12605   12607   12608   12609   12610   12621
   12598   12601   12602   12603   12604   12605   12611   12612   12613   12616
   12622   12623   12624   12601   12602   12603   12604   12605   12613   12614
   12615   12616   12625   12626   12627   12606   12617   12618   12619   12601
   12607   12608   12609   12620   12621   12607   12609   12610   12620   12621
   12628   12629   12603   12605   12611   12612   12613   12622   12623   12630
   12631   12632   12604   12605   12611   12612   12613   12616   12623   12624
   12626   12627   12632   12605   12614   12615   12616   12625   12626   12633
   12634   12635   12613   12614   12615   12616   12623   12624   12626   12627
   12635   12617   12618   12619   12608   12609   12610   12620   12621   12628
   12629   12609   12620   12610   12620   12621   12628   12629   12636   12637
   12638   12639   12621   12612   12613   12622   12623   12624   12630   12631
   12632   12640   12641   12642   12643   12622   12623   12616   12622   12623
   12624   12632   12615   12625   12626   12616   12625   12626   12627   12633
   12634   12635   12644   12645   12646   12647   12625   12626   12627   12635
   12618   12619   12619       0   12621   12628   12629   12636   12637   12638
   12639   12648   12649   12650   12651   12652   12653   12654   12655   12623
   12630   12631   12632   12640   12641   12642   12643   12656   12657   12658
   12659   12660   12661   12662   12663   12624   12630   12631   12632   12632
   12626   12633   12634   12635   12644   12645   12646   12647   12664   12665
   12666   12667   12668   12669   12670   12671   12627   12633   12634   12635
   12635   12629   12636   12637   12638   12639   12648   12649   12650   12651
   12672   12673   12674   12636   12637   12638   12639   12652   12653   12654
   12655   12675   12676   12677   12631   12640   12641   12642   12643   12656
   12657   12658   12659   12678   12679   12680   12640   12641   12642   12643
   12660   12661   12662   12663   12681   12682   12683       0   12634   12644
   12645   12646   12647   12664   12665   12666   12667   12684   12685   12686
   12644   12645   12646   12647   12668   12669   12670   12671   12687   12688
   12689       0   12637   12648   12649   12650   12651   12672   12673   12690
   12648   12649   12650   12651   12672   12674   12690   12639   12652   12653
   12654   12655   12675   12676   12691   12652   12653   12654   12655   12675
   12677   12691   12641   12656   12657   12658   12659   12678   12679   12692
   12656   12657   12658   12659   12679   12680   12692   12643   12660   12661
   12662   12663   12681   12682   12693   12660   12661   12662   12663   12681
   12683   12693   12645   12664   12665   12666   12667   12684   12685   12694
   12664   12665   12666   12667   12684   12686   12694   12647   12668   12669
   12670   12671   12687   12688   12695   12668   12669   12670   12671   12687
   12689   12695   12649   12650   12672   12673   12674   12690   12696   12672
   12673   12651   12672   12673   12674   12690   12696   12672   12674   12653
   12675   12676   12655   12675   12676   12677   12691   12697   12655   12675
   12677   12675   12676   12677   12691   12697   12657   12658   12678   12679
   12680   12692   12698   12678   12679   12659   12678   12679   12680   12692
   12698   12679   12680   12661   12662   12681   12682   12683   12693   12699
   12681   12682   12663   12681   12682   12683   12693   12699   12681   12683
   12665   12666   12684   12685   12686   12694   12700   12684   12685   12667
   12684   12685   12686   12694   12700   12684   12686   12669   12670   12687
   12688   12689   12695   12701   12687   12688   12671   12687   12688   12689
   12695   12701   12687   12689   12673   12674   12690   12696   12702   12703
   12704   12690   12690   12676   12677   12691   12697   12705   12706   12707
   12691   12691   12679   12692   12680   12692   12698   12708   12709   12710
   12692   12682   12683   12693   12699   12711   12712   12713   12693   12693
   12685   12686   12694   12700   12714   12715   12716   12694   12694   12688
   12689   12695   12701   12717   12718   12719   12695   12695   12696   12702
   12703   12704   12697   12705   12706   12707   12698   12708   12709   12710
   12699   12711   12712   12713   12700   12714   12715   12716   12701   12717
   12718   12719   12702   12703   12704   12705   12706   12707   12708   12709
   12710   12711   12712   12713   12714   12715   12716   12717   12718   12719
   12703   12704   12704       0   12706   12707   12707       0   12709   12710
   12710       0   12712   12713   12713       0   12715   12716   12716       0
   12718   12719   12719       0   12721   12722   12723   12724   12725   12726
   12727   12728   12729   12730   12731   12722   12723   12724   12725   12726
   12727   12728   12729   12730   12731   12732   12733   12734   12723   12724
   12725   12726   12727   12724   12728   12729   12730   12731   12732   12733
   12735   12728   12729   12730   12731   12732   12734   12735   12726   12727
   12727       0   12729   12730   12732   12733   12734   12735   12736   12737
   12732   12733   12731   12732   12733   12734   12735   12736   12737   12732
   12734   12733   12734   12735   12736   12737   12738   12739   12740   12741
   12735   12735   12736   12737   12738   12739   12740   12741   12742   12743
   12744   12745   12746   12747   12748   12749   12737   12738   12739   12740
   12741   12742   12743   12744   12745   12750   12751   12752   12738   12739
   12740   12741   12746   12747   12748   12749   12753   12754   12755   12739
   12742   12743   12744   12745   12750   12751   12756   12757   12758   12759
   12742   12743   12744   12745   12750   12752   12756   12741   12746   12747
   12748   12749   12753   12754   12760   12746   12747   12748   12749   12753
   12755   12760   12743   12744   12750   12751   12752   12756   12757   12758
   12759   12761   12762   12763   12764   12765   12766   12750   12751   12745
   12750   12751   12752   12756   12757   12761   12750   12752   12747   12748
   12753   12754   12755   12760   12767   12753   12754   12749   12753   12754
   12755   12760   12767   12753   12755   12751   12752   12756   12757   12758
   12759   12761   12762   12768   12769   12756   12757   12758   12759   12761
   12762   12763   12764   12765   12766   12770   12771   12772   12773   12774
   12775   12776   12777   12756   12754   12755   12760   12767   12778   12779
   12780   12760   12760   12757   12758   12759   12761   12762   12768   12769
   12770   12771   12781   12758   12759   12761   12762   12763   12764   12765
   12766   12768   12769   12770   12771   12782   12759   12762   12763   12764
   12765   12766   12772   12773   12774   12777   12783   12784   12785   12762
   12763   12764   12765   12766   12774   12775   12776   12777   12786   12787
   12788   12767   12778   12779   12780   12762   12768   12769   12770   12781
   12782   12768   12770   12771   12781   12782   12789   12790   12764   12766
   12772   12773   12774   12783   12784   12791   12792   12793   12765   12766
   12772   12773   12774   12777   12784   12785   12787   12788   12793   12766
   12775   12776   12777   12786   12787   12794   12795   12796   12774   12775
   12776   12777   12784   12785   12787   12788   12796   12778   12779   12780
   12769   12770   12771   12781   12782   12789   12790   12770   12781   12771
   12781   12782   12789   12790   12797   12798   12799   12800   12782   12773
   12774   12783   12784   12785   12791   12792   12793   12801   12802   12803
   12804   12783   12784   12777   12783   12784   12785   12793   12776   12786
   12787   12777   12786   12787   12788   12794   12795   12796   12805   12806
   12807   12808   12786   12787   12788   12796   12779   12780   12780       0
   12782   12789   12790   12797   12798   12799   12800   12809   12810   12811
   12812   12813   12814   12815   12816   12784   12791   12792   12793   12801
   12802   12803   12804   12817   12818   12819   12820   12821   12822   12823
   12824   12785   12791   12792   12793   12793   12787   12794   12795   12796
   12805   12806   12807   12808   12825   12826   12827   12828   12829   12830
   12831   12832   12788   12794   12795   12796   12796   12790   12797   12798
   12799   12800   12809   12810   12811   12812   12833   12834   12835   12797
   12798   12799   12800   12813   12814   12815   12816   12836   12837   12838
   12792   12801   12802   12803   12804   12817   12818   12819   12820   12839
   12840   12841   12801   12802   12803   12804   12821   12822   12823   12824
   12842   12843   12844       0   12795   12805   12806   12807   12808   12825
   12826   12827   12828   12845   12846   12847   12805   12806   12807   12808
   12829   12830   12831   12832   12848   12849   12850       0   12798   12809
   12810   12811   12812   12833   12834   12851   12809   12810   12811   12812
   12833   12835   12851   12800   12813   12814   12815   12816   12836   12837
   12852   12813   12814   12815   12816   12836   12838   12852   12802   12817
   12818   12819   12820   12839   12840   12853   12817   12818   12819   12820
   12840   12841   12853   12804   12821   12822   12823   12824   12842   12843
   12854   12821   12822   12823   12824   12842   12844   12854   12806   12825
   12826   12827   12828   12845   12846   12855   12825   12826   12827   12828
   12845   12847   12855   12808   12829   12830   12831   12832   12848   12849
   12856   12829   12830   12831   12832   12848   12850   12856   12810   12811
   12833   12834   12835   12851   12857   12833   12834   12812   12833   12834
   12835   12851   12857   12833   12835   12814   12836   12837   12816   12836
   12837   12838   12852   12858   12816   12836   12838   12836   12837   12838
   12852   12858   12818   12819   12839   12840   12841   12853   12859   12839
   12840   12820   12839   12840   12841   12853   12859   12840   12841   12822
   12823   12842   12843   12844   12854   12860   12842   12843   12824   12842
   12843   12844   12854   12860   12842   12844   12826   12827   12845   12846
   12847   12855   12861   12845   12846   12828   12845   12846   12847   12855
   12861   12845   12847   12830   12831   12848   12849   12850   12856   12862
   12848   12849   12832   12848   12849   12850   12856   12862   12848   12850
   12834   12835   12851   12857   12863   12864   12865   12851   12851   12837
   12838   12852   12858   12866   12867   12868   12852   12852   12840   12853
   12841   12853   12859   12869   12870   12871   12853   12843   12844   12854
   12860   12872   12873   12874   12854   12854   12846   12847   12855   12861
   12875   12876   12877   12855   12855   12849   12850   12856   12862   12878
   12879   12880   12856   12856   12857   12863   12864   12865   12858   12866
   12867   12868   12859   12869   12870   12871   12860   12872   12873   12874
   12861   12875   12876   12877   12862   12878   12879   12880   12863   12864
   12865   12866   12867   12868   12869   12870   12871   12872   12873   12874
   12875   12876   12877   12878   12879   12880   12864   12865   12865       0
   12867   12868   12868       0   12870   12871   12871       0   12873   12874
   12874       0   12876   12877   12877       0   12879   12880   12880       0
   12882   12883   12884   12885   12886   12887   12888   12889   12890   12891
   12892   12883   12884   12885   12886   12887   12888   12889   12890   12891
   12892   12893   12894   12895   12884   12885   12886   12887   12888   12885
   12889   12890   12891   12892   12893   12894   12896   12889   12890   12891
   12892   12893   12895   12896   12887   12888   12888       0   12890   12891
   12893   12894   12895   12896   12897   12898   12893   12894   12892   12893
   12894   12895   12896   12897   12898   12893   12895   12894   12895   12896
   12897   12898   12899   12900   12901   12902   12896   12896   12897   12898
   12899   12900   12901   12902   12903   12904   12905   12906   12907   12908
   12909   12910   12898   12899   12900   12901   12902   12903   12904   12905
   12906   12911   12912   12913   12899   12900   12901   12902   12907   12908
   12909   12910   12914   12915   12916   12900   12903   12904   12905   12906
   12911   12912   12917   12918   12919   12920   12903   12904   12905   12906
   12911   12913   12917   12902   12907   12908   12909   12910   12914   12915
   12921   12907   12908   12909   12910   12914   12916   12921   12904   12905
   12911   12912   12913   12917   12918   12919   12920   12922   12923   12924
   12925   12926   12927   12911   12912   12906   12911   12912   12913   12917
   12918   12922   12911   12913   12908   12909   12914   12915   12916   12921
   12928   12914   12915   12910   12914   12915   12916   12921   12928   12914
   12916   12912   12913   12917   12918   12919   12920   12922   12923   12929
   12930   12917   12918   12919   12920   12922   12923   12924   12925   12926
   12927   12931   12932   12933   12934   12935   12936   12937   12938   12917
   12915   12916   12921   12928   12939   12940   12941   12921   12921   12918
   12919   12920   12922   12923   12929   12930   12931   12932   12942   12919
   12920   12922   12923   12924   12925   12926   12927   12929   12930   12931
   12932   12943   12920   12923   12924   12925   12926   12927   12933   12934
   12935   12938   12944   12945   12946   12923   12924   12925   12926   12927
   12935   12936   12937   12938   12947   12948   12949   12928   12939   12940
   12941   12923   12929   12930   12931   12942   12943   12929   12931   12932
   12942   12943   12950   12951   12925   12927   12933   12934   12935   12944
   12945   12952   12953   12954   12926   12927   12933   12934   12935   12938
   12945   12946   12948   12949   12954   12927   12936   12937   12938   12947
   12948   12955   12956   12957   12935   12936   12937   12938   12945   12946
   12948   12949   12957   12939   12940   12941   12930   12931   12932   12942
   12943   12950   12951   12931   12942   12932   12942   12943   12950   12951
   12958   12959   12960   12961   12943   12934   12935   12944   12945   12946
   12952   12953   12954   12962   12963   12964   12965   12944   12945   12938
   12944   12945   12946   12954   12937   12947   12948   12938   12947   12948
   12949   12955   12956   12957   12966   12967   12968   12969   12947   12948
   12949   12957   12940   12941   12941       0   12943   12950   12951   12958
   12959   12960   12961   12970   12971   12972   12973   12974   12975   12976
   12977   12945   12952   12953   12954   12962   12963   12964   12965   12978
   12979   12980   12981   12982   12983   12984   12985   12946   12952   12953
   12954   12954   12948   12955   12956   12957   12966   12967   12968   12969
   12986   12987   12988   12989   12990   12991   12992   12993   12949   12955
   12956   12957   12957   12951   12958   12959   12960   12961   12970   12971
   12972   12973   12994   12995   12996   12958   12959   12960   12961   12974
   12975   12976   12977   12997   12998   12999   12953   12962   12963   12964
   12965   12978   12979   12980   12981   13000   13001   13002   12962   12963
   12964   12965   12982   12983   12984   12985   13003   13004   13005       0
   12956   12966   12967   12968   12969   12986   12987   12988   12989   13006
   13007   13008   12966   12967   12968   12969   12990   12991   12992   12993
   13009   13010   13011       0   12959   12970   12971   12972   12973   12994
   12995   13012   12970   12971   12972   12973   12994   12996   13012   12961
   12974   12975   12976   12977   12997   12998   13013   12974   12975   12976
   12977   12997   12999   13013   12963   12978   12979   12980   12981   13000
   13001   13014   12978   12979   12980   12981   13001   13002   13014   12965
   12982   12983   12984   12985   13003   13004   13015   12982   12983   12984
   12985   13003   13005   13015   12967   12986   12987   12988   12989   13006
   13007   13016   12986   12987   12988   12989   13006   13008   13016   12969
   12990   12991   12992   12993   13009   13010   13017   12990   12991   12992
   12993   13009   13011   13017   12971   12972   12994   12995   12996   13012
   13018   12994   12995   12973   12994   12995   12996   13012   13018   12994
   12996   12975   12997   12998   12977   12997   12998   12999   13013   13019
   12977   12997   12999   12997   12998   12999   13013   13019   12979   12980
   13000   13001   13002   13014   13020   13000   13001   12981   13000   13001
   13002   13014   13020   13001   13002   12983   12984   13003   13004   13005
   13015   13021   13003   13004   12985   13003   13004   13005   13015   13021
   13003   13005   12987   12988   13006   13007   13008   13016   13022   13006
   13007   12989   13006   13007   13008   13016   13022   13006   13008   12991
   12992   13009   13010   13011   13017   13023   13009   13010   12993   13009
   13010   13011   13017   13023   13009   13011   12995   12996   13012   13018
   13024   13025   13026   13012   13012   12998   12999   13013   13019   13027
   13028   13029   13013   13013   13001   13014   13002   13014   13020   13030
   13031   13032   13014   13004   13005   13015   13021   13033   13034   13035
   13015   13015   13007   13008   13016   13022   13036   13037   13038   13016
   13016   13010   13011   13017   13023   13039   13040   13041   13017   13017
   13018   13024   13025   13026   13019   13027   13028   13029   13020   13030
   13031   13032   13021   13033   13034   13035   13022   13036   13037   13038
   13023   13039   13040   13041   13024   13025   13026   13027   13028   13029
   13030   13031   13032   13033   13034   13035   13036   13037   13038   13039
   13040   13041   13025   13026   13026       0   13028   13029   13029       0
   13031   13032   13032       0   13034   13035   13035       0   13037   13038
   13038       0   13040   13041   13041       0   13043   13044   13045   13046
   13047   13048   13049   13050   13051   13052   13053   13044   13045   13046
   13047   13048   13049   13050   13051   13052   13053   13054   13055   13056
   13045   13046   13047   13048   13049   13046   13050   13051   13052   13053
   13054   13055   13057   13050   13051   13052   13053   13054   13056   13057
   13048   13049   13049       0   13051   13052   13054   13055   13056   13057
   13058   13059   13054   13055   13053   13054   13055   13056   13057   13058
   13059   13054   13056   13055   13056   13057   13058   13059   13060   13061
   13062   13063   13057   13057   13058   13059   13060   13061   13062   13063
   13064   13065   13066   13067   13068   13069   13070   13071   13059   13060
   13061   13062   13063   13064   13065   13066   13067   13072   13073   13074
   13060   13061   13062   13063   13068   13069   13070   13071   13075   13076
   13077   13061   13064   13065   13066   13067   13072   13073   13078   13079
   13080   13081   13064   13065   13066   13067   13072   13074   13078   13063
   13068   13069   13070   13071   13075   13076   13082   13068   13069   13070
   13071   13075   13077   13082   13065   13066   13072   13073   13074   13078
   13079   13080   13081   13083   13084   13085   13086   13087   13088   13072
   13073   13067   13072   13073   13074   13078   13079   13083   13072   13074
   13069   13070   13075   13076   13077   13082   13089   13075   13076   13071
   13075   13076   13077   13082   13089   13075   13077   13073   13074   13078
   13079   13080   13081   13083   13084   13090   13091   13078   13079   13080
   13081   13083   13084   13085   13086   13087   13088   13092   13093   13094
   13095   13096   13097   13098   13099   13078   13076   13077   13082   13089
   13100   13101   13102   13082   13082   13079   13080   13081   13083   13084
   13090   13091   13092   13093   13103   13080   13081   13083   13084   13085
   13086   13087   13088   13090   13091   13092   13093   13104   13081   13084
   13085   13086   13087   13088   13094   13095   13096   13099   13105   13106
   13107   13084   13085   13086   13087   13088   13096   13097   13098   13099
   13108   13109   13110   13089   13100   13101   13102   13084   13090   13091
   13092   13103   13104   13090   13092   13093   13103   13104   13111   13112
   13086   13088   13094   13095   13096   13105   13106   13113   13114   13115
   13087   13088   13094   13095   13096   13099   13106   13107   13109   13110
   13115   13088   13097   13098   13099   13108   13109   13116   13117   13118
   13096   13097   13098   13099   13106   13107   13109   13110   13118   13100
   13101   13102   13091   13092   13093   13103   13104   13111   13112   13092
   13103   13093   13103   13104   13111   13112   13119   13120   13121   13122
   13104   13095   13096   13105   13106   13107   13113   13114   13115   13123
   13124   13125   13126   13105   13106   13099   13105   13106   13107   13115
   13098   13108   13109   13099   13108   13109   13110   13116   13117   13118
   13127   13128   13129   13130   13108   13109   13110   13118   13101   13102
   13102       0   13104   13111   13112   13119   13120   13121   13122   13131
   13132   13133   13134   13135   13136   13137   13138   13106   13113   13114
   13115   13123   13124   13125   13126   13139   13140   13141   13142   13143
   13144   13145   13146   13107   13113   13114   13115   13115   13109   13116
   13117   13118   13127   13128   13129   13130   13147   13148   13149   13150
   13151   13152   13153   13154   13110   13116   13117   13118   13118   13112
   13119   13120   13121   13122   13131   13132   13133   13134   13155   13156
   13157   13119   13120   13121   13122   13135   13136   13137   13138   13158
   13159   13160   13114   13123   13124   13125   13126   13139   13140   13141
   13142   13161   13162   13163   13123   13124   13125   13126   13143   13144
   13145   13146   13164   13165   13166       0   13117   13127   13128   13129
   13130   13147   13148   13149   13150   13167   13168   13169   13127   13128
   13129   13130   13151   13152   13153   13154   13170   13171   13172       0
   13120   13131   13132   13133   13134   13155   13156   13173   13131   13132
   13133   13134   13155   13157   13173   13122   13135   13136   13137   13138
   13158   13159   13174   13135   13136   13137   13138   13158   13160   13174
   13124   13139   13140   13141   13142   13161   13162   13175   13139   13140
   13141   13142   13162   13163   13175   13126   13143   13144   13145   13146
   13164   13165   13176   13143   13144   13145   13146   13164   13166   13176
   13128   13147   13148   13149   13150   13167   13168   13177   13147   13148
   13149   13150   13167   13169   13177   13130   13151   13152   13153   13154
   13170   13171   13178   13151   13152   13153   13154   13170   13172   13178
   13132   13133   13155   13156   13157   13173   13179   13155   13156   13134
   13155   13156   13157   13173   13179   13155   13157   13136   13158   13159
   13138   13158   13159   13160   13174   13180   13138   13158   13160   13158
   13159   13160   13174   13180   13140   13141   13161   13162   13163   13175
   13181   13161   13162   13142   13161   13162   13163   13175   13181   13162
   13163   13144   13145   13164   13165   13166   13176   13182   13164   13165
   13146   13164   13165   13166   13176   13182   13164   13166   13148   13149
   13167   13168   13169   13177   13183   13167   13168   13150   13167   13168
   13169   13177   13183   13167   13169   13152   13153   13170   13171   13172
   13178   13184   13170   13171   13154   13170   13171   13172   13178   13184
   13170   13172   13156   13157   13173   13179   13185   13186   13187   13173
   13173   13159   13160   13174   13180   13188   13189   13190   13174   13174
   13162   13175   13163   13175   13181   13191   13192   13193   13175   13165
   13166   13176   13182   13194   13195   13196   13176   13176   13168   13169
   13177   13183   13197   13198   13199   13177   13177   13171   13172   13178
   13184   13200   13201   13202   13178   13178   13179   13185   13186   13187
   13180   13188   13189   13190   13181   13191   13192   13193   13182   13194
   13195   13196   13183   13197   13198   13199   13184   13200   13201   13202
   13185   13186   13187   13188   13189   13190   13191   13192   13193   13194
   13195   13196   13197   13198   13199   13200   13201   13202   13186   13187
   13187       0   13189   13190   13190       0   13192   13193   13193       0
   13195   13196   13196       0   13198   13199   13199       0   13201   13202
   13202       0   13204   13205   13206   13207   13208   13209   13210   13211
   13212   13213   13214   13205   13206   13207   13208   13209   13210   13211
   13212   13213   13214   13215   13216   13217   13206   13207   13208   13209
   13210   13207   13211   13212   13213   13214   13215   13216   13218   13211
   13212   13213   13214   13215   13217   13218   13209   13210   13210       0
   13212   13213   13215   13216   13217   13218   13219   13220   13215   13216
   13214   13215   13216   13217   13218   13219   13220   13215   13217   13216
   13217   13218   13219   13220   13221   13222   13223   13224   13218   13218
   13219   13220   13221   13222   13223   13224   13225   13226   13227   13228
   13229   13230   13231   13232   13220   13221   13222   13223   13224   13225
   13226   13227   13228   13233   13234   13235   13221   13222   13223   13224
   13229   13230   13231   13232   13236   13237   13238   13222   13225   13226
   13227   13228   13233   13234   13239   13240   13241   13242   13225   13226
   13227   13228   13233   13235   13239   13224   13229   13230   13231   13232
   13236   13237   13243   13229   13230   13231   13232   13236   13238   13243
   13226   13227   13233   13234   13235   13239   13240   13241   13242   13244
   13245   13246   13247   13248   13249   13233   13234   13228   13233   13234
   13235   13239   13240   13244   13233   13235   13230   13231   13236   13237
   13238   13243   13250   13236   13237   13232   13236   13237   13238   13243
   13250   13236   13238   13234   13235   13239   13240   13241   13242   13244
   13245   13251   13252   13239   13240   13241   13242   13244   13245   13246
   13247   13248   13249   13253   13254   13255   13256   13257   13258   13259
   13260   13239   13237   13238   13243   13250   13261   13262   13263   13243
   13243   13240   13241   13242   13244   13245   13251   13252   13253   13254
   13264   13241   13242   13244   13245   13246   13247   13248   13249   13251
   13252   13253   13254   13265   13242   13245   13246   13247   13248   13249
   13255   13256   13257   13260   13266   13267   13268   13245   13246   13247
   13248   13249   13257   13258   13259   13260   13269   13270   13271   13250
   13261   13262   13263   13245   13251   13252   13253   13264   13265   13251
   13253   13254   13264   13265   13272   13273   13247   13249   13255   13256
   13257   13266   13267   13274   13275   13276   13248   13249   13255   13256
   13257   13260   13267   13268   13270   13271   13276   13249   13258   13259
   13260   13269   13270   13277   13278   13279   13257   13258   13259   13260
   13267   13268   13270   13271   13279   13261   13262   13263   13252   13253
   13254   13264   13265   13272   13273   13253   13264   13254   13264   13265
   13272   13273   13280   13281   13282   13283   13265   13256   13257   13266
   13267   13268   13274   13275   13276   13284   13285   13286   13287   13266
   13267   13260   13266   13267   13268   13276   13259   13269   13270   13260
   13269   13270   13271   13277   13278   13279   13288   13289   13290   13291
   13269   13270   13271   13279   13262   13263   13263       0   13265   13272
   13273   13280   13281   13282   13283   13292   13293   13294   13295   13296
   13297   13298   13299   13267   13274   13275   13276   13284   13285   13286
   13287   13300   13301   13302   13303   13304   13305   13306   13307   13268
   13274   13275   13276   13276   13270   13277   13278   13279   13288   13289
   13290   13291   13308   13309   13310   13311   13312   13313   13314   13315
   13271   13277   13278   13279   13279   13273   13280   13281   13282   13283
   13292   13293   13294   13295   13316   13317   13318   13280   13281   13282
   13283   13296   13297   13298   13299   13319   13320   13321   13275   13284
   13285   13286   13287   13300   13301   13302   13303   13322   13323   13324
   13284   13285   13286   13287   13304   13305   13306   13307   13325   13326
   13327       0   13278   13288   13289   13290   13291   13308   13309   13310
   13311   13328   13329   13330   13288   13289   13290   13291   13312   13313
   13314   13315   13331   13332   13333       0   13281   13292   13293   13294
   13295   13316   13317   13334   13292   13293   13294   13295   13316   13318
   13334   13283   13296   13297   13298   13299   13319   13320   13335   13296
   13297   13298   13299   13319   13321   13335   13285   13300   13301   13302
   13303   13322   13323   13336   13300   13301   13302   13303   13323   13324
   13336   13287   13304   13305   13306   13307   13325   13326   13337   13304
   13305   13306   13307   13325   13327   13337   13289   13308   13309   13310
   13311   13328   13329   13338   13308   13309   13310   13311   13328   13330
   13338   13291   13312   13313   13314   13315   13331   13332   13339   13312
   13313   13314   13315   13331   13333   13339   13293   13294   13316   13317
   13318   13334   13340   13316   13317   13295   13316   13317   13318   13334
   13340   13316   13318   13297   13319   13320   13299   13319   13320   13321
   13335   13341   13299   13319   13321   13319   13320   13321   13335   13341
   13301   13302   13322   13323   13324   13336   13342   13322   13323   13303
   13322   13323   13324   13336   13342   13323   13324   13305   13306   13325
   13326   13327   13337   13343   13325   13326   13307   13325   13326   13327
   13337   13343   13325   13327   13309   13310   13328   13329   13330   13338
   13344   13328   13329   13311   13328   13329   13330   13338   13344   13328
   13330   13313   13314   13331   13332   13333   13339   13345   13331   13332
   13315   13331   13332   13333   13339   13345   13331   13333   13317   13318
   13334   13340   13346   13347   13348   13334   13334   13320   13321   13335
   13341   13349   13350   13351   13335   13335   13323   13336   13324   13336
   13342   13352   13353   13354   13336   13326   13327   13337   13343   13355
   13356   13357   13337   13337   13329   13330   13338   13344   13358   13359
   13360   13338   13338   13332   13333   13339   13345   13361   13362   13363
   13339   13339   13340   13346   13347   13348   13341   13349   13350   13351
   13342   13352   13353   13354   13343   13355   13356   13357   13344   13358
   13359   13360   13345   13361   13362   13363   13346   13347   13348   13349
   13350   13351   13352   13353   13354   13355   13356   13357   13358   13359
   13360   13361   13362   13363   13347   13348   13348       0   13350   13351
   13351       0   13353   13354   13354       0   13356   13357   13357       0
   13359   13360   13360       0   13362   13363   13363       0   13365   13366
   13367   13368   13369   13370   13371   13372   13373   13374   13375   13366
   13367   13368   13369   13370   13371   13372   13373   13374   13375   13376
   13377   13378   13367   13368   13369   13370   13371   13368   13372   13373
   13374   13375   13376   13377   13379   13372   13373   13374   13375   13376
   13378   13379   13370   13371   13371       0   13373   13374   13376   13377
   13378   13379   13380   13381   13376   13377   13375   13376   13377   13378
   13379   13380   13381   13376   13378   13377   13378   13379   13380   13381
   13382   13383   13384   13385   13379   13379   13380   13381   13382   13383
   13384   13385   13386   13387   13388   13389   13390   13391   13392   13393
   13381   13382   13383   13384   13385   13386   13387   13388   13389   13394
   13395   13396   13382   13383   13384   13385   13390   13391   13392   13393
   13397   13398   13399   13383   13386   13387   13388   13389   13394   13395
   13400   13401   13402   13403   13386   13387   13388   13389   13394   13396
   13400   13385   13390   13391   13392   13393   13397   13398   13404   13390
   13391   13392   13393   13397   13399   13404   13387   13388   13394   13395
   13396   13400   13401   13402   13403   13405   13406   13407   13408   13409
   13410   13394   13395   13389   13394   13395   13396   13400   13401   13405
   13394   13396   13391   13392   13397   13398   13399   13404   13411   13397
   13398   13393   13397   13398   13399   13404   13411   13397   13399   13395
   13396   13400   13401   13402   13403   13405   13406   13412   13413   13400
   13401   13402   13403   13405   13406   13407   13408   13409   13410   13414
   13415   13416   13417   13418   13419   13420   13421   13400   13398   13399
   13404   13411   13422   13423   13424   13404   13404   13401   13402   13403
   13405   13406   13412   13413   13414   13415   13425   13402   13403   13405
   13406   13407   13408   13409   13410   13412   13413   13414   13415   13426
   13403   13406   13407   13408   13409   13410   13416   13417   13418   13421
   13427   13428   13429   13406   13407   13408   13409   13410   13418   13419
   13420   13421   13430   13431   13432   13411   13422   13423   13424   13406
   13412   13413   13414   13425   13426   13412   13414   13415   13425   13426
   13433   13434   13408   13410   13416   13417   13418   13427   13428   13435
   13436   13437   13409   13410   13416   13417   13418   13421   13428   13429
   13431   13432   13437   13410   13419   13420   13421   13430   13431   13438
   13439   13440   13418   13419   13420   13421   13428   13429   13431   13432
   13440   13422   13423   13424   13413   13414   13415   13425   13426   13433
   13434   13414   13425   13415   13425   13426   13433   13434   13441   13442
   13443   13444   13426   13417   13418   13427   13428   13429   13435   13436
   13437   13445   13446   13447   13448   13427   13428   13421   13427   13428
   13429   13437   13420   13430   13431   13421   13430   13431   13432   13438
   13439   13440   13449   13450   13451   13452   13430   13431   13432   13440
   13423   13424   13424       0   13426   13433   13434   13441   13442   13443
   13444   13453   13454   13455   13456   13457   13458   13459   13460   13428
   13435   13436   13437   13445   13446   13447   13448   13461   13462   13463
   13464   13465   13466   13467   13468   13429   13435   13436   13437   13437
   13431   13438   13439   13440   13449   13450   13451   13452   13469   13470
   13471   13472   13473   13474   13475   13476   13432   13438   13439   13440
   13440   13434   13441   13442   13443   13444   13453   13454   13455   13456
   13477   13478   13479   13441   13442   13443   13444   13457   13458   13459
   13460   13480   13481   13482   13436   13445   13446   13447   13448   13461
   13462   13463   13464   13483   13484   13485   13445   13446   13447   13448
   13465   13466   13467   13468   13486   13487   13488       0   13439   13449
   13450   13451   13452   13469   13470   13471   13472   13489   13490   13491
   13449   13450   13451   13452   13473   13474   13475   13476   13492   13493
   13494       0   13442   13453   13454   13455   13456   13477   13478   13495
   13453   13454   13455   13456   13477   13479   13495   13444   13457   13458
   13459   13460   13480   13481   13496   13457   13458   13459   13460   13480
   13482   13496   13446   13461   13462   13463   13464   13483   13484   13497
   13461   13462   13463   13464   13484   13485   13497   13448   13465   13466
   13467   13468   13486   13487   13498   13465   13466   13467   13468   13486
   13488   13498   13450   13469   13470   13471   13472   13489   13490   13499
   13469   13470   13471   13472   13489   13491   13499   13452   13473   13474
   13475   13476   13492   13493   13500   13473   13474   13475   13476   13492
   13494   13500   13454   13455   13477   13478   13479   13495   13501   13477
   13478   13456   13477   13478   13479   13495   13501   13477   13479   13458
   13480   13481   13460   13480   13481   13482   13496   13502   13460   13480
   13482   13480   13481   13482   13496   13502   13462   13463   13483   13484
   13485   13497   13503   13483   13484   13464   13483   13484   13485   13497
   13503   13484   13485   13466   13467   13486   13487   13488   13498   13504
   13486   13487   13468   13486   13487   13488   13498   13504   13486   13488
   13470   13471   13489   13490   13491   13499   13505   13489   13490   13472
   13489   13490   13491   13499   13505   13489   13491   13474   13475   13492
   13493   13494   13500   13506   13492   13493   13476   13492   13493   13494
   13500   13506   13492   13494   13478   13479   13495   13501   13507   13508
   13509   13495   13495   13481   13482   13496   13502   13510   13511   13512
   13496   13496   13484   13497   13485   13497   13503   13513   13514   13515
   13497   13487   13488   13498   13504   13516   13517   13518   13498   13498
   13490   13491   13499   13505   13519   13520   13521   13499   13499   13493
   13494   13500   13506   13522   13523   13524   13500   13500   13501   13507
   13508   13509   13502   13510   13511   13512   13503   13513   13514   13515
   13504   13516   13517   13518   13505   13519   13520   13521   13506   13522
   13523   13524   13507   13508   13509   13510   13511   13512   13513   13514
   13515   13516   13517   13518   13519   13520   13521   13522   13523   13524
   13508   13509   13509       0   13511   13512   13512       0   13514   13515
   13515       0   13517   13518   13518       0   13520   13521   13521       0
   13523   13524   13524       0   13526   13527   13528   13529   13530   13531
   13532   13533   13534   13535   13536   13527   13528   13529   13530   13531
   13532   13533   13534   13535   13536   13537   13538   13539   13528   13529
   13530   13531   13532   13529   13533   13534   13535   13536   13537   13538
   13540   13533   13534   13535   13536   13537   13539   13540   13531   13532
   13532       0   13534   13535   13537   13538   13539   13540   13541   13542
   13537   13538   13536   13537   13538   13539   13540   13541   13542   13537
   13539   13538   13539   13540   13541   13542   13543   13544   13545   13546
   13540   13540   13541   13542   13543   13544   13545   13546   13547   13548
   13549   13550   13551   13552   13553   13554   13542   13543   13544   13545
   13546   13547   13548   13549   13550   13555   13556   13557   13543   13544
   13545   13546   13551   13552   13553   13554   13558   13559   13560   13544
   13547   13548   13549   13550   13555   13556   13561   13562   13563   13564
   13547   13548   13549   13550   13555   13557   13561   13546   13551   13552
   13553   13554   13558   13559   13565   13551   13552   13553   13554   13558
   13560   13565   13548   13549   13555   13556   13557   13561   13562   13563
   13564   13566   13567   13568   13569   13570   13571   13555   13556   13550
   13555   13556   13557   13561   13562   13566   13555   13557   13552   13553
   13558   13559   13560   13565   13572   13558   13559   13554   13558   13559
   13560   13565   13572   13558   13560   13556   13557   13561   13562   13563
   13564   13566   13567   13573   13574   13561   13562   13563   13564   13566
   13567   13568   13569   13570   13571   13575   13576   13577   13578   13579
   13580   13581   13582   13561   13559   13560   13565   13572   13583   13584
   13585   13565   13565   13562   13563   13564   13566   13567   13573   13574
   13575   13576   13586   13563   13564   13566   13567   13568   13569   13570
   13571   13573   13574   13575   13576   13587   13564   13567   13568   13569
   13570   13571   13577   13578   13579   13582   13588   13589   13590   13567
   13568   13569   13570   13571   13579   13580   13581   13582   13591   13592
   13593   13572   13583   13584   13585   13567   13573   13574   13575   13586
   13587   13573   13575   13576   13586   13587   13594   13595   13569   13571
   13577   13578   13579   13588   13589   13596   13597   13598   13570   13571
   13577   13578   13579   13582   13589   13590   13592   13593   13598   13571
   13580   13581   13582   13591   13592   13599   13600   13601   13579   13580
   13581   13582   13589   13590   13592   13593   13601   13583   13584   13585
   13574   13575   13576   13586   13587   13594   13595   13575   13586   13576
   13586   13587   13594   13595   13602   13603   13604   13605   13587   13578
   13579   13588   13589   13590   13596   13597   13598   13606   13607   13608
   13609   13588   13589   13582   13588   13589   13590   13598   13581   13591
   13592   13582   13591   13592   13593   13599   13600   13601   13610   13611
   13612   13613   13591   13592   13593   13601   13584   13585   13585       0
   13587   13594   13595   13602   13603   13604   13605   13614   13615   13616
   13617   13618   13619   13620   13621   13589   13596   13597   13598   13606
   13607   13608   13609   13622   13623   13624   13625   13626   13627   13628
   13629   13590   13596   13597   13598   13598   13592   13599   13600   13601
   13610   13611   13612   13613   13630   13631   13632   13633   13634   13635
   13636   13637   13593   13599   13600   13601   13601   13595   13602   13603
   13604   13605   13614   13615   13616   13617   13638   13639   13640   13602
   13603   13604   13605   13618   13619   13620   13621   13641   13642   13643
   13597   13606   13607   13608   13609   13622   13623   13624   13625   13644
   13645   13646   13606   13607   13608   13609   13626   13627   13628   13629
   13647   13648   13649       0   13600   13610   13611   13612   13613   13630
   13631   13632   13633   13650   13651   13652   13610   13611   13612   13613
   13634   13635   13636   13637   13653   13654   13655       0   13603   13614
   13615   13616   13617   13638   13639   13656   13614   13615   13616   13617
   13638   13640   13656   13605   13618   13619   13620   13621   13641   13642
   13657   13618   13619   13620   13621   13641   13643   13657   13607   13622
   13623   13624   13625   13644   13645   13658   13622   13623   13624   13625
   13645   13646   13658   13609   13626   13627   13628   13629   13647   13648
   13659   13626   13627   13628   13629   13647   13649   13659   13611   13630
   13631   13632   13633   13650   13651   13660   13630   13631   13632   13633
   13650   13652   13660   13613   13634   13635   13636   13637   13653   13654
   13661   13634   13635   13636   13637   13653   13655   13661   13615   13616
   13638   13639   13640   13656   13662   13638   13639   13617   13638   13639
   13640   13656   13662   13638   13640   13619   13641   13642   13621   13641
   13642   13643   13657   13663   13621   13641   13643   13641   13642   13643
   13657   13663   13623   13624   13644   13645   13646   13658   13664   13644
   13645   13625   13644   13645   13646   13658   13664   13645   13646   13627
   13628   13647   13648   13649   13659   13665   13647   13648   13629   13647
   13648   13649   13659   13665   13647   13649   13631   13632   13650   13651
   13652   13660   13666   13650   13651   13633   13650   13651   13652   13660
   13666   13650   13652   13635   13636   13653   13654   13655   13661   13667
   13653   13654   13637   13653   13654   13655   13661   13667   13653   13655
   13639   13640   13656   13662   13668   13669   13670   13656   13656   13642
   13643   13657   13663   13671   13672   13673   13657   13657   13645   13658
   13646   13658   13664   13674   13675   13676   13658   13648   13649   13659
   13665   13677   13678   13679   13659   13659   13651   13652   13660   13666
   13680   13681   13682   13660   13660   13654   13655   13661   13667   13683
   13684   13685   13661   13661   13662   13668   13669   13670   13663   13671
   13672   13673   13664   13674   13675   13676   13665   13677   13678   13679
   13666   13680   13681   13682   13667   13683   13684   13685   13668   13669
   13670   13671   13672   13673   13674   13675   13676   13677   13678   13679
   13680   13681   13682   13683   13684   13685   13669   13670   13670       0
   13672   13673   13673       0   13675   13676   13676       0   13678   13679
   13679       0   13681   13682   13682       0   13684   13685   13685       0
   13687   13688   13689   13690   13691   13692   13693   13694   13695   13696
   13697   13688   13689   13690   13691   13692   13693   13694   13695   13696
   13697   13698   13699   13700   13689   13690   13691   13692   13693   13690
   13694   13695   13696   13697   13698   13699   13701   13694   13695   13696
   13697   13698   13700   13701   13692   13693   13693       0   13695   13696
   13698   13699   13700   13701   13702   13703   13698   13699   13697   13698
   13699   13700   13701   13702   13703   13698   13700   13699   13700   13701
   13702   13703   13704   13705   13706   13707   13701   13701   13702   13703
   13704   13705   13706   13707   13708   13709   13710   13711   13712   13713
   13714   13715   13703   13704   13705   13706   13707   13708   13709   13710
   13711   13716   13717   13718   13704   13705   13706   13707   13712   13713
   13714   13715   13719   13720   13721   13705   13708   13709   13710   13711
   13716   13717   13722   13723   13724   13725   13708   13709   13710   13711
   13716   13718   13722   13707   13712   13713   13714   13715   13719   13720
   13726   13712   13713   13714   13715   13719   13721   13726   13709   13710
   13716   13717   13718   13722   13723   13724   13725   13727   13728   13729
   13730   13731   13732   13716   13717   13711   13716   13717   13718   13722
   13723   13727   13716   13718   13713   13714   13719   13720   13721   13726
   13733   13719   13720   13715   13719   13720   13721   13726   13733   13719
   13721   13717   13718   13722   13723   13724   13725   13727   13728   13734
   13735   13722   13723   13724   13725   13727   13728   13729   13730   13731
   13732   13736   13737   13738   13739   13740   13741   13742   13743   13722
   13720   13721   13726   13733   13744   13745   13746   13726   13726   13723
   13724   13725   13727   13728   13734   13735   13736   13737   13747   13724
   13725   13727   13728   13729   13730   13731   13732   13734   13735   13736
   13737   13748   13725   13728   13729   13730   13731   13732   13738   13739
   13740   13743   13749   13750   13751   13728   13729   13730   13731   13732
   13740   13741   13742   13743   13752   13753   13754   13733   13744   13745
   13746   13728   13734   13735   13736   13747   13748   13734   13736   13737
   13747   13748   13755   13756   13730   13732   13738   13739   13740   13749
   13750   13757   13758   13759   13731   13732   13738   13739   13740   13743
   13750   13751   13753   13754   13759   13732   13741   13742   13743   13752
   13753   13760   13761   13762   13740   13741   13742   13743   13750   13751
   13753   13754   13762   13744   13745   13746   13735   13736   13737   13747
   13748   13755   13756   13736   13747   13737   13747   13748   13755   13756
   13763   13764   13765   13766   13748   13739   13740   13749   13750   13751
   13757   13758   13759   13767   13768   13769   13770   13749   13750   13743
   13749   13750   13751   13759   13742   13752   13753   13743   13752   13753
   13754   13760   13761   13762   13771   13772   13773   13774   13752   13753
   13754   13762   13745   13746   13746       0   13748   13755   13756   13763
   13764   13765   13766   13775   13776   13777   13778   13779   13780   13781
   13782   13750   13757   13758   13759   13767   13768   13769   13770   13783
   13784   13785   13786   13787   13788   13789   13790   13751   13757   13758
   13759   13759   13753   13760   13761   13762   13771   13772   13773   13774
   13791   13792   13793   13794   13795   13796   13797   13798   13754   13760
   13761   13762   13762   13756   13763   13764   13765   13766   13775   13776
   13777   13778   13799   13800   13801   13763   13764   13765   13766   13779
   13780   13781   13782   13802   13803   13804   13758   13767   13768   13769
   13770   13783   13784   13785   13786   13805   13806   13807   13767   13768
   13769   13770   13787   13788   13789   13790   13808   13809   13810       0
   13761   13771   13772   13773   13774   13791   13792   13793   13794   13811
   13812   13813   13771   13772   13773   13774   13795   13796   13797   13798
   13814   13815   13816       0   13764   13775   13776   13777   13778   13799
   13800   13817   13775   13776   13777   13778   13799   13801   13817   13766
   13779   13780   13781   13782   13802   13803   13818   13779   13780   13781
   13782   13802   13804   13818   13768   13783   13784   13785   13786   13805
   13806   13819   13783   13784   13785   13786   13806   13807   13819   13770
   13787   13788   13789   13790   13808   13809   13820   13787   13788   13789
   13790   13808   13810   13820   13772   13791   13792   13793   13794   13811
   13812   13821   13791   13792   13793   13794   13811   13813   13821   13774
   13795   13796   13797   13798   13814   13815   13822   13795   13796   13797
   13798   13814   13816   13822   13776   13777   13799   13800   13801   13817
   13823   13799   13800   13778   13799   13800   13801   13817   13823   13799
   13801   13780   13802   13803   13782   13802   13803   13804   13818   13824
   13782   13802   13804   13802   13803   13804   13818   13824   13784   13785
   13805   13806   13807   13819   13825   13805   13806   13786   13805   13806
   13807   13819   13825   13806   13807   13788   13789   13808   13809   13810
   13820   13826   13808   13809   13790   13808   13809   13810   13820   13826
   13808   13810   13792   13793   13811   13812   13813   13821   13827   13811
   13812   13794   13811   13812   13813   13821   13827   13811   13813   13796
   13797   13814   13815   13816   13822   13828   13814   13815   13798   13814
   13815   13816   13822   13828   13814   13816   13800   13801   13817   13823
   13829   13830   13831   13817   13817   13803   13804   13818   13824   13832
   13833   13834   13818   13818   13806   13819   13807   13819   13825   13835
   13836   13837   13819   13809   13810   13820   13826   13838   13839   13840
   13820   13820   13812   13813   13821   13827   13841   13842   13843   13821
   13821   13815   13816   13822   13828   13844   13845   13846   13822   13822
   13823   13829   13830   13831   13824   13832   13833   13834   13825   13835
   13836   13837   13826   13838   13839   13840   13827   13841   13842   13843
   13828   13844   13845   13846   13829   13830   13831   13832   13833   13834
   13835   13836   13837   13838   13839   13840   13841   13842   13843   13844
   13845   13846   13830   13831   13831       0   13833   13834   13834       0
   13836   13837   13837       0   13839   13840   13840       0   13842   13843
   13843       0   13845   13846   13846       0   13848   13849   13850   13851
   13852   13853   13854   13855   13856   13857   13858   13849   13850   13851
   13852   13853   13854   13855   13856   13857   13858   13859   13860   13861
   13850   13851   13852   13853   13854   13851   13855   13856   13857   13858
   13859   13860   13862   13855   13856   13857   13858   13859   13861   13862
   13853   13854   13854       0   13856   13857   13859   13860   13861   13862
   13863   13864   13859   13860   13858   13859   13860   13861   13862   13863
   13864   13859   13861   13860   13861   13862   13863   13864   13865   13866
   13867   13868   13862   13862   13863   13864   13865   13866   13867   13868
   13869   13870   13871   13872   13873   13874   13875   13876   13864   13865
   13866   13867   13868   13869   13870   13871   13872   13877   13878   13879
   13865   13866   13867   13868   13873   13874   13875   13876   13880   13881
   13882   13866   13869   13870   13871   13872   13877   13878   13883   13884
   13885   13886   13869   13870   13871   13872   13877   13879   13883   13868
   13873   13874   13875   13876   13880   13881   13887   13873   13874   13875
   13876   13880   13882   13887   13870   13871   13877   13878   13879   13883
   13884   13885   13886   13888   13889   13890   13891   13892   13893   13877
   13878   13872   13877   13878   13879   13883   13884   13888   13877   13879
   13874   13875   13880   13881   13882   13887   13894   13880   13881   13876
   13880   13881   13882   13887   13894   13880   13882   13878   13879   13883
   13884   13885   13886   13888   13889   13895   13896   13883   13884   13885
   13886   13888   13889   13890   13891   13892   13893   13897   13898   13899
   13900   13901   13902   13903   13904   13883   13881   13882   13887   13894
   13905   13906   13907   13887   13887   13884   13885   13886   13888   13889
   13895   13896   13897   13898   13908   13885   13886   13888   13889   13890
   13891   13892   13893   13895   13896   13897   13898   13909   13886   13889
   13890   13891   13892   13893   13899   13900   13901   13904   13910   13911
   13912   13889   13890   13891   13892   13893   13901   13902   13903   13904
   13913   13914   13915   13894   13905   13906   13907   13889   13895   13896
   13897   13908   13909   13895   13897   13898   13908   13909   13916   13917
   13891   13893   13899   13900   13901   13910   13911   13918   13919   13920
   13892   13893   13899   13900   13901   13904   13911   13912   13914   13915
   13920   13893   13902   13903   13904   13913   13914   13921   13922   13923
   13901   13902   13903   13904   13911   13912   13914   13915   13923   13905
   13906   13907   13896   13897   13898   13908   13909   13916   13917   13897
   13908   13898   13908   13909   13916   13917   13924   13925   13926   13927
   13909   13900   13901   13910   13911   13912   13918   13919   13920   13928
   13929   13930   13931   13910   13911   13904   13910   13911   13912   13920
   13903   13913   13914   13904   13913   13914   13915   13921   13922   13923
   13932   13933   13934   13935   13913   13914   13915   13923   13906   13907
   13907       0   13909   13916   13917   13924   13925   13926   13927   13936
   13937   13938   13939   13940   13941   13942   13943   13911   13918   13919
   13920   13928   13929   13930   13931   13944   13945   13946   13947   13948
   13949   13950   13951   13912   13918   13919   13920   13920   13914   13921
   13922   13923   13932   13933   13934   13935   13952   13953   13954   13955
   13956   13957   13958   13959   13915   13921   13922   13923   13923   13917
   13924   13925   13926   13927   13936   13937   13938   13939   13960   13961
   13962   13924   13925   13926   13927   13940   13941   13942   13943   13963
   13964   13965   13919   13928   13929   13930   13931   13944   13945   13946
   13947   13966   13967   13968   13928   13929   13930   13931   13948   13949
   13950   13951   13969   13970   13971       0   13922   13932   13933   13934
   13935   13952   13953   13954   13955   13972   13973   13974   13932   13933
   13934   13935   13956   13957   13958   13959   13975   13976   13977       0
   13925   13936   13937   13938   13939   13960   13961   13978   13936   13937
   13938   13939   13960   13962   13978   13927   13940   13941   13942   13943
   13963   13964   13979   13940   13941   13942   13943   13963   13965   13979
   13929   13944   13945   13946   13947   13966   13967   13980   13944   13945
   13946   13947   13967   13968   13980   13931   13948   13949   13950   13951
   13969   13970   13981   13948   13949   13950   13951   13969   13971   13981
   13933   13952   13953   13954   13955   13972   13973   13982   13952   13953
   13954   13955   13972   13974   13982   13935   13956   13957   13958   13959
   13975   13976   13983   13956   13957   13958   13959   13975   13977   13983
   13937   13938   13960   13961   13962   13978   13984   13960   13961   13939
   13960   13961   13962   13978   13984   13960   13962   13941   13963   13964
   13943   13963   13964   13965   13979   13985   13943   13963   13965   13963
   13964   13965   13979   13985   13945   13946   13966   13967   13968   13980
   13986   13966   13967   13947   13966   13967   13968   13980   13986   13967
   13968   13949   13950   13969   13970   13971   13981   13987   13969   13970
   13951   13969   13970   13971   13981   13987   13969   13971   13953   13954
   13972   13973   13974   13982   13988   13972   13973   13955   13972   13973
   13974   13982   13988   13972   13974   13957   13958   13975   13976   13977
   13983   13989   13975   13976   13959   13975   13976   13977   13983   13989
   13975   13977   13961   13962   13978   13984   13990   13991   13992   13978
   13978   13964   13965   13979   13985   13993   13994   13995   13979   13979
   13967   13980   13968   13980   13986   13996   13997   13998   13980   13970
   13971   13981   13987   13999   14000   14001   13981   13981   13973   13974
   13982   13988   14002   14003   14004   13982   13982   13976   13977   13983
   13989   14005   14006   14007   13983   13983   13984   13990   13991   13992
   13985   13993   13994   13995   13986   13996   13997   13998   13987   13999
   14000   14001   13988   14002   14003   14004   13989   14005   14006   14007
   13990   13991   13992   13993   13994   13995   13996   13997   13998   13999
   14000   14001   14002   14003   14004   14005   14006   14007   13991   13992
   13992       0   13994   13995   13995       0   13997   13998   13998       0
   14000   14001   14001       0   14003   14004   14004       0   14006   14007
   14007       0   14009   14010   14011   14012   14013   14014   14015   14016
   14017   14018   14019   14010   14011   14012   14013   14014   14015   14016
   14017   14018   14019   14020   14021   14022   14011   14012   14013   14014
   14015   14012   14016   14017   14018   14019   14020   14021   14023   14016
   14017   14018   14019   14020   14022   14023   14014   14015   14015       0
   14017   14018   14020   14021   14022   14023   14024   14025   14020   14021
   14019   14020   14021   14022   14023   14024   14025   14020   14022   14021
   14022   14023   14024   14025   14026   14027   14028   14029   14023   14023
   14024   14025   14026   14027   14028   14029   14030   14031   14032   14033
   14034   14035   14036   14037   14025   14026   14027   14028   14029   14030
   14031   14032   14033   14038   14039   14040   14026   14027   14028   14029
   14034   14035   14036   14037   14041   14042   14043   14027   14030   14031
   14032   14033   14038   14039   14044   14045   14046   14047   14030   14031
   14032   14033   14038   14040   14044   14029   14034   14035   14036   14037
   14041   14042   14048   14034   14035   14036   14037   14041   14043   14048
   14031   14032   14038   14039   14040   14044   14045   14046   14047   14049
   14050   14051   14052   14053   14054   14038   14039   14033   14038   14039
   14040   14044   14045   14049   14038   14040   14035   14036   14041   14042
   14043   14048   14055   14041   14042   14037   14041   14042   14043   14048
   14055   14041   14043   14039   14040   14044   14045   14046   14047   14049
   14050   14056   14057   14044   14045   14046   14047   14049   14050   14051
   14052   14053   14054   14058   14059   14060   14061   14062   14063   14064
   14065   14044   14042   14043   14048   14055   14066   14067   14068   14048
   14048   14045   14046   14047   14049   14050   14056   14057   14058   14059
   14069   14046   14047   14049   14050   14051   14052   14053   14054   14056
   14057   14058   14059   14070   14047   14050   14051   14052   14053   14054
   14060   14061   14062   14065   14071   14072   14073   14050   14051   14052
   14053   14054   14062   14063   14064   14065   14074   14075   14076   14055
   14066   14067   14068   14050   14056   14057   14058   14069   14070   14056
   14058   14059   14069   14070   14077   14078   14052   14054   14060   14061
   14062   14071   14072   14079   14080   14081   14053   14054   14060   14061
   14062   14065   14072   14073   14075   14076   14081   14054   14063   14064
   14065   14074   14075   14082   14083   14084   14062   14063   14064   14065
   14072   14073   14075   14076   14084   14066   14067   14068   14057   14058
   14059   14069   14070   14077   14078   14058   14069   14059   14069   14070
   14077   14078   14085   14086   14087   14088   14070   14061   14062   14071
   14072   14073   14079   14080   14081   14089   14090   14091   14092   14071
   14072   14065   14071   14072   14073   14081   14064   14074   14075   14065
   14074   14075   14076   14082   14083   14084   14093   14094   14095   14096
   14074   14075   14076   14084   14067   14068   14068       0   14070   14077
   14078   14085   14086   14087   14088   14097   14098   14099   14100   14101
   14102   14103   14104   14072   14079   14080   14081   14089   14090   14091
   14092   14105   14106   14107   14108   14109   14110   14111   14112   14073
   14079   14080   14081   14081   14075   14082   14083   14084   14093   14094
   14095   14096   14113   14114   14115   14116   14117   14118   14119   14120
   14076   14082   14083   14084   14084   14078   14085   14086   14087   14088
   14097   14098   14099   14100   14121   14122   14123   14085   14086   14087
   14088   14101   14102   14103   14104   14124   14125   14126   14080   14089
   14090   14091   14092   14105   14106   14107   14108   14127   14128   14129
   14089   14090   14091   14092   14109   14110   14111   14112   14130   14131
   14132       0   14083   14093   14094   14095   14096   14113   14114   14115
   14116   14133   14134   14135   14093   14094   14095   14096   14117   14118
   14119   14120   14136   14137   14138       0   14086   14097   14098   14099
   14100   14121   14122   14139   14097   14098   14099   14100   14121   14123
   14139   14088   14101   14102   14103   14104   14124   14125   14140   14101
   14102   14103   14104   14124   14126   14140   14090   14105   14106   14107
   14108   14127   14128   14141   14105   14106   14107   14108   14128   14129
   14141   14092   14109   14110   14111   14112   14130   14131   14142   14109
   14110   14111   14112   14130   14132   14142   14094   14113   14114   14115
   14116   14133   14134   14143   14113   14114   14115   14116   14133   14135
   14143   14096   14117   14118   14119   14120   14136   14137   14144   14117
   14118   14119   14120   14136   14138   14144   14098   14099   14121   14122
   14123   14139   14145   14121   14122   14100   14121   14122   14123   14139
   14145   14121   14123   14102   14124   14125   14104   14124   14125   14126
   14140   14146   14104   14124   14126   14124   14125   14126   14140   14146
   14106   14107   14127   14128   14129   14141   14147   14127   14128   14108
   14127   14128   14129   14141   14147   14128   14129   14110   14111   14130
   14131   14132   14142   14148   14130   14131   14112   14130   14131   14132
   14142   14148   14130   14132   14114   14115   14133   14134   14135   14143
   14149   14133   14134   14116   14133   14134   14135   14143   14149   14133
   14135   14118   14119   14136   14137   14138   14144   14150   14136   14137
   14120   14136   14137   14138   14144   14150   14136   14138   14122   14123
   14139   14145   14151   14152   14153   14139   14139   14125   14126   14140
   14146   14154   14155   14156   14140   14140   14128   14141   14129   14141
   14147   14157   14158   14159   14141   14131   14132   14142   14148   14160
   14161   14162   14142   14142   14134   14135   14143   14149   14163   14164
   14165   14143   14143   14137   14138   14144   14150   14166   14167   14168
   14144   14144   14145   14151   14152   14153   14146   14154   14155   14156
   14147   14157   14158   14159   14148   14160   14161   14162   14149   14163
   14164   14165   14150   14166   14167   14168   14151   14152   14153   14154
   14155   14156   14157   14158   14159   14160   14161   14162   14163   14164
   14165   14166   14167   14168   14152   14153   14153       0   14155   14156
   14156       0   14158   14159   14159       0   14161   14162   14162       0
   14164   14165   14165       0   14167   14168   14168       0   14170   14171
   14172   14173   14174   14175   14176   14177   14178   14179   14180   14171
   14172   14173   14174   14175   14176   14177   14178   14179   14180   14181
   14182   14183   14172   14173   14174   14175   14176   14173   14177   14178
   14179   14180   14181   14182   14184   14177   14178   14179   14180   14181
   14183   14184   14175   14176   14176       0   14178   14179   14181   14182
   14183   14184   14185   14186   14181   14182   14180   14181   14182   14183
   14184   14185   14186   14181   14183   14182   14183   14184   14185   14186
   14187   14188   14189   14190   14184   14184   14185   14186   14187   14188
   14189   14190   14191   14192   14193   14194   14195   14196   14197   14198
   14186   14187   14188   14189   14190   14191   14192   14193   14194   14199
   14200   14201   14187   14188   14189   14190   14195   14196   14197   14198
   14202   14203   14204   14188   14191   14192   14193   14194   14199   14200
   14205   14206   14207   14208   14191   14192   14193   14194   14199   14201
   14205   14190   14195   14196   14197   14198   14202   14203   14209   14195
   14196   14197   14198   14202   14204   14209   14192   14193   14199   14200
   14201   14205   14206   14207   14208   14210   14211   14212   14213   14214
   14215   14199   14200   14194   14199   14200   14201   14205   14206   14210
   14199   14201   14196   14197   14202   14203   14204   14209   14216   14202
   14203   14198   14202   14203   14204   14209   14216   14202   14204   14200
   14201   14205   14206   14207   14208   14210   14211   14217   14218   14205
   14206   14207   14208   14210   14211   14212   14213   14214   14215   14219
   14220   14221   14222   14223   14224   14225   14226   14205   14203   14204
   14209   14216   14227   14228   14229   14209   14209   14206   14207   14208
   14210   14211   14217   14218   14219   14220   14230   14207   14208   14210
   14211   14212   14213   14214   14215   14217   14218   14219   14220   14231
   14208   14211   14212   14213   14214   14215   14221   14222   14223   14226
   14232   14233   14234   14211   14212   14213   14214   14215   14223   14224
   14225   14226   14235   14236   14237   14216   14227   14228   14229   14211
   14217   14218   14219   14230   14231   14217   14219   14220   14230   14231
   14238   14239   14213   14215   14221   14222   14223   14232   14233   14240
   14241   14242   14214   14215   14221   14222   14223   14226   14233   14234
   14236   14237   14242   14215   14224   14225   14226   14235   14236   14243
   14244   14245   14223   14224   14225   14226   14233   14234   14236   14237
   14245   14227   14228   14229   14218   14219   14220   14230   14231   14238
   14239   14219   14230   14220   14230   14231   14238   14239   14246   14247
   14248   14249   14231   14222   14223   14232   14233   14234   14240   14241
   14242   14250   14251   14252   14253   14232   14233   14226   14232   14233
   14234   14242   14225   14235   14236   14226   14235   14236   14237   14243
   14244   14245   14254   14255   14256   14257   14235   14236   14237   14245
   14228   14229   14229       0   14231   14238   14239   14246   14247   14248
   14249   14258   14259   14260   14261   14262   14263   14264   14265   14233
   14240   14241   14242   14250   14251   14252   14253   14266   14267   14268
   14269   14270   14271   14272   14273   14234   14240   14241   14242   14242
   14236   14243   14244   14245   14254   14255   14256   14257   14274   14275
   14276   14277   14278   14279   14280   14281   14237   14243   14244   14245
   14245   14239   14246   14247   14248   14249   14258   14259   14260   14261
   14282   14283   14284   14246   14247   14248   14249   14262   14263   14264
   14265   14285   14286   14287   14241   14250   14251   14252   14253   14266
   14267   14268   14269   14288   14289   14290   14250   14251   14252   14253
   14270   14271   14272   14273   14291   14292   14293       0   14244   14254
   14255   14256   14257   14274   14275   14276   14277   14294   14295   14296
   14254   14255   14256   14257   14278   14279   14280   14281   14297   14298
   14299       0   14247   14258   14259   14260   14261   14282   14283   14300
   14258   14259   14260   14261   14282   14284   14300   14249   14262   14263
   14264   14265   14285   14286   14301   14262   14263   14264   14265   14285
   14287   14301   14251   14266   14267   14268   14269   14288   14289   14302
   14266   14267   14268   14269   14289   14290   14302   14253   14270   14271
   14272   14273   14291   14292   14303   14270   14271   14272   14273   14291
   14293   14303   14255   14274   14275   14276   14277   14294   14295   14304
   14274   14275   14276   14277   14294   14296   14304   14257   14278   14279
   14280   14281   14297   14298   14305   14278   14279   14280   14281   14297
   14299   14305   14259   14260   14282   14283   14284   14300   14306   14282
   14283   14261   14282   14283   14284   14300   14306   14282   14284   14263
   14285   14286   14265   14285   14286   14287   14301   14307   14265   14285
   14287   14285   14286   14287   14301   14307   14267   14268   14288   14289
   14290   14302   14308   14288   14289   14269   14288   14289   14290   14302
   14308   14289   14290   14271   14272   14291   14292   14293   14303   14309
   14291   14292   14273   14291   14292   14293   14303   14309   14291   14293
   14275   14276   14294   14295   14296   14304   14310   14294   14295   14277
   14294   14295   14296   14304   14310   14294   14296   14279   14280   14297
   14298   14299   14305   14311   14297   14298   14281   14297   14298   14299
   14305   14311   14297   14299   14283   14284   14300   14306   14312   14313
   14314   14300   14300   14286   14287   14301   14307   14315   14316   14317
   14301   14301   14289   14302   14290   14302   14308   14318   14319   14320
   14302   14292   14293   14303   14309   14321   14322   14323   14303   14303
   14295   14296   14304   14310   14324   14325   14326   14304   14304   14298
   14299   14305   14311   14327   14328   14329   14305   14305   14306   14312
   14313   14314   14307   14315   14316   14317   14308   14318   14319   14320
   14309   14321   14322   14323   14310   14324   14325   14326   14311   14327
   14328   14329   14312   14313   14314   14315   14316   14317   14318   14319
   14320   14321   14322   14323   14324   14325   14326   14327   14328   14329
   14313   14314   14314       0   14316   14317   14317       0   14319   14320
   14320       0   14322   14323   14323       0   14325   14326   14326       0
   14328   14329   14329       0   14331   14332   14333   14334   14335   14336
   14337   14338   14339   14340   14341   14332   14333   14334   14335   14336
   14337   14338   14339   14340   14341   14342   14343   14344   14333   14334
   14335   14336   14337   14334   14338   14339   14340   14341   14342   14343
   14345   14338   14339   14340   14341   14342   14344   14345   14336   14337
   14337       0   14339   14340   14342   14343   14344   14345   14346   14347
   14342   14343   14341   14342   14343   14344   14345   14346   14347   14342
   14344   14343   14344   14345   14346   14347   14348   14349   14350   14351
   14345   14345   14346   14347   14348   14349   14350   14351   14352   14353
   14354   14355   14356   14357   14358   14359   14347   14348   14349   14350
   14351   14352   14353   14354   14355   14360   14361   14362   14348   14349
   14350   14351   14356   14357   14358   14359   14363   14364   14365   14349
   14352   14353   14354   14355   14360   14361   14366   14367   14368   14369
   14352   14353   14354   14355   14360   14362   14366   14351   14356   14357
   14358   14359   14363   14364   14370   14356   14357   14358   14359   14363
   14365   14370   14353   14354   14360   14361   14362   14366   14367   14368
   14369   14371   14372   14373   14374   14375   14376   14360   14361   14355
   14360   14361   14362   14366   14367   14371   14360   14362   14357   14358
   14363   14364   14365   14370   14377   14363   14364   14359   14363   14364
   14365   14370   14377   14363   14365   14361   14362   14366   14367   14368
   14369   14371   14372   14378   14379   14366   14367   14368   14369   14371
   14372   14373   14374   14375   14376   14380   14381   14382   14383   14384
   14385   14386   14387   14366   14364   14365   14370   14377   14388   14389
   14390   14370   14370   14367   14368   14369   14371   14372   14378   14379
   14380   14381   14391   14368   14369   14371   14372   14373   14374   14375
   14376   14378   14379   14380   14381   14392   14369   14372   14373   14374
   14375   14376   14382   14383   14384   14387   14393   14394   14395   14372
   14373   14374   14375   14376   14384   14385   14386   14387   14396   14397
   14398   14377   14388   14389   14390   14372   14378   14379   14380   14391
   14392   14378   14380   14381   14391   14392   14399   14400   14374   14376
   14382   14383   14384   14393   14394   14401   14402   14403   14375   14376
   14382   14383   14384   14387   14394   14395   14397   14398   14403   14376
   14385   14386   14387   14396   14397   14404   14405   14406   14384   14385
   14386   14387   14394   14395   14397   14398   14406   14388   14389   14390
   14379   14380   14381   14391   14392   14399   14400   14380   14391   14381
   14391   14392   14399   14400   14407   14408   14409   14410   14392   14383
   14384   14393   14394   14395   14401   14402   14403   14411   14412   14413
   14414   14393   14394   14387   14393   14394   14395   14403   14386   14396
   14397   14387   14396   14397   14398   14404   14405   14406   14415   14416
   14417   14418   14396   14397   14398   14406   14389   14390   14390       0
   14392   14399   14400   14407   14408   14409   14410   14419   14420   14421
   14422   14423   14424   14425   14426   14394   14401   14402   14403   14411
   14412   14413   14414   14427   14428   14429   14430   14431   14432   14433
   14434   14395   14401   14402   14403   14403   14397   14404   14405   14406
   14415   14416   14417   14418   14435   14436   14437   14438   14439   14440
   14441   14442   14398   14404   14405   14406   14406   14400   14407   14408
   14409   14410   14419   14420   14421   14422   14443   14444   14445   14407
   14408   14409   14410   14423   14424   14425   14426   14446   14447   14448
   14402   14411   14412   14413   14414   14427   14428   14429   14430   14449
   14450   14451   14411   14412   14413   14414   14431   14432   14433   14434
   14452   14453   14454       0   14405   14415   14416   14417   14418   14435
   14436   14437   14438   14455   14456   14457   14415   14416   14417   14418
   14439   14440   14441   14442   14458   14459   14460       0   14408   14419
   14420   14421   14422   14443   14444   14461   14419   14420   14421   14422
   14443   14445   14461   14410   14423   14424   14425   14426   14446   14447
   14462   14423   14424   14425   14426   14446   14448   14462   14412   14427
   14428   14429   14430   14449   14450   14463   14427   14428   14429   14430
   14450   14451   14463   14414   14431   14432   14433   14434   14452   14453
   14464   14431   14432   14433   14434   14452   14454   14464   14416   14435
   14436   14437   14438   14455   14456   14465   14435   14436   14437   14438
   14455   14457   14465   14418   14439   14440   14441   14442   14458   14459
   14466   14439   14440   14441   14442   14458   14460   14466   14420   14421
   14443   14444   14445   14461   14467   14443   14444   14422   14443   14444
   14445   14461   14467   14443   14445   14424   14446   14447   14426   14446
   14447   14448   14462   14468   14426   14446   14448   14446   14447   14448
   14462   14468   14428   14429   14449   14450   14451   14463   14469   14449
   14450   14430   14449   14450   14451   14463   14469   14450   14451   14432
   14433   14452   14453   14454   14464   14470   14452   14453   14434   14452
   14453   14454   14464   14470   14452   14454   14436   14437   14455   14456
   14457   14465   14471   14455   14456   14438   14455   14456   14457   14465
   14471   14455   14457   14440   14441   14458   14459   14460   14466   14472
   14458   14459   14442   14458   14459   14460   14466   14472   14458   14460
   14444   14445   14461   14467   14473   14474   14475   14461   14461   14447
   14448   14462   14468   14476   14477   14478   14462   14462   14450   14463
   14451   14463   14469   14479   14480   14481   14463   14453   14454   14464
   14470   14482   14483   14484   14464   14464   14456   14457   14465   14471
   14485   14486   14487   14465   14465   14459   14460   14466   14472   14488
   14489   14490   14466   14466   14467   14473   14474   14475   14468   14476
   14477   14478   14469   14479   14480   14481   14470   14482   14483   14484
   14471   14485   14486   14487   14472   14488   14489   14490   14473   14474
   14475   14476   14477   14478   14479   14480   14481   14482   14483   14484
   14485   14486   14487   14488   14489   14490   14474   14475   14475       0
   14477   14478   14478       0   14480   14481   14481       0   14483   14484
   14484       0   14486   14487   14487       0   14489   14490   14490       0
   14492   14493   14494   14495   14496   14497   14498   14499   14500   14501
   14502   14493   14494   14495   14496   14497   14498   14499   14500   14501
   14502   14503   14504   14505   14494   14495   14496   14497   14498   14495
   14499   14500   14501   14502   14503   14504   14506   14499   14500   14501
   14502   14503   14505   14506   14497   14498   14498       0   14500   14501
   14503   14504   14505   14506   14507   14508   14503   14504   14502   14503
   14504   14505   14506   14507   14508   14503   14505   14504   14505   14506
   14507   14508   14509   14510   14511   14512   14506   14506   14507   14508
   14509   14510   14511   14512   14513   14514   14515   14516   14517   14518
   14519   14520   14508   14509   14510   14511   14512   14513   14514   14515
   14516   14521   14522   14523   14509   14510   14511   14512   14517   14518
   14519   14520   14524   14525   14526   14510   14513   14514   14515   14516
   14521   14522   14527   14528   14529   14530   14513   14514   14515   14516
   14521   14523   14527   14512   14517   14518   14519   14520   14524   14525
   14531   14517   14518   14519   14520   14524   14526   14531   14514   14515
   14521   14522   14523   14527   14528   14529   14530   14532   14533   14534
   14535   14536   14537   14521   14522   14516   14521   14522   14523   14527
   14528   14532   14521   14523   14518   14519   14524   14525   14526   14531
   14538   14524   14525   14520   14524   14525   14526   14531   14538   14524
   14526   14522   14523   14527   14528   14529   14530   14532   14533   14539
   14540   14527   14528   14529   14530   14532   14533   14534   14535   14536
   14537   14541   14542   14543   14544   14545   14546   14547   14548   14527
   14525   14526   14531   14538   14549   14550   14551   14531   14531   14528
   14529   14530   14532   14533   14539   14540   14541   14542   14552   14529
   14530   14532   14533   14534   14535   14536   14537   14539   14540   14541
   14542   14553   14530   14533   14534   14535   14536   14537   14543   14544
   14545   14548   14554   14555   14556   14533   14534   14535   14536   14537
   14545   14546   14547   14548   14557   14558   14559   14538   14549   14550
   14551   14533   14539   14540   14541   14552   14553   14539   14541   14542
   14552   14553   14560   14561   14535   14537   14543   14544   14545   14554
   14555   14562   14563   14564   14536   14537   14543   14544   14545   14548
   14555   14556   14558   14559   14564   14537   14546   14547   14548   14557
   14558   14565   14566   14567   14545   14546   14547   14548   14555   14556
   14558   14559   14567   14549   14550   14551   14540   14541   14542   14552
   14553   14560   14561   14541   14552   14542   14552   14553   14560   14561
   14568   14569   14570   14571   14553   14544   14545   14554   14555   14556
   14562   14563   14564   14572   14573   14574   14575   14554   14555   14548
   14554   14555   14556   14564   14547   14557   14558   14548   14557   14558
   14559   14565   14566   14567   14576   14577   14578   14579   14557   14558
   14559   14567   14550   14551   14551       0   14553   14560   14561   14568
   14569   14570   14571   14580   14581   14582   14583   14584   14585   14586
   14587   14555   14562   14563   14564   14572   14573   14574   14575   14588
   14589   14590   14591   14592   14593   14594   14595   14556   14562   14563
   14564   14564   14558   14565   14566   14567   14576   14577   14578   14579
   14596   14597   14598   14599   14600   14601   14602   14603   14559   14565
   14566   14567   14567   14561   14568   14569   14570   14571   14580   14581
   14582   14583   14604   14605   14606   14568   14569   14570   14571   14584
   14585   14586   14587   14607   14608   14609   14563   14572   14573   14574
   14575   14588   14589   14590   14591   14610   14611   14612   14572   14573
   14574   14575   14592   14593   14594   14595   14613   14614   14615       0
   14566   14576   14577   14578   14579   14596   14597   14598   14599   14616
   14617   14618   14576   14577   14578   14579   14600   14601   14602   14603
   14619   14620   14621       0   14569   14580   14581   14582   14583   14604
   14605   14622   14580   14581   14582   14583   14604   14606   14622   14571
   14584   14585   14586   14587   14607   14608   14623   14584   14585   14586
   14587   14607   14609   14623   14573   14588   14589   14590   14591   14610
   14611   14624   14588   14589   14590   14591   14611   14612   14624   14575
   14592   14593   14594   14595   14613   14614   14625   14592   14593   14594
   14595   14613   14615   14625   14577   14596   14597   14598   14599   14616
   14617   14626   14596   14597   14598   14599   14616   14618   14626   14579
   14600   14601   14602   14603   14619   14620   14627   14600   14601   14602
   14603   14619   14621   14627   14581   14582   14604   14605   14606   14622
   14628   14604   14605   14583   14604   14605   14606   14622   14628   14604
   14606   14585   14607   14608   14587   14607   14608   14609   14623   14629
   14587   14607   14609   14607   14608   14609   14623   14629   14589   14590
   14610   14611   14612   14624   14630   14610   14611   14591   14610   14611
   14612   14624   14630   14611   14612   14593   14594   14613   14614   14615
   14625   14631   14613   14614   14595   14613   14614   14615   14625   14631
   14613   14615   14597   14598   14616   14617   14618   14626   14632   14616
   14617   14599   14616   14617   14618   14626   14632   14616   14618   14601
   14602   14619   14620   14621   14627   14633   14619   14620   14603   14619
   14620   14621   14627   14633   14619   14621   14605   14606   14622   14628
   14634   14635   14636   14622   14622   14608   14609   14623   14629   14637
   14638   14639   14623   14623   14611   14624   14612   14624   14630   14640
   14641   14642   14624   14614   14615   14625   14631   14643   14644   14645
   14625   14625   14617   14618   14626   14632   14646   14647   14648   14626
   14626   14620   14621   14627   14633   14649   14650   14651   14627   14627
   14628   14634   14635   14636   14629   14637   14638   14639   14630   14640
   14641   14642   14631   14643   14644   14645   14632   14646   14647   14648
   14633   14649   14650   14651   14634   14635   14636   14637   14638   14639
   14640   14641   14642   14643   14644   14645   14646   14647   14648   14649
   14650   14651   14635   14636   14636       0   14638   14639   14639       0
   14641   14642   14642       0   14644   14645   14645       0   14647   14648
   14648       0   14650   14651   14651       0   14653   14654   14655   14656
   14657   14658   14659   14660   14661   14662   14663   14654   14655   14656
   14657   14658   14659   14660   14661   14662   14663   14664   14665   14666
   14655   14656   14657   14658   14659   14656   14660   14661   14662   14663
   14664   14665   14667   14660   14661   14662   14663   14664   14666   14667
   14658   14659   14659       0   14661   14662   14664   14665   14666   14667
   14668   14669   14664   14665   14663   14664   14665   14666   14667   14668
   14669   14664   14666   14665   14666   14667   14668   14669   14670   14671
   14672   14673   14667   14667   14668   14669   14670   14671   14672   14673
   14674   14675   14676   14677   14678   14679   14680   14681   14669   14670
   14671   14672   14673   14674   14675   14676   14677   14682   14683   14684
   14670   14671   14672   14673   14678   14679   14680   14681   14685   14686
   14687   14671   14674   14675   14676   14677   14682   14683   14688   14689
   14690   14691   14674   14675   14676   14677   14682   14684   14688   14673
   14678   14679   14680   14681   14685   14686   14692   14678   14679   14680
   14681   14685   14687   14692   14675   14676   14682   14683   14684   14688
   14689   14690   14691   14693   14694   14695   14696   14697   14698   14682
   14683   14677   14682   14683   14684   14688   14689   14693   14682   14684
   14679   14680   14685   14686   14687   14692   14699   14685   14686   14681
   14685   14686   14687   14692   14699   14685   14687   14683   14684   14688
   14689   14690   14691   14693   14694   14700   14701   14688   14689   14690
   14691   14693   14694   14695   14696   14697   14698   14702   14703   14704
   14705   14706   14707   14708   14709   14688   14686   14687   14692   14699
   14710   14711   14712   14692   14692   14689   14690   14691   14693   14694
   14700   14701   14702   14703   14713   14690   14691   14693   14694   14695
   14696   14697   14698   14700   14701   14702   14703   14714   14691   14694
   14695   14696   14697   14698   14704   14705   14706   14709   14715   14716
   14717   14694   14695   14696   14697   14698   14706   14707   14708   14709
   14718   14719   14720   14699   14710   14711   14712   14694   14700   14701
   14702   14713   14714   14700   14702   14703   14713   14714   14721   14722
   14696   14698   14704   14705   14706   14715   14716   14723   14724   14725
   14697   14698   14704   14705   14706   14709   14716   14717   14719   14720
   14725   14698   14707   14708   14709   14718   14719   14726   14727   14728
   14706   14707   14708   14709   14716   14717   14719   14720   14728   14710
   14711   14712   14701   14702   14703   14713   14714   14721   14722   14702
   14713   14703   14713   14714   14721   14722   14729   14730   14731   14732
   14714   14705   14706   14715   14716   14717   14723   14724   14725   14733
   14734   14735   14736   14715   14716   14709   14715   14716   14717   14725
   14708   14718   14719   14709   14718   14719   14720   14726   14727   14728
   14737   14738   14739   14740   14718   14719   14720   14728   14711   14712
   14712       0   14714   14721   14722   14729   14730   14731   14732   14741
   14742   14743   14744   14745   14746   14747   14748   14716   14723   14724
   14725   14733   14734   14735   14736   14749   14750   14751   14752   14753
   14754   14755   14756   14717   14723   14724   14725   14725   14719   14726
   14727   14728   14737   14738   14739   14740   14757   14758   14759   14760
   14761   14762   14763   14764   14720   14726   14727   14728   14728   14722
   14729   14730   14731   14732   14741   14742   14743   14744   14765   14766
   14767   14729   14730   14731   14732   14745   14746   14747   14748   14768
   14769   14770   14724   14733   14734   14735   14736   14749   14750   14751
   14752   14771   14772   14773   14733   14734   14735   14736   14753   14754
   14755   14756   14774   14775   14776       0   14727   14737   14738   14739
   14740   14757   14758   14759   14760   14777   14778   14779   14737   14738
   14739   14740   14761   14762   14763   14764   14780   14781   14782       0
   14730   14741   14742   14743   14744   14765   14766   14783   14741   14742
   14743   14744   14765   14767   14783   14732   14745   14746   14747   14748
   14768   14769   14784   14745   14746   14747   14748   14768   14770   14784
   14734   14749   14750   14751   14752   14771   14772   14785   14749   14750
   14751   14752   14772   14773   14785   14736   14753   14754   14755   14756
   14774   14775   14786   14753   14754   14755   14756   14774   14776   14786
   14738   14757   14758   14759   14760   14777   14778   14787   14757   14758
   14759   14760   14777   14779   14787   14740   14761   14762   14763   14764
   14780   14781   14788   14761   14762   14763   14764   14780   14782   14788
   14742   14743   14765   14766   14767   14783   14789   14765   14766   14744
   14765   14766   14767   14783   14789   14765   14767   14746   14768   14769
   14748   14768   14769   14770   14784   14790   14748   14768   14770   14768
   14769   14770   14784   14790   14750   14751   14771   14772   14773   14785
   14791   14771   14772   14752   14771   14772   14773   14785   14791   14772
   14773   14754   14755   14774   14775   14776   14786   14792   14774   14775
   14756   14774   14775   14776   14786   14792   14774   14776   14758   14759
   14777   14778   14779   14787   14793   14777   14778   14760   14777   14778
   14779   14787   14793   14777   14779   14762   14763   14780   14781   14782
   14788   14794   14780   14781   14764   14780   14781   14782   14788   14794
   14780   14782   14766   14767   14783   14789   14795   14796   14797   14783
   14783   14769   14770   14784   14790   14798   14799   14800   14784   14784
   14772   14785   14773   14785   14791   14801   14802   14803   14785   14775
   14776   14786   14792   14804   14805   14806   14786   14786   14778   14779
   14787   14793   14807   14808   14809   14787   14787   14781   14782   14788
   14794   14810   14811   14812   14788   14788   14789   14795   14796   14797
   14790   14798   14799   14800   14791   14801   14802   14803   14792   14804
   14805   14806   14793   14807   14808   14809   14794   14810   14811   14812
   14795   14796   14797   14798   14799   14800   14801   14802   14803   14804
   14805   14806   14807   14808   14809   14810   14811   14812   14796   14797
   14797       0   14799   14800   14800       0   14802   14803   14803       0
   14805   14806   14806       0   14808   14809   14809       0   14811   14812
   14812       0   14814   14815   14816   14817   14818   14819   14820   14821
   14822   14823   14824   14815   14816   14817   14818   14819   14820   14821
   14822   14823   14824   14825   14826   14827   14816   14817   14818   14819
   14820   14817   14821   14822   14823   14824   14825   14826   14828   14821
   14822   14823   14824   14825   14827   14828   14819   14820   14820       0
   14822   14823   14825   14826   14827   14828   14829   14830   14825   14826
   14824   14825   14826   14827   14828   14829   14830   14825   14827   14826
   14827   14828   14829   14830   14831   14832   14833   14834   14828   14828
   14829   14830   14831   14832   14833   14834   14835   14836   14837   14838
   14839   14840   14841   14842   14830   14831   14832   14833   14834   14835
   14836   14837   14838   14843   14844   14845   14831   14832   14833   14834
   14839   14840   14841   14842   14846   14847   14848   14832   14835   14836
   14837   14838   14843   14844   14849   14850   14851   14852   14835   14836
   14837   14838   14843   14845   14849   14834   14839   14840   14841   14842
   14846   14847   14853   14839   14840   14841   14842   14846   14848   14853
   14836   14837   14843   14844   14845   14849   14850   14851   14852   14854
   14855   14856   14857   14858   14859   14843   14844   14838   14843   14844
   14845   14849   14850   14854   14843   14845   14840   14841   14846   14847
   14848   14853   14860   14846   14847   14842   14846   14847   14848   14853
   14860   14846   14848   14844   14845   14849   14850   14851   14852   14854
   14855   14861   14862   14849   14850   14851   14852   14854   14855   14856
   14857   14858   14859   14863   14864   14865   14866   14867   14868   14869
   14870   14849   14847   14848   14853   14860   14871   14872   14873   14853
   14853   14850   14851   14852   14854   14855   14861   14862   14863   14864
   14874   14851   14852   14854   14855   14856   14857   14858   14859   14861
   14862   14863   14864   14875   14852   14855   14856   14857   14858   14859
   14865   14866   14867   14870   14876   14877   14878   14855   14856   14857
   14858   14859   14867   14868   14869   14870   14879   14880   14881   14860
   14871   14872   14873   14855   14861   14862   14863   14874   14875   14861
   14863   14864   14874   14875   14882   14883   14857   14859   14865   14866
   14867   14876   14877   14884   14885   14886   14858   14859   14865   14866
   14867   14870   14877   14878   14880   14881   14886   14859   14868   14869
   14870   14879   14880   14887   14888   14889   14867   14868   14869   14870
   14877   14878   14880   14881   14889   14871   14872   14873   14862   14863
   14864   14874   14875   14882   14883   14863   14874   14864   14874   14875
   14882   14883   14890   14891   14892   14893   14875   14866   14867   14876
   14877   14878   14884   14885   14886   14894   14895   14896   14897   14876
   14877   14870   14876   14877   14878   14886   14869   14879   14880   14870
   14879   14880   14881   14887   14888   14889   14898   14899   14900   14901
   14879   14880   14881   14889   14872   14873   14873       0   14875   14882
   14883   14890   14891   14892   14893   14902   14903   14904   14905   14906
   14907   14908   14909   14877   14884   14885   14886   14894   14895   14896
   14897   14910   14911   14912   14913   14914   14915   14916   14917   14878
   14884   14885   14886   14886   14880   14887   14888   14889   14898   14899
   14900   14901   14918   14919   14920   14921   14922   14923   14924   14925
   14881   14887   14888   14889   14889   14883   14890   14891   14892   14893
   14902   14903   14904   14905   14926   14927   14928   14890   14891   14892
   14893   14906   14907   14908   14909   14929   14930   14931   14885   14894
   14895   14896   14897   14910   14911   14912   14913   14932   14933   14934
   14894   14895   14896   14897   14914   14915   14916   14917   14935   14936
   14937       0   14888   14898   14899   14900   14901   14918   14919   14920
   14921   14938   14939   14940   14898   14899   14900   14901   14922   14923
   14924   14925   14941   14942   14943       0   14891   14902   14903   14904
   14905   14926   14927   14944   14902   14903   14904   14905   14926   14928
   14944   14893   14906   14907   14908   14909   14929   14930   14945   14906
   14907   14908   14909   14929   14931   14945   14895   14910   14911   14912
   14913   14932   14933   14946   14910   14911   14912   14913   14933   14934
   14946   14897   14914   14915   14916   14917   14935   14936   14947   14914
   14915   14916   14917   14935   14937   14947   14899   14918   14919   14920
   14921   14938   14939   14948   14918   14919   14920   14921   14938   14940
   14948   14901   14922   14923   14924   14925   14941   14942   14949   14922
   14923   14924   14925   14941   14943   14949   14903   14904   14926   14927
   14928   14944   14950   14926   14927   14905   14926   14927   14928   14944
   14950   14926   14928   14907   14929   14930   14909   14929   14930   14931
   14945   14951   14909   14929   14931   14929   14930   14931   14945   14951
   14911   14912   14932   14933   14934   14946   14952   14932   14933   14913
   14932   14933   14934   14946   14952   14933   14934   14915   14916   14935
   14936   14937   14947   14953   14935   14936   14917   14935   14936   14937
   14947   14953   14935   14937   14919   14920   14938   14939   14940   14948
   14954   14938   14939   14921   14938   14939   14940   14948   14954   14938
   14940   14923   14924   14941   14942   14943   14949   14955   14941   14942
   14925   14941   14942   14943   14949   14955   14941   14943   14927   14928
   14944   14950   14956   14957   14958   14944   14944   14930   14931   14945
   14951   14959   14960   14961   14945   14945   14933   14946   14934   14946
   14952   14962   14963   14964   14946   14936   14937   14947   14953   14965
   14966   14967   14947   14947   14939   14940   14948   14954   14968   14969
   14970   14948   14948   14942   14943   14949   14955   14971   14972   14973
   14949   14949   14950   14956   14957   14958   14951   14959   14960   14961
   14952   14962   14963   14964   14953   14965   14966   14967   14954   14968
   14969   14970   14955   14971   14972   14973   14956   14957   14958   14959
   14960   14961   14962   14963   14964   14965   14966   14967   14968   14969
   14970   14971   14972   14973   14957   14958   14958       0   14960   14961
   14961       0   14963   14964   14964       0   14966   14967   14967       0
   14969   14970   14970       0   14972   14973   14973       0   14975   14976
   14977   14978   14979   14980   14981   14982   14983   14984   14985   14976
   14977   14978   14979   14980   14981   14982   14983   14984   14985   14986
   14987   14988   14977   14978   14979   14980   14981   14978   14982   14983
   14984   14985   14986   14987   14989   14982   14983   14984   14985   14986
   14988   14989   14980   14981   14981       0   14983   14984   14986   14987
   14988   14989   14990   14991   14986   14987   14985   14986   14987   14988
   14989   14990   14991   14986   14988   14987   14988   14989   14990   14991
   14992   14993   14994   14995   14989   14989   14990   14991   14992   14993
   14994   14995   14996   14997   14998   14999   15000   15001   15002   15003
   14991   14992   14993   14994   14995   14996   14997   14998   14999   15004
   15005   15006   14992   14993   14994   14995   15000   15001   15002   15003
   15007   15008   15009   14993   14996   14997   14998   14999   15004   15005
   15010   15011   15012   15013   14996   14997   14998   14999   15004   15006
   15010   14995   15000   15001   15002   15003   15007   15008   15014   15000
   15001   15002   15003   15007   15009   15014   14997   14998   15004   15005
   15006   15010   15011   15012   15013   15015   15016   15017   15018   15019
   15020   15004   15005   14999   15004   15005   15006   15010   15011   15015
   15004   15006   15001   15002   15007   15008   15009   15014   15021   15007
   15008   15003   15007   15008   15009   15014   15021   15007   15009   15005
   15006   15010   15011   15012   15013   15015   15016   15022   15023   15010
   15011   15012   15013   15015   15016   15017   15018   15019   15020   15024
   15025   15026   15027   15028   15029   15030   15031   15010   15008   15009
   15014   15021   15032   15033   15034   15014   15014   15011   15012   15013
   15015   15016   15022   15023   15024   15025   15035   15012   15013   15015
   15016   15017   15018   15019   15020   15022   15023   15024   15025   15036
   15013   15016   15017   15018   15019   15020   15026   15027   15028   15031
   15037   15038   15039   15016   15017   15018   15019   15020   15028   15029
   15030   15031   15040   15041   15042   15021   15032   15033   15034   15016
   15022   15023   15024   15035   15036   15022   15024   15025   15035   15036
   15043   15044   15018   15020   15026   15027   15028   15037   15038   15045
   15046   15047   15019   15020   15026   15027   15028   15031   15038   15039
   15041   15042   15047   15020   15029   15030   15031   15040   15041   15048
   15049   15050   15028   15029   15030   15031   15038   15039   15041   15042
   15050   15032   15033   15034   15023   15024   15025   15035   15036   15043
   15044   15024   15035   15025   15035   15036   15043   15044   15051   15052
   15053   15054   15036   15027   15028   15037   15038   15039   15045   15046
   15047   15055   15056   15057   15058   15037   15038   15031   15037   15038
   15039   15047   15030   15040   15041   15031   15040   15041   15042   15048
   15049   15050   15059   15060   15061   15062   15040   15041   15042   15050
   15033   15034   15034       0   15036   15043   15044   15051   15052   15053
   15054   15063   15064   15065   15066   15067   15068   15069   15070   15038
   15045   15046   15047   15055   15056   15057   15058   15071   15072   15073
   15074   15075   15076   15077   15078   15039   15045   15046   15047   15047
   15041   15048   15049   15050   15059   15060   15061   15062   15079   15080
   15081   15082   15083   15084   15085   15086   15042   15048   15049   15050
   15050   15044   15051   15052   15053   15054   15063   15064   15065   15066
   15087   15088   15089   15051   15052   15053   15054   15067   15068   15069
   15070   15090   15091   15092   15046   15055   15056   15057   15058   15071
   15072   15073   15074   15093   15094   15095   15055   15056   15057   15058
   15075   15076   15077   15078   15096   15097   15098       0   15049   15059
   15060   15061   15062   15079   15080   15081   15082   15099   15100   15101
   15059   15060   15061   15062   15083   15084   15085   15086   15102   15103
   15104       0   15052   15063   15064   15065   15066   15087   15088   15105
   15063   15064   15065   15066   15087   15089   15105   15054   15067   15068
   15069   15070   15090   15091   15106   15067   15068   15069   15070   15090
   15092   15106   15056   15071   15072   15073   15074   15093   15094   15107
   15071   15072   15073   15074   15094   15095   15107   15058   15075   15076
   15077   15078   15096   15097   15108   15075   15076   15077   15078   15096
   15098   15108   15060   15079   15080   15081   15082   15099   15100   15109
   15079   15080   15081   15082   15099   15101   15109   15062   15083   15084
   15085   15086   15102   15103   15110   15083   15084   15085   15086   15102
   15104   15110   15064   15065   15087   15088   15089   15105   15111   15087
   15088   15066   15087   15088   15089   15105   15111   15087   15089   15068
   15090   15091   15070   15090   15091   15092   15106   15112   15070   15090
   15092   15090   15091   15092   15106   15112   15072   15073   15093   15094
   15095   15107   15113   15093   15094   15074   15093   15094   15095   15107
   15113   15094   15095   15076   15077   15096   15097   15098   15108   15114
   15096   15097   15078   15096   15097   15098   15108   15114   15096   15098
   15080   15081   15099   15100   15101   15109   15115   15099   15100   15082
   15099   15100   15101   15109   15115   15099   15101   15084   15085   15102
   15103   15104   15110   15116   15102   15103   15086   15102   15103   15104
   15110   15116   15102   15104   15088   15089   15105   15111   15117   15118
   15119   15105   15105   15091   15092   15106   15112   15120   15121   15122
   15106   15106   15094   15107   15095   15107   15113   15123   15124   15125
   15107   15097   15098   15108   15114   15126   15127   15128   15108   15108
   15100   15101   15109   15115   15129   15130   15131   15109   15109   15103
   15104   15110   15116   15132   15133   15134   15110   15110   15111   15117
   15118   15119   15112   15120   15121   15122   15113   15123   15124   15125
   15114   15126   15127   15128   15115   15129   15130   15131   15116   15132
   15133   15134   15117   15118   15119   15120   15121   15122   15123   15124
   15125   15126   15127   15128   15129   15130   15131   15132   15133   15134
   15118   15119   15119       0   15121   15122   15122       0   15124   15125
   15125       0   15127   15128   15128       0   15130   15131   15131       0
   15133   15134   15134       0   15136   15137   15138   15139   15140   15141
   15142   15143   15144   15145   15146   15137   15138   15139   15140   15141
   15142   15143   15144   15145   15146   15147   15148   15149   15138   15139
   15140   15141   15142   15139   15143   15144   15145   15146   15147   15148
   15150   15143   15144   15145   15146   15147   15149   15150   15141   15142
   15142       0   15144   15145   15147   15148   15149   15150   15151   15152
   15147   15148   15146   15147   15148   15149   15150   15151   15152   15147
   15149   15148   15149   15150   15151   15152   15153   15154   15155   15156
   15150   15150   15151   15152   15153   15154   15155   15156   15157   15158
   15159   15160   15161   15162   15163   15164   15152   15153   15154   15155
   15156   15157   15158   15159   15160   15165   15166   15167   15153   15154
   15155   15156   15161   15162   15163   15164   15168   15169   15170   15154
   15157   15158   15159   15160   15165   15166   15171   15172   15173   15174
   15157   15158   15159   15160   15165   15167   15171   15156   15161   15162
   15163   15164   15168   15169   15175   15161   15162   15163   15164   15168
   15170   15175   15158   15159   15165   15166   15167   15171   15172   15173
   15174   15176   15177   15178   15179   15180   15181   15165   15166   15160
   15165   15166   15167   15171   15172   15176   15165   15167   15162   15163
   15168   15169   15170   15175   15182   15168   15169   15164   15168   15169
   15170   15175   15182   15168   15170   15166   15167   15171   15172   15173
   15174   15176   15177   15183   15184   15171   15172   15173   15174   15176
   15177   15178   15179   15180   15181   15185   15186   15187   15188   15189
   15190   15191   15192   15171   15169   15170   15175   15182   15193   15194
   15195   15175   15175   15172   15173   15174   15176   15177   15183   15184
   15185   15186   15196   15173   15174   15176   15177   15178   15179   15180
   15181   15183   15184   15185   15186   15197   15174   15177   15178   15179
   15180   15181   15187   15188   15189   15192   15198   15199   15200   15177
   15178   15179   15180   15181   15189   15190   15191   15192   15201   15202
   15203   15182   15193   15194   15195   15177   15183   15184   15185   15196
   15197   15183   15185   15186   15196   15197   15204   15205   15179   15181
   15187   15188   15189   15198   15199   15206   15207   15208   15180   15181
   15187   15188   15189   15192   15199   15200   15202   15203   15208   15181
   15190   15191   15192   15201   15202   15209   15210   15211   15189   15190
   15191   15192   15199   15200   15202   15203   15211   15193   15194   15195
   15184   15185   15186   15196   15197   15204   15205   15185   15196   15186
   15196   15197   15204   15205   15212   15213   15214   15215   15197   15188
   15189   15198   15199   15200   15206   15207   15208   15216   15217   15218
   15219   15198   15199   15192   15198   15199   15200   15208   15191   15201
   15202   15192   15201   15202   15203   15209   15210   15211   15220   15221
   15222   15223   15201   15202   15203   15211   15194   15195   15195       0
   15197   15204   15205   15212   15213   15214   15215   15224   15225   15226
   15227   15228   15229   15230   15231   15199   15206   15207   15208   15216
   15217   15218   15219   15232   15233   15234   15235   15236   15237   15238
   15239   15200   15206   15207   15208   15208   15202   15209   15210   15211
   15220   15221   15222   15223   15240   15241   15242   15243   15244   15245
   15246   15247   15203   15209   15210   15211   15211   15205   15212   15213
   15214   15215   15224   15225   15226   15227   15248   15249   15250   15212
   15213   15214   15215   15228   15229   15230   15231   15251   15252   15253
   15207   15216   15217   15218   15219   15232   15233   15234   15235   15254
   15255   15256   15216   15217   15218   15219   15236   15237   15238   15239
   15257   15258   15259       0   15210   15220   15221   15222   15223   15240
   15241   15242   15243   15260   15261   15262   15220   15221   15222   15223
   15244   15245   15246   15247   15263   15264   15265       0   15213   15224
   15225   15226   15227   15248   15249   15266   15224   15225   15226   15227
   15248   15250   15266   15215   15228   15229   15230   15231   15251   15252
   15267   15228   15229   15230   15231   15251   15253   15267   15217   15232
   15233   15234   15235   15254   15255   15268   15232   15233   15234   15235
   15255   15256   15268   15219   15236   15237   15238   15239   15257   15258
   15269   15236   15237   15238   15239   15257   15259   15269   15221   15240
   15241   15242   15243   15260   15261   15270   15240   15241   15242   15243
   15260   15262   15270   15223   15244   15245   15246   15247   15263   15264
   15271   15244   15245   15246   15247   15263   15265   15271   15225   15226
   15248   15249   15250   15266   15272   15248   15249   15227   15248   15249
   15250   15266   15272   15248   15250   15229   15251   15252   15231   15251
   15252   15253   15267   15273   15231   15251   15253   15251   15252   15253
   15267   15273   15233   15234   15254   15255   15256   15268   15274   15254
   15255   15235   15254   15255   15256   15268   15274   15255   15256   15237
   15238   15257   15258   15259   15269   15275   15257   15258   15239   15257
   15258   15259   15269   15275   15257   15259   15241   15242   15260   15261
   15262   15270   15276   15260   15261   15243   15260   15261   15262   15270
   15276   15260   15262   15245   15246   15263   15264   15265   15271   15277
   15263   15264   15247   15263   15264   15265   15271   15277   15263   15265
   15249   15250   15266   15272   15278   15279   15280   15266   15266   15252
   15253   15267   15273   15281   15282   15283   15267   15267   15255   15268
   15256   15268   15274   15284   15285   15286   15268   15258   15259   15269
   15275   15287   15288   15289   15269   15269   15261   15262   15270   15276
   15290   15291   15292   15270   15270   15264   15265   15271   15277   15293
   15294   15295   15271   15271   15272   15278   15279   15280   15273   15281
   15282   15283   15274   15284   15285   15286   15275   15287   15288   15289
   15276   15290   15291   15292   15277   15293   15294   15295   15278   15279
   15280   15281   15282   15283   15284   15285   15286   15287   15288   15289
   15290   15291   15292   15293   15294   15295   15279   15280   15280       0
   15282   15283   15283       0   15285   15286   15286       0   15288   15289
   15289       0   15291   15292   15292       0   15294   15295   15295       0
   15297   15298   15299   15300   15301   15302   15303   15304   15305   15306
   15307   15298   15299   15300   15301   15302   15303   15304   15305   15306
   15307   15308   15309   15310   15299   15300   15301   15302   15303   15300
   15304   15305   15306   15307   15308   15309   15311   15304   15305   15306
   15307   15308   15310   15311   15302   15303   15303       0   15305   15306
   15308   15309   15310   15311   15312   15313   15308   15309   15307   15308
   15309   15310   15311   15312   15313   15308   15310   15309   15310   15311
   15312   15313   15314   15315   15316   15317   15311   15311   15312   15313
   15314   15315   15316   15317   15318   15319   15320   15321   15322   15323
   15324   15325   15313   15314   15315   15316   15317   15318   15319   15320
   15321   15326   15327   15328   15314   15315   15316   15317   15322   15323
   15324   15325   15329   15330   15331   15315   15318   15319   15320   15321
   15326   15327   15332   15333   15334   15335   15318   15319   15320   15321
   15326   15328   15332   15317   15322   15323   15324   15325   15329   15330
   15336   15322   15323   15324   15325   15329   15331   15336   15319   15320
   15326   15327   15328   15332   15333   15334   15335   15337   15338   15339
   15340   15341   15342   15326   15327   15321   15326   15327   15328   15332
   15333   15337   15326   15328   15323   15324   15329   15330   15331   15336
   15343   15329   15330   15325   15329   15330   15331   15336   15343   15329
   15331   15327   15328   15332   15333   15334   15335   15337   15338   15344
   15345   15332   15333   15334   15335   15337   15338   15339   15340   15341
   15342   15346   15347   15348   15349   15350   15351   15352   15353   15332
   15330   15331   15336   15343   15354   15355   15356   15336   15336   15333
   15334   15335   15337   15338   15344   15345   15346   15347   15357   15334
   15335   15337   15338   15339   15340   15341   15342   15344   15345   15346
   15347   15358   15335   15338   15339   15340   15341   15342   15348   15349
   15350   15353   15359   15360   15361   15338   15339   15340   15341   15342
   15350   15351   15352   15353   15362   15363   15364   15343   15354   15355
   15356   15338   15344   15345   15346   15357   15358   15344   15346   15347
   15357   15358   15365   15366   15340   15342   15348   15349   15350   15359
   15360   15367   15368   15369   15341   15342   15348   15349   15350   15353
   15360   15361   15363   15364   15369   15342   15351   15352   15353   15362
   15363   15370   15371   15372   15350   15351   15352   15353   15360   15361
   15363   15364   15372   15354   15355   15356   15345   15346   15347   15357
   15358   15365   15366   15346   15357   15347   15357   15358   15365   15366
   15373   15374   15375   15376   15358   15349   15350   15359   15360   15361
   15367   15368   15369   15377   15378   15379   15380   15359   15360   15353
   15359   15360   15361   15369   15352   15362   15363   15353   15362   15363
   15364   15370   15371   15372   15381   15382   15383   15384   15362   15363
   15364   15372   15355   15356   15356       0   15358   15365   15366   15373
   15374   15375   15376   15385   15386   15387   15388   15389   15390   15391
   15392   15360   15367   15368   15369   15377   15378   15379   15380   15393
   15394   15395   15396   15397   15398   15399   15400   15361   15367   15368
   15369   15369   15363   15370   15371   15372   15381   15382   15383   15384
   15401   15402   15403   15404   15405   15406   15407   15408   15364   15370
   15371   15372   15372   15366   15373   15374   15375   15376   15385   15386
   15387   15388   15409   15410   15411   15373   15374   15375   15376   15389
   15390   15391   15392   15412   15413   15414   15368   15377   15378   15379
   15380   15393   15394   15395   15396   15415   15416   15417   15377   15378
   15379   15380   15397   15398   15399   15400   15418   15419   15420       0
   15371   15381   15382   15383   15384   15401   15402   15403   15404   15421
   15422   15423   15381   15382   15383   15384   15405   15406   15407   15408
   15424   15425   15426       0   15374   15385   15386   15387   15388   15409
   15410   15427   15385   15386   15387   15388   15409   15411   15427   15376
   15389   15390   15391   15392   15412   15413   15428   15389   15390   15391
   15392   15412   15414   15428   15378   15393   15394   15395   15396   15415
   15416   15429   15393   15394   15395   15396   15416   15417   15429   15380
   15397   15398   15399   15400   15418   15419   15430   15397   15398   15399
   15400   15418   15420   15430   15382   15401   15402   15403   15404   15421
   15422   15431   15401   15402   15403   15404   15421   15423   15431   15384
   15405   15406   15407   15408   15424   15425   15432   15405   15406   15407
   15408   15424   15426   15432   15386   15387   15409   15410   15411   15427
   15433   15409   15410   15388   15409   15410   15411   15427   15433   15409
   15411   15390   15412   15413   15392   15412   15413   15414   15428   15434
   15392   15412   15414   15412   15413   15414   15428   15434   15394   15395
   15415   15416   15417   15429   15435   15415   15416   15396   15415   15416
   15417   15429   15435   15416   15417   15398   15399   15418   15419   15420
   15430   15436   15418   15419   15400   15418   15419   15420   15430   15436
   15418   15420   15402   15403   15421   15422   15423   15431   15437   15421
   15422   15404   15421   15422   15423   15431   15437   15421   15423   15406
   15407   15424   15425   15426   15432   15438   15424   15425   15408   15424
   15425   15426   15432   15438   15424   15426   15410   15411   15427   15433
   15439   15440   15441   15427   15427   15413   15414   15428   15434   15442
   15443   15444   15428   15428   15416   15429   15417   15429   15435   15445
   15446   15447   15429   15419   15420   15430   15436   15448   15449   15450
   15430   15430   15422   15423   15431   15437   15451   15452   15453   15431
   15431   15425   15426   15432   15438   15454   15455   15456   15432   15432
   15433   15439   15440   15441   15434   15442   15443   15444   15435   15445
   15446   15447   15436   15448   15449   15450   15437   15451   15452   15453
   15438   15454   15455   15456   15439   15440   15441   15442   15443   15444
   15445   15446   15447   15448   15449   15450   15451   15452   15453   15454
   15455   15456   15440   15441   15441       0   15443   15444   15444       0
   15446   15447   15447       0   15449   15450   15450       0   15452   15453
   15453       0   15455   15456   15456       0   15458   15459   15460   15461
   15462   15463   15464   15465   15466   15467   15468   15459   15460   15461
   15462   15463   15464   15465   15466   15467   15468   15469   15470   15471
   15460   15461   15462   15463   15464   15461   15465   15466   15467   15468
   15469   15470   15472   15465   15466   15467   15468   15469   15471   15472
   15463   15464   15464       0   15466   15467   15469   15470   15471   15472
   15473   15474   15469   15470   15468   15469   15470   15471   15472   15473
   15474   15469   15471   15470   15471   15472   15473   15474   15475   15476
   15477   15478   15472   15472   15473   15474   15475   15476   15477   15478
   15479   15480   15481   15482   15483   15484   15485   15486   15474   15475
   15476   15477   15478   15479   15480   15481   15482   15487   15488   15489
   15475   15476   15477   15478   15483   15484   15485   15486   15490   15491
   15492   15476   15479   15480   15481   15482   15487   15488   15493   15494
   15495   15496   15479   15480   15481   15482   15487   15489   15493   15478
   15483   15484   15485   15486   15490   15491   15497   15483   15484   15485
   15486   15490   15492   15497   15480   15481   15487   15488   15489   15493
   15494   15495   15496   15498   15499   15500   15501   15502   15503   15487
   15488   15482   15487   15488   15489   15493   15494   15498   15487   15489
   15484   15485   15490   15491   15492   15497   15504   15490   15491   15486
   15490   15491   15492   15497   15504   15490   15492   15488   15489   15493
   15494   15495   15496   15498   15499   15505   15506   15493   15494   15495
   15496   15498   15499   15500   15501   15502   15503   15507   15508   15509
   15510   15511   15512   15513   15514   15493   15491   15492   15497   15504
   15515   15516   15517   15497   15497   15494   15495   15496   15498   15499
   15505   15506   15507   15508   15518   15495   15496   15498   15499   15500
   15501   15502   15503   15505   15506   15507   15508   15519   15496   15499
   15500   15501   15502   15503   15509   15510   15511   15514   15520   15521
   15522   15499   15500   15501   15502   15503   15511   15512   15513   15514
   15523   15524   15525   15504   15515   15516   15517   15499   15505   15506
   15507   15518   15519   15505   15507   15508   15518   15519   15526   15527
   15501   15503   15509   15510   15511   15520   15521   15528   15529   15530
   15502   15503   15509   15510   15511   15514   15521   15522   15524   15525
   15530   15503   15512   15513   15514   15523   15524   15531   15532   15533
   15511   15512   15513   15514   15521   15522   15524   15525   15533   15515
   15516   15517   15506   15507   15508   15518   15519   15526   15527   15507
   15518   15508   15518   15519   15526   15527   15534   15535   15536   15537
   15519   15510   15511   15520   15521   15522   15528   15529   15530   15538
   15539   15540   15541   15520   15521   15514   15520   15521   15522   15530
   15513   15523   15524   15514   15523   15524   15525   15531   15532   15533
   15542   15543   15544   15545   15523   15524   15525   15533   15516   15517
   15517       0   15519   15526   15527   15534   15535   15536   15537   15546
   15547   15548   15549   15550   15551   15552   15553   15521   15528   15529
   15530   15538   15539   15540   15541   15554   15555   15556   15557   15558
   15559   15560   15561   15522   15528   15529   15530   15530   15524   15531
   15532   15533   15542   15543   15544   15545   15562   15563   15564   15565
   15566   15567   15568   15569   15525   15531   15532   15533   15533   15527
   15534   15535   15536   15537   15546   15547   15548   15549   15570   15571
   15572   15534   15535   15536   15537   15550   15551   15552   15553   15573
   15574   15575   15529   15538   15539   15540   15541   15554   15555   15556
   15557   15576   15577   15578   15538   15539   15540   15541   15558   15559
   15560   15561   15579   15580   15581       0   15532   15542   15543   15544
   15545   15562   15563   15564   15565   15582   15583   15584   15542   15543
   15544   15545   15566   15567   15568   15569   15585   15586   15587       0
   15535   15546   15547   15548   15549   15570   15571   15588   15546   15547
   15548   15549   15570   15572   15588   15537   15550   15551   15552   15553
   15573   15574   15589   15550   15551   15552   15553   15573   15575   15589
   15539   15554   15555   15556   15557   15576   15577   15590   15554   15555
   15556   15557   15577   15578   15590   15541   15558   15559   15560   15561
   15579   15580   15591   15558   15559   15560   15561   15579   15581   15591
   15543   15562   15563   15564   15565   15582   15583   15592   15562   15563
   15564   15565   15582   15584   15592   15545   15566   15567   15568   15569
   15585   15586   15593   15566   15567   15568   15569   15585   15587   15593
   15547   15548   15570   15571   15572   15588   15594   15570   15571   15549
   15570   15571   15572   15588   15594   15570   15572   15551   15573   15574
   15553   15573   15574   15575   15589   15595   15553   15573   15575   15573
   15574   15575   15589   15595   15555   15556   15576   15577   15578   15590
   15596   15576   15577   15557   15576   15577   15578   15590   15596   15577
   15578   15559   15560   15579   15580   15581   15591   15597   15579   15580
   15561   15579   15580   15581   15591   15597   15579   15581   15563   15564
   15582   15583   15584   15592   15598   15582   15583   15565   15582   15583
   15584   15592   15598   15582   15584   15567   15568   15585   15586   15587
   15593   15599   15585   15586   15569   15585   15586   15587   15593   15599
   15585   15587   15571   15572   15588   15594   15600   15601   15602   15588
   15588   15574   15575   15589   15595   15603   15604   15605   15589   15589
   15577   15590   15578   15590   15596   15606   15607   15608   15590   15580
   15581   15591   15597   15609   15610   15611   15591   15591   15583   15584
   15592   15598   15612   15613   15614   15592   15592   15586   15587   15593
   15599   15615   15616   15617   15593   15593   15594   15600   15601   15602
   15595   15603   15604   15605   15596   15606   15607   15608   15597   15609
   15610   15611   15598   15612   15613   15614   15599   15615   15616   15617
   15600   15601   15602   15603   15604   15605   15606   15607   15608   15609
   15610   15611   15612   15613   15614   15615   15616   15617   15601   15602
   15602       0   15604   15605   15605       0   15607   15608   15608       0
   15610   15611   15611       0   15613   15614   15614       0   15616   15617
   15617       0   15619   15620   15621   15622   15623   15624   15625   15626
   15627   15628   15629   15620   15621   15622   15623   15624   15625   15626
   15627   15628   15629   15630   15631   15632   15621   15622   15623   15624
   15625   15622   15626   15627   15628   15629   15630   15631   15633   15626
   15627   15628   15629   15630   15632   15633   15624   15625   15625       0
   15627   15628   15630   15631   15632   15633   15634   15635   15630   15631
   15629   15630   15631   15632   15633   15634   15635   15630   15632   15631
   15632   15633   15634   15635   15636   15637   15638   15639   15633   15633
   15634   15635   15636   15637   15638   15639   15640   15641   15642   15643
   15644   15645   15646   15647   15635   15636   15637   15638   15639   15640
   15641   15642   15643   15648   15649   15650   15636   15637   15638   15639
   15644   15645   15646   15647   15651   15652   15653   15637   15640   15641
   15642   15643   15648   15649   15654   15655   15656   15657   15640   15641
   15642   15643   15648   15650   15654   15639   15644   15645   15646   15647
   15651   15652   15658   15644   15645   15646   15647   15651   15653   15658
   15641   15642   15648   15649   15650   15654   15655   15656   15657   15659
   15660   15661   15662   15663   15664   15648   15649   15643   15648   15649
   15650   15654   15655   15659   15648   15650   15645   15646   15651   15652
   15653   15658   15665   15651   15652   15647   15651   15652   15653   15658
   15665   15651   15653   15649   15650   15654   15655   15656   15657   15659
   15660   15666   15667   15654   15655   15656   15657   15659   15660   15661
   15662   15663   15664   15668   15669   15670   15671   15672   15673   15674
   15675   15654   15652   15653   15658   15665   15676   15677   15678   15658
   15658   15655   15656   15657   15659   15660   15666   15667   15668   15669
   15679   15656   15657   15659   15660   15661   15662   15663   15664   15666
   15667   15668   15669   15680   15657   15660   15661   15662   15663   15664
   15670   15671   15672   15675   15681   15682   15683   15660   15661   15662
   15663   15664   15672   15673   15674   15675   15684   15685   15686   15665
   15676   15677   15678   15660   15666   15667   15668   15679   15680   15666
   15668   15669   15679   15680   15687   15688   15662   15664   15670   15671
   15672   15681   15682   15689   15690   15691   15663   15664   15670   15671
   15672   15675   15682   15683   15685   15686   15691   15664   15673   15674
   15675   15684   15685   15692   15693   15694   15672   15673   15674   15675
   15682   15683   15685   15686   15694   15676   15677   15678   15667   15668
   15669   15679   15680   15687   15688   15668   15679   15669   15679   15680
   15687   15688   15695   15696   15697   15698   15680   15671   15672   15681
   15682   15683   15689   15690   15691   15699   15700   15701   15702   15681
   15682   15675   15681   15682   15683   15691   15674   15684   15685   15675
   15684   15685   15686   15692   15693   15694   15703   15704   15705   15706
   15684   15685   15686   15694   15677   15678   15678       0   15680   15687
   15688   15695   15696   15697   15698   15707   15708   15709   15710   15711
   15712   15713   15714   15682   15689   15690   15691   15699   15700   15701
   15702   15715   15716   15717   15718   15719   15720   15721   15722   15683
   15689   15690   15691   15691   15685   15692   15693   15694   15703   15704
   15705   15706   15723   15724   15725   15726   15727   15728   15729   15730
   15686   15692   15693   15694   15694   15688   15695   15696   15697   15698
   15707   15708   15709   15710   15731   15732   15733   15695   15696   15697
   15698   15711   15712   15713   15714   15734   15735   15736   15690   15699
   15700   15701   15702   15715   15716   15717   15718   15737   15738   15739
   15699   15700   15701   15702   15719   15720   15721   15722   15740   15741
   15742       0   15693   15703   15704   15705   15706   15723   15724   15725
   15726   15743   15744   15745   15703   15704   15705   15706   15727   15728
   15729   15730   15746   15747   15748       0   15696   15707   15708   15709
   15710   15731   15732   15749   15707   15708   15709   15710   15731   15733
   15749   15698   15711   15712   15713   15714   15734   15735   15750   15711
   15712   15713   15714   15734   15736   15750   15700   15715   15716   15717
   15718   15737   15738   15751   15715   15716   15717   15718   15738   15739
   15751   15702   15719   15720   15721   15722   15740   15741   15752   15719
   15720   15721   15722   15740   15742   15752   15704   15723   15724   15725
   15726   15743   15744   15753   15723   15724   15725   15726   15743   15745
   15753   15706   15727   15728   15729   15730   15746   15747   15754   15727
   15728   15729   15730   15746   15748   15754   15708   15709   15731   15732
   15733   15749   15755   15731   15732   15710   15731   15732   15733   15749
   15755   15731   15733   15712   15734   15735   15714   15734   15735   15736
   15750   15756   15714   15734   15736   15734   15735   15736   15750   15756
   15716   15717   15737   15738   15739   15751   15757   15737   15738   15718
   15737   15738   15739   15751   15757   15738   15739   15720   15721   15740
   15741   15742   15752   15758   15740   15741   15722   15740   15741   15742
   15752   15758   15740   15742   15724   15725   15743   15744   15745   15753
   15759   15743   15744   15726   15743   15744   15745   15753   15759   15743
   15745   15728   15729   15746   15747   15748   15754   15760   15746   15747
   15730   15746   15747   15748   15754   15760   15746   15748   15732   15733
   15749   15755   15761   15762   15763   15749   15749   15735   15736   15750
   15756   15764   15765   15766   15750   15750   15738   15751   15739   15751
   15757   15767   15768   15769   15751   15741   15742   15752   15758   15770
   15771   15772   15752   15752   15744   15745   15753   15759   15773   15774
   15775   15753   15753   15747   15748   15754   15760   15776   15777   15778
   15754   15754   15755   15761   15762   15763   15756   15764   15765   15766
   15757   15767   15768   15769   15758   15770   15771   15772   15759   15773
   15774   15775   15760   15776   15777   15778   15761   15762   15763   15764
   15765   15766   15767   15768   15769   15770   15771   15772   15773   15774
   15775   15776   15777   15778   15762   15763   15763       0   15765   15766
   15766       0   15768   15769   15769       0   15771   15772   15772       0
   15774   15775   15775       0   15777   15778   15778       0   15780   15781
   15782   15783   15784   15785   15786   15787   15788   15789   15790   15781
   15782   15783   15784   15785   15786   15787   15788   15789   15790   15791
   15792   15793   15782   15783   15784   15785   15786   15783   15787   15788
   15789   15790   15791   15792   15794   15787   15788   15789   15790   15791
   15793   15794   15785   15786   15786       0   15788   15789   15791   15792
   15793   15794   15795   15796   15791   15792   15790   15791   15792   15793
   15794   15795   15796   15791   15793   15792   15793   15794   15795   15796
   15797   15798   15799   15800   15794   15794   15795   15796   15797   15798
   15799   15800   15801   15802   15803   15804   15805   15806   15807   15808
   15796   15797   15798   15799   15800   15801   15802   15803   15804   15809
   15810   15811   15797   15798   15799   15800   15805   15806   15807   15808
   15812   15813   15814   15798   15801   15802   15803   15804   15809   15810
   15815   15816   15817   15818   15801   15802   15803   15804   15809   15811
   15815   15800   15805   15806   15807   15808   15812   15813   15819   15805
   15806   15807   15808   15812   15814   15819   15802   15803   15809   15810
   15811   15815   15816   15817   15818   15820   15821   15822   15823   15824
   15825   15809   15810   15804   15809   15810   15811   15815   15816   15820
   15809   15811   15806   15807   15812   15813   15814   15819   15826   15812
   15813   15808   15812   15813   15814   15819   15826   15812   15814   15810
   15811   15815   15816   15817   15818   15820   15821   15827   15828   15815
   15816   15817   15818   15820   15821   15822   15823   15824   15825   15829
   15830   15831   15832   15833   15834   15835   15836   15815   15813   15814
   15819   15826   15837   15838   15839   15819   15819   15816   15817   15818
   15820   15821   15827   15828   15829   15830   15840   15817   15818   15820
   15821   15822   15823   15824   15825   15827   15828   15829   15830   15841
   15818   15821   15822   15823   15824   15825   15831   15832   15833   15836
   15842   15843   15844   15821   15822   15823   15824   15825   15833   15834
   15835   15836   15845   15846   15847   15826   15837   15838   15839   15821
   15827   15828   15829   15840   15841   15827   15829   15830   15840   15841
   15848   15849   15823   15825   15831   15832   15833   15842   15843   15850
   15851   15852   15824   15825   15831   15832   15833   15836   15843   15844
   15846   15847   15852   15825   15834   15835   15836   15845   15846   15853
   15854   15855   15833   15834   15835   15836   15843   15844   15846   15847
   15855   15837   15838   15839   15828   15829   15830   15840   15841   15848
   15849   15829   15840   15830   15840   15841   15848   15849   15856   15857
   15858   15859   15841   15832   15833   15842   15843   15844   15850   15851
   15852   15860   15861   15862   15863   15842   15843   15836   15842   15843
   15844   15852   15835   15845   15846   15836   15845   15846   15847   15853
   15854   15855   15864   15865   15866   15867   15845   15846   15847   15855
   15838   15839   15839       0   15841   15848   15849   15856   15857   15858
   15859   15868   15869   15870   15871   15872   15873   15874   15875   15843
   15850   15851   15852   15860   15861   15862   15863   15876   15877   15878
   15879   15880   15881   15882   15883   15844   15850   15851   15852   15852
   15846   15853   15854   15855   15864   15865   15866   15867   15884   15885
   15886   15887   15888   15889   15890   15891   15847   15853   15854   15855
   15855   15849   15856   15857   15858   15859   15868   15869   15870   15871
   15892   15893   15894   15856   15857   15858   15859   15872   15873   15874
   15875   15895   15896   15897   15851   15860   15861   15862   15863   15876
   15877   15878   15879   15898   15899   15900   15860   15861   15862   15863
   15880   15881   15882   15883   15901   15902   15903       0   15854   15864
   15865   15866   15867   15884   15885   15886   15887   15904   15905   15906
   15864   15865   15866   15867   15888   15889   15890   15891   15907   15908
   15909       0   15857   15868   15869   15870   15871   15892   15893   15910
   15868   15869   15870   15871   15892   15894   15910   15859   15872   15873
   15874   15875   15895   15896   15911   15872   15873   15874   15875   15895
   15897   15911   15861   15876   15877   15878   15879   15898   15899   15912
   15876   15877   15878   15879   15899   15900   15912   15863   15880   15881
   15882   15883   15901   15902   15913   15880   15881   15882   15883   15901
   15903   15913   15865   15884   15885   15886   15887   15904   15905   15914
   15884   15885   15886   15887   15904   15906   15914   15867   15888   15889
   15890   15891   15907   15908   15915   15888   15889   15890   15891   15907
   15909   15915   15869   15870   15892   15893   15894   15910   15916   15892
   15893   15871   15892   15893   15894   15910   15916   15892   15894   15873
   15895   15896   15875   15895   15896   15897   15911   15917   15875   15895
   15897   15895   15896   15897   15911   15917   15877   15878   15898   15899
   15900   15912   15918   15898   15899   15879   15898   15899   15900   15912
   15918   15899   15900   15881   15882   15901   15902   15903   15913   15919
   15901   15902   15883   15901   15902   15903   15913   15919   15901   15903
   15885   15886   15904   15905   15906   15914   15920   15904   15905   15887
   15904   15905   15906   15914   15920   15904   15906   15889   15890   15907
   15908   15909   15915   15921   15907   15908   15891   15907   15908   15909
   15915   15921   15907   15909   15893   15894   15910   15916   15922   15923
   15924   15910   15910   15896   15897   15911   15917   15925   15926   15927
   15911   15911   15899   15912   15900   15912   15918   15928   15929   15930
   15912   15902   15903   15913   15919   15931   15932   15933   15913   15913
   15905   15906   15914   15920   15934   15935   15936   15914   15914   15908
   15909   15915   15921   15937   15938   15939   15915   15915   15916   15922
   15923   15924   15917   15925   15926   15927   15918   15928   15929   15930
   15919   15931   15932   15933   15920   15934   15935   15936   15921   15937
   15938   15939   15922   15923   15924   15925   15926   15927   15928   15929
   15930   15931   15932   15933   15934   15935   15936   15937   15938   15939
   15923   15924   15924       0   15926   15927   15927       0   15929   15930
   15930       0   15932   15933   15933       0   15935   15936   15936       0
   15938   15939   15939       0   15941   15942   15943   15944   15945   15946
   15947   15948   15949   15950   15951   15942   15943   15944   15945   15946
   15947   15948   15949   15950   15951   15952   15953   15954   15943   15944
   15945   15946   15947   15944   15948   15949   15950   15951   15952   15953
   15955   15948   15949   15950   15951   15952   15954   15955   15946   15947
   15947       0   15949   15950   15952   15953   15954   15955   15956   15957
   15952   15953   15951   15952   15953   15954   15955   15956   15957   15952
   15954   15953   15954   15955   15956   15957   15958   15959   15960   15961
   15955   15955   15956   15957   15958   15959   15960   15961   15962   15963
   15964   15965   15966   15967   15968   15969   15957   15958   15959   15960
   15961   15962   15963   15964   15965   15970   15971   15972   15958   15959
   15960   15961   15966   15967   15968   15969   15973   15974   15975   15959
   15962   15963   15964   15965   15970   15971   15976   15977   15978   15979
   15962   15963   15964   15965   15970   15972   15976   15961   15966   15967
   15968   15969   15973   15974   15980   15966   15967   15968   15969   15973
   15975   15980   15963   15964   15970   15971   15972   15976   15977   15978
   15979   15981   15982   15983   15984   15985   15986   15970   15971   15965
   15970   15971   15972   15976   15977   15981   15970   15972   15967   15968
   15973   15974   15975   15980   15987   15973   15974   15969   15973   15974
   15975   15980   15987   15973   15975   15971   15972   15976   15977   15978
   15979   15981   15982   15988   15989   15976   15977   15978   15979   15981
   15982   15983   15984   15985   15986   15990   15991   15992   15993   15994
   15995   15996   15997   15976   15974   15975   15980   15987   15998   15999
   16000   15980   15980   15977   15978   15979   15981   15982   15988   15989
   15990   15991   16001   15978   15979   15981   15982   15983   15984   15985
   15986   15988   15989   15990   15991   16002   15979   15982   15983   15984
   15985   15986   15992   15993   15994   15997   16003   16004   16005   15982
   15983   15984   15985   15986   15994   15995   15996   15997   16006   16007
   16008   15987   15998   15999   16000   15982   15988   15989   15990   16001
   16002   15988   15990   15991   16001   16002   16009   16010   15984   15986
   15992   15993   15994   16003   16004   16011   16012   16013   15985   15986
   15992   15993   15994   15997   16004   16005   16007   16008   16013   15986
   15995   15996   15997   16006   16007   16014   16015   16016   15994   15995
   15996   15997   16004   16005   16007   16008   16016   15998   15999   16000
   15989   15990   15991   16001   16002   16009   16010   15990   16001   15991
   16001   16002   16009   16010   16017   16018   16019   16020   16002   15993
   15994   16003   16004   16005   16011   16012   16013   16021   16022   16023
   16024   16003   16004   15997   16003   16004   16005   16013   15996   16006
   16007   15997   16006   16007   16008   16014   16015   16016   16025   16026
   16027   16028   16006   16007   16008   16016   15999   16000   16000       0
   16002   16009   16010   16017   16018   16019   16020   16029   16030   16031
   16032   16033   16034   16035   16036   16004   16011   16012   16013   16021
   16022   16023   16024   16037   16038   16039   16040   16041   16042   16043
   16044   16005   16011   16012   16013   16013   16007   16014   16015   16016
   16025   16026   16027   16028   16045   16046   16047   16048   16049   16050
   16051   16052   16008   16014   16015   16016   16016   16010   16017   16018
   16019   16020   16029   16030   16031   16032   16053   16054   16055   16017
   16018   16019   16020   16033   16034   16035   16036   16056   16057   16058
   16012   16021   16022   16023   16024   16037   16038   16039   16040   16059
   16060   16061   16021   16022   16023   16024   16041   16042   16043   16044
   16062   16063   16064       0   16015   16025   16026   16027   16028   16045
   16046   16047   16048   16065   16066   16067   16025   16026   16027   16028
   16049   16050   16051   16052   16068   16069   16070       0   16018   16029
   16030   16031   16032   16053   16054   16071   16029   16030   16031   16032
   16053   16055   16071   16020   16033   16034   16035   16036   16056   16057
   16072   16033   16034   16035   16036   16056   16058   16072   16022   16037
   16038   16039   16040   16059   16060   16073   16037   16038   16039   16040
   16060   16061   16073   16024   16041   16042   16043   16044   16062   16063
   16074   16041   16042   16043   16044   16062   16064   16074   16026   16045
   16046   16047   16048   16065   16066   16075   16045   16046   16047   16048
   16065   16067   16075   16028   16049   16050   16051   16052   16068   16069
   16076   16049   16050   16051   16052   16068   16070   16076   16030   16031
   16053   16054   16055   16071   16077   16053   16054   16032   16053   16054
   16055   16071   16077   16053   16055   16034   16056   16057   16036   16056
   16057   16058   16072   16078   16036   16056   16058   16056   16057   16058
   16072   16078   16038   16039   16059   16060   16061   16073   16079   16059
   16060   16040   16059   16060   16061   16073   16079   16060   16061   16042
   16043   16062   16063   16064   16074   16080   16062   16063   16044   16062
   16063   16064   16074   16080   16062   16064   16046   16047   16065   16066
   16067   16075   16081   16065   16066   16048   16065   16066   16067   16075
   16081   16065   16067   16050   16051   16068   16069   16070   16076   16082
   16068   16069   16052   16068   16069   16070   16076   16082   16068   16070
   16054   16055   16071   16077   16083   16084   16085   16071   16071   16057
   16058   16072   16078   16086   16087   16088   16072   16072   16060   16073
   16061   16073   16079   16089   16090   16091   16073   16063   16064   16074
   16080   16092   16093   16094   16074   16074   16066   16067   16075   16081
   16095   16096   16097   16075   16075   16069   16070   16076   16082   16098
   16099   16100   16076   16076   16077   16083   16084   16085   16078   16086
   16087   16088   16079   16089   16090   16091   16080   16092   16093   16094
   16081   16095   16096   16097   16082   16098   16099   16100   16083   16084
   16085   16086   16087   16088   16089   16090   16091   16092   16093   16094
   16095   16096   16097   16098   16099   16100   16084   16085   16085       0
   16087   16088   16088       0   16090   16091   16091       0   16093   16094
   16094       0   16096   16097   16097       0   16099   16100   16100       0
   16102   16103   16104   16105   16106   16107   16108   16109   16110   16111
   16112   16103   16104   16105   16106   16107   16108   16109   16110   16111
   16112   16113   16114   16115   16104   16105   16106   16107   16108   16105
   16109   16110   16111   16112   16113   16114   16116   16109   16110   16111
   16112   16113   16115   16116   16107   16108   16108       0   16110   16111
   16113   16114   16115   16116   16117   16118   16113   16114   16112   16113
   16114   16115   16116   16117   16118   16113   16115   16114   16115   16116
   16117   16118   16119   16120   16121   16122   16116   16116   16117   16118
   16119   16120   16121   16122   16123   16124   16125   16126   16127   16128
   16129   16130   16118   16119   16120   16121   16122   16123   16124   16125
   16126   16131   16132   16133   16119   16120   16121   16122   16127   16128
   16129   16130   16134   16135   16136   16120   16123   16124   16125   16126
   16131   16132   16137   16138   16139   16140   16123   16124   16125   16126
   16131   16133   16137   16122   16127   16128   16129   16130   16134   16135
   16141   16127   16128   16129   16130   16134   16136   16141   16124   16125
   16131   16132   16133   16137   16138   16139   16140   16142   16143   16144
   16145   16146   16147   16131   16132   16126   16131   16132   16133   16137
   16138   16142   16131   16133   16128   16129   16134   16135   16136   16141
   16148   16134   16135   16130   16134   16135   16136   16141   16148   16134
   16136   16132   16133   16137   16138   16139   16140   16142   16143   16149
   16150   16137   16138   16139   16140   16142   16143   16144   16145   16146
   16147   16151   16152   16153   16154   16155   16156   16157   16158   16137
   16135   16136   16141   16148   16159   16160   16161   16141   16141   16138
   16139   16140   16142   16143   16149   16150   16151   16152   16162   16139
   16140   16142   16143   16144   16145   16146   16147   16149   16150   16151
   16152   16163   16140   16143   16144   16145   16146   16147   16153   16154
   16155   16158   16164   16165   16166   16143   16144   16145   16146   16147
   16155   16156   16157   16158   16167   16168   16169   16148   16159   16160
   16161   16143   16149   16150   16151   16162   16163   16149   16151   16152
   16162   16163   16170   16171   16145   16147   16153   16154   16155   16164
   16165   16172   16173   16174   16146   16147   16153   16154   16155   16158
   16165   16166   16168   16169   16174   16147   16156   16157   16158   16167
   16168   16175   16176   16177   16155   16156   16157   16158   16165   16166
   16168   16169   16177   16159   16160   16161   16150   16151   16152   16162
   16163   16170   16171   16151   16162   16152   16162   16163   16170   16171
   16178   16179   16180   16181   16163   16154   16155   16164   16165   16166
   16172   16173   16174   16182   16183   16184   16185   16164   16165   16158
   16164   16165   16166   16174   16157   16167   16168   16158   16167   16168
   16169   16175   16176   16177   16186   16187   16188   16189   16167   16168
   16169   16177   16160   16161   16161       0   16163   16170   16171   16178
   16179   16180   16181   16190   16191   16192   16193   16194   16195   16196
   16197   16165   16172   16173   16174   16182   16183   16184   16185   16198
   16199   16200   16201   16202   16203   16204   16205   16166   16172   16173
   16174   16174   16168   16175   16176   16177   16186   16187   16188   16189
   16206   16207   16208   16209   16210   16211   16212   16213   16169   16175
   16176   16177   16177   16171   16178   16179   16180   16181   16190   16191
   16192   16193   16214   16215   16216   16178   16179   16180   16181   16194
   16195   16196   16197   16217   16218   16219   16173   16182   16183   16184
   16185   16198   16199   16200   16201   16220   16221   16222   16182   16183
   16184   16185   16202   16203   16204   16205   16223   16224   16225       0
   16176   16186   16187   16188   16189   16206   16207   16208   16209   16226
   16227   16228   16186   16187   16188   16189   16210   16211   16212   16213
   16229   16230   16231       0   16179   16190   16191   16192   16193   16214
   16215   16232   16190   16191   16192   16193   16214   16216   16232   16181
   16194   16195   16196   16197   16217   16218   16233   16194   16195   16196
   16197   16217   16219   16233   16183   16198   16199   16200   16201   16220
   16221   16234   16198   16199   16200   16201   16221   16222   16234   16185
   16202   16203   16204   16205   16223   16224   16235   16202   16203   16204
   16205   16223   16225   16235   16187   16206   16207   16208   16209   16226
   16227   16236   16206   16207   16208   16209   16226   16228   16236   16189
   16210   16211   16212   16213   16229   16230   16237   16210   16211   16212
   16213   16229   16231   16237   16191   16192   16214   16215   16216   16232
   16238   16214   16215   16193   16214   16215   16216   16232   16238   16214
   16216   16195   16217   16218   16197   16217   16218   16219   16233   16239
   16197   16217   16219   16217   16218   16219   16233   16239   16199   16200
   16220   16221   16222   16234   16240   16220   16221   16201   16220   16221
   16222   16234   16240   16221   16222   16203   16204   16223   16224   16225
   16235   16241   16223   16224   16205   16223   16224   16225   16235   16241
   16223   16225   16207   16208   16226   16227   16228   16236   16242   16226
   16227   16209   16226   16227   16228   16236   16242   16226   16228   16211
   16212   16229   16230   16231   16237   16243   16229   16230   16213   16229
   16230   16231   16237   16243   16229   16231   16215   16216   16232   16238
   16244   16245   16246   16232   16232   16218   16219   16233   16239   16247
   16248   16249   16233   16233   16221   16234   16222   16234   16240   16250
   16251   16252   16234   16224   16225   16235   16241   16253   16254   16255
   16235   16235   16227   16228   16236   16242   16256   16257   16258   16236
   16236   16230   16231   16237   16243   16259   16260   16261   16237   16237
   16238   16244   16245   16246   16239   16247   16248   16249   16240   16250
   16251   16252   16241   16253   16254   16255   16242   16256   16257   16258
   16243   16259   16260   16261   16244   16245   16246   16247   16248   16249
   16250   16251   16252   16253   16254   16255   16256   16257   16258   16259
   16260   16261   16245   16246   16246       0   16248   16249   16249       0
   16251   16252   16252       0   16254   16255   16255       0   16257   16258
   16258       0   16260   16261   16261       0   16263   16264   16265   16266
   16267   16268   16269   16270   16271   16272   16273   16264   16265   16266
   16267   16268   16269   16270   16271   16272   16273   16274   16275   16276
   16265   16266   16267   16268   16269   16266   16270   16271   16272   16273
   16274   16275   16277   16270   16271   16272   16273   16274   16276   16277
   16268   16269   16269       0   16271   16272   16274   16275   16276   16277
   16278   16279   16274   16275   16273   16274   16275   16276   16277   16278
   16279   16274   16276   16275   16276   16277   16278   16279   16280   16281
   16282   16283   16277   16277   16278   16279   16280   16281   16282   16283
   16284   16285   16286   16287   16288   16289   16290   16291   16279   16280
   16281   16282   16283   16284   16285   16286   16287   16292   16293   16294
   16280   16281   16282   16283   16288   16289   16290   16291   16295   16296
   16297   16281   16284   16285   16286   16287   16292   16293   16298   16299
   16300   16301   16284   16285   16286   16287   16292   16294   16298   16283
   16288   16289   16290   16291   16295   16296   16302   16288   16289   16290
   16291   16295   16297   16302   16285   16286   16292   16293   16294   16298
   16299   16300   16301   16303   16304   16305   16306   16307   16308   16292
   16293   16287   16292   16293   16294   16298   16299   16303   16292   16294
   16289   16290   16295   16296   16297   16302   16309   16295   16296   16291
   16295   16296   16297   16302   16309   16295   16297   16293   16294   16298
   16299   16300   16301   16303   16304   16310   16311   16298   16299   16300
   16301   16303   16304   16305   16306   16307   16308   16312   16313   16314
   16315   16316   16317   16318   16319   16298   16296   16297   16302   16309
   16320   16321   16322   16302   16302   16299   16300   16301   16303   16304
   16310   16311   16312   16313   16323   16300   16301   16303   16304   16305
   16306   16307   16308   16310   16311   16312   16313   16324   16301   16304
   16305   16306   16307   16308   16314   16315   16316   16319   16325   16326
   16327   16304   16305   16306   16307   16308   16316   16317   16318   16319
   16328   16329   16330   16309   16320   16321   16322   16304   16310   16311
   16312   16323   16324   16310   16312   16313   16323   16324   16331   16332
   16306   16308   16314   16315   16316   16325   16326   16333   16334   16335
   16307   16308   16314   16315   16316   16319   16326   16327   16329   16330
   16335   16308   16317   16318   16319   16328   16329   16336   16337   16338
   16316   16317   16318   16319   16326   16327   16329   16330   16338   16320
   16321   16322   16311   16312   16313   16323   16324   16331   16332   16312
   16323   16313   16323   16324   16331   16332   16339   16340   16341   16342
   16324   16315   16316   16325   16326   16327   16333   16334   16335   16343
   16344   16345   16346   16325   16326   16319   16325   16326   16327   16335
   16318   16328   16329   16319   16328   16329   16330   16336   16337   16338
   16347   16348   16349   16350   16328   16329   16330   16338   16321   16322
   16322       0   16324   16331   16332   16339   16340   16341   16342   16351
   16352   16353   16354   16355   16356   16357   16358   16326   16333   16334
   16335   16343   16344   16345   16346   16359   16360   16361   16362   16363
   16364   16365   16366   16327   16333   16334   16335   16335   16329   16336
   16337   16338   16347   16348   16349   16350   16367   16368   16369   16370
   16371   16372   16373   16374   16330   16336   16337   16338   16338   16332
   16339   16340   16341   16342   16351   16352   16353   16354   16375   16376
   16377   16339   16340   16341   16342   16355   16356   16357   16358   16378
   16379   16380   16334   16343   16344   16345   16346   16359   16360   16361
   16362   16381   16382   16383   16343   16344   16345   16346   16363   16364
   16365   16366   16384   16385   16386       0   16337   16347   16348   16349
   16350   16367   16368   16369   16370   16387   16388   16389   16347   16348
   16349   16350   16371   16372   16373   16374   16390   16391   16392       0
   16340   16351   16352   16353   16354   16375   16376   16393   16351   16352
   16353   16354   16375   16377   16393   16342   16355   16356   16357   16358
   16378   16379   16394   16355   16356   16357   16358   16378   16380   16394
   16344   16359   16360   16361   16362   16381   16382   16395   16359   16360
   16361   16362   16382   16383   16395   16346   16363   16364   16365   16366
   16384   16385   16396   16363   16364   16365   16366   16384   16386   16396
   16348   16367   16368   16369   16370   16387   16388   16397   16367   16368
   16369   16370   16387   16389   16397   16350   16371   16372   16373   16374
   16390   16391   16398   16371   16372   16373   16374   16390   16392   16398
   16352   16353   16375   16376   16377   16393   16399   16375   16376   16354
   16375   16376   16377   16393   16399   16375   16377   16356   16378   16379
   16358   16378   16379   16380   16394   16400   16358   16378   16380   16378
   16379   16380   16394   16400   16360   16361   16381   16382   16383   16395
   16401   16381   16382   16362   16381   16382   16383   16395   16401   16382
   16383   16364   16365   16384   16385   16386   16396   16402   16384   16385
   16366   16384   16385   16386   16396   16402   16384   16386   16368   16369
   16387   16388   16389   16397   16403   16387   16388   16370   16387   16388
   16389   16397   16403   16387   16389   16372   16373   16390   16391   16392
   16398   16404   16390   16391   16374   16390   16391   16392   16398   16404
   16390   16392   16376   16377   16393   16399   16405   16406   16407   16393
   16393   16379   16380   16394   16400   16408   16409   16410   16394   16394
   16382   16395   16383   16395   16401   16411   16412   16413   16395   16385
   16386   16396   16402   16414   16415   16416   16396   16396   16388   16389
   16397   16403   16417   16418   16419   16397   16397   16391   16392   16398
   16404   16420   16421   16422   16398   16398   16399   16405   16406   16407
   16400   16408   16409   16410   16401   16411   16412   16413   16402   16414
   16415   16416   16403   16417   16418   16419   16404   16420   16421   16422
   16405   16406   16407   16408   16409   16410   16411   16412   16413   16414
   16415   16416   16417   16418   16419   16420   16421   16422   16406   16407
   16407       0   16409   16410   16410       0   16412   16413   16413       0
   16415   16416   16416       0   16418   16419   16419       0   16421   16422
   16422       0   16424   16425   16426   16427   16428   16429   16430   16431
   16432   16433   16434   16425   16426   16427   16428   16429   16430   16431
   16432   16433   16434   16435   16436   16437   16426   16427   16428   16429
   16430   16427   16431   16432   16433   16434   16435   16436   16438   16431
   16432   16433   16434   16435   16437   16438   16429   16430   16430       0
   16432   16433   16435   16436   16437   16438   16439   16440   16435   16436
   16434   16435   16436   16437   16438   16439   16440   16435   16437   16436
   16437   16438   16439   16440   16441   16442   16443   16444   16438   16438
   16439   16440   16441   16442   16443   16444   16445   16446   16447   16448
   16449   16450   16451   16452   16440   16441   16442   16443   16444   16445
   16446   16447   16448   16453   16454   16455   16441   16442   16443   16444
   16449   16450   16451   16452   16456   16457   16458   16442   16445   16446
   16447   16448   16453   16454   16459   16460   16461   16462   16445   16446
   16447   16448   16453   16455   16459   16444   16449   16450   16451   16452
   16456   16457   16463   16449   16450   16451   16452   16456   16458   16463
   16446   16447   16453   16454   16455   16459   16460   16461   16462   16464
   16465   16466   16467   16468   16469   16453   16454   16448   16453   16454
   16455   16459   16460   16464   16453   16455   16450   16451   16456   16457
   16458   16463   16470   16456   16457   16452   16456   16457   16458   16463
   16470   16456   16458   16454   16455   16459   16460   16461   16462   16464
   16465   16471   16472   16459   16460   16461   16462   16464   16465   16466
   16467   16468   16469   16473   16474   16475   16476   16477   16478   16479
   16480   16459   16457   16458   16463   16470   16481   16482   16483   16463
   16463   16460   16461   16462   16464   16465   16471   16472   16473   16474
   16484   16461   16462   16464   16465   16466   16467   16468   16469   16471
   16472   16473   16474   16485   16462   16465   16466   16467   16468   16469
   16475   16476   16477   16480   16486   16487   16488   16465   16466   16467
   16468   16469   16477   16478   16479   16480   16489   16490   16491   16470
   16481   16482   16483   16465   16471   16472   16473   16484   16485   16471
   16473   16474   16484   16485   16492   16493   16467   16469   16475   16476
   16477   16486   16487   16494   16495   16496   16468   16469   16475   16476
   16477   16480   16487   16488   16490   16491   16496   16469   16478   16479
   16480   16489   16490   16497   16498   16499   16477   16478   16479   16480
   16487   16488   16490   16491   16499   16481   16482   16483   16472   16473
   16474   16484   16485   16492   16493   16473   16484   16474   16484   16485
   16492   16493   16500   16501   16502   16503   16485   16476   16477   16486
   16487   16488   16494   16495   16496   16504   16505   16506   16507   16486
   16487   16480   16486   16487   16488   16496   16479   16489   16490   16480
   16489   16490   16491   16497   16498   16499   16508   16509   16510   16511
   16489   16490   16491   16499   16482   16483   16483       0   16485   16492
   16493   16500   16501   16502   16503   16512   16513   16514   16515   16516
   16517   16518   16519   16487   16494   16495   16496   16504   16505   16506
   16507   16520   16521   16522   16523   16524   16525   16526   16527   16488
   16494   16495   16496   16496   16490   16497   16498   16499   16508   16509
   16510   16511   16528   16529   16530   16531   16532   16533   16534   16535
   16491   16497   16498   16499   16499   16493   16500   16501   16502   16503
   16512   16513   16514   16515   16536   16537   16538   16500   16501   16502
   16503   16516   16517   16518   16519   16539   16540   16541   16495   16504
   16505   16506   16507   16520   16521   16522   16523   16542   16543   16544
   16504   16505   16506   16507   16524   16525   16526   16527   16545   16546
   16547       0   16498   16508   16509   16510   16511   16528   16529   16530
   16531   16548   16549   16550   16508   16509   16510   16511   16532   16533
   16534   16535   16551   16552   16553       0   16501   16512   16513   16514
   16515   16536   16537   16554   16512   16513   16514   16515   16536   16538
   16554   16503   16516   16517   16518   16519   16539   16540   16555   16516
   16517   16518   16519   16539   16541   16555   16505   16520   16521   16522
   16523   16542   16543   16556   16520   16521   16522   16523   16543   16544
   16556   16507   16524   16525   16526   16527   16545   16546   16557   16524
   16525   16526   16527   16545   16547   16557   16509   16528   16529   16530
   16531   16548   16549   16558   16528   16529   16530   16531   16548   16550
   16558   16511   16532   16533   16534   16535   16551   16552   16559   16532
   16533   16534   16535   16551   16553   16559   16513   16514   16536   16537
   16538   16554   16560   16536   16537   16515   16536   16537   16538   16554
   16560   16536   16538   16517   16539   16540   16519   16539   16540   16541
   16555   16561   16519   16539   16541   16539   16540   16541   16555   16561
   16521   16522   16542   16543   16544   16556   16562   16542   16543   16523
   16542   16543   16544   16556   16562   16543   16544   16525   16526   16545
   16546   16547   16557   16563   16545   16546   16527   16545   16546   16547
   16557   16563   16545   16547   16529   16530   16548   16549   16550   16558
   16564   16548   16549   16531   16548   16549   16550   16558   16564   16548
   16550   16533   16534   16551   16552   16553   16559   16565   16551   16552
   16535   16551   16552   16553   16559   16565   16551   16553   16537   16538
   16554   16560   16566   16567   16568   16554   16554   16540   16541   16555
   16561   16569   16570   16571   16555   16555   16543   16556   16544   16556
   16562   16572   16573   16574   16556   16546   16547   16557   16563   16575
   16576   16577   16557   16557   16549   16550   16558   16564   16578   16579
   16580   16558   16558   16552   16553   16559   16565   16581   16582   16583
   16559   16559   16560   16566   16567   16568   16561   16569   16570   16571
   16562   16572   16573   16574   16563   16575   16576   16577   16564   16578
   16579   16580   16565   16581   16582   16583   16566   16567   16568   16569
   16570   16571   16572   16573   16574   16575   16576   16577   16578   16579
   16580   16581   16582   16583   16567   16568   16568       0   16570   16571
   16571       0   16573   16574   16574       0   16576   16577   16577       0
   16579   16580   16580       0   16582   16583   16583       0   16585   16586
   16587   16588   16589   16590   16591   16592   16593   16594   16595   16586
   16587   16588   16589   16590   16591   16592   16593   16594   16595   16596
   16597   16598   16587   16588   16589   16590   16591   16588   16592   16593
   16594   16595   16596   16597   16599   16592   16593   16594   16595   16596
   16598   16599   16590   16591   16591       0   16593   16594   16596   16597
   16598   16599   16600   16601   16596   16597   16595   16596   16597   16598
   16599   16600   16601   16596   16598   16597   16598   16599   16600   16601
   16602   16603   16604   16605   16599   16599   16600   16601   16602   16603
   16604   16605   16606   16607   16608   16609   16610   16611   16612   16613
   16601   16602   16603   16604   16605   16606   16607   16608   16609   16614
   16615   16616   16602   16603   16604   16605   16610   16611   16612   16613
   16617   16618   16619   16603   16606   16607   16608   16609   16614   16615
   16620   16621   16622   16623   16606   16607   16608   16609   16614   16616
   16620   16605   16610   16611   16612   16613   16617   16618   16624   16610
   16611   16612   16613   16617   16619   16624   16607   16608   16614   16615
   16616   16620   16621   16622   16623   16625   16626   16627   16628   16629
   16630   16614   16615   16609   16614   16615   16616   16620   16621   16625
   16614   16616   16611   16612   16617   16618   16619   16624   16631   16617
   16618   16613   16617   16618   16619   16624   16631   16617   16619   16615
   16616   16620   16621   16622   16623   16625   16626   16632   16633   16620
   16621   16622   16623   16625   16626   16627   16628   16629   16630   16634
   16635   16636   16637   16638   16639   16640   16641   16620   16618   16619
   16624   16631   16642   16643   16644   16624   16624   16621   16622   16623
   16625   16626   16632   16633   16634   16635   16645   16622   16623   16625
   16626   16627   16628   16629   16630   16632   16633   16634   16635   16646
   16623   16626   16627   16628   16629   16630   16636   16637   16638   16641
   16647   16648   16649   16626   16627   16628   16629   16630   16638   16639
   16640   16641   16650   16651   16652   16631   16642   16643   16644   16626
   16632   16633   16634   16645   16646   16632   16634   16635   16645   16646
   16653   16654   16628   16630   16636   16637   16638   16647   16648   16655
   16656   16657   16629   16630   16636   16637   16638   16641   16648   16649
   16651   16652   16657   16630   16639   16640   16641   16650   16651   16658
   16659   16660   16638   16639   16640   16641   16648   16649   16651   16652
   16660   16642   16643   16644   16633   16634   16635   16645   16646   16653
   16654   16634   16645   16635   16645   16646   16653   16654   16661   16662
   16663   16664   16646   16637   16638   16647   16648   16649   16655   16656
   16657   16665   16666   16667   16668   16647   16648   16641   16647   16648
   16649   16657   16640   16650   16651   16641   16650   16651   16652   16658
   16659   16660   16669   16670   16671   16672   16650   16651   16652   16660
   16643   16644   16644       0   16646   16653   16654   16661   16662   16663
   16664   16673   16674   16675   16676   16677   16678   16679   16680   16648
   16655   16656   16657   16665   16666   16667   16668   16681   16682   16683
   16684   16685   16686   16687   16688   16649   16655   16656   16657   16657
   16651   16658   16659   16660   16669   16670   16671   16672   16689   16690
   16691   16692   16693   16694   16695   16696   16652   16658   16659   16660
   16660   16654   16661   16662   16663   16664   16673   16674   16675   16676
   16697   16698   16699   16661   16662   16663   16664   16677   16678   16679
   16680   16700   16701   16702   16656   16665   16666   16667   16668   16681
   16682   16683   16684   16703   16704   16705   16665   16666   16667   16668
   16685   16686   16687   16688   16706   16707   16708       0   16659   16669
   16670   16671   16672   16689   16690   16691   16692   16709   16710   16711
   16669   16670   16671   16672   16693   16694   16695   16696   16712   16713
   16714       0   16662   16673   16674   16675   16676   16697   16698   16715
   16673   16674   16675   16676   16697   16699   16715   16664   16677   16678
   16679   16680   16700   16701   16716   16677   16678   16679   16680   16700
   16702   16716   16666   16681   16682   16683   16684   16703   16704   16717
   16681   16682   16683   16684   16704   16705   16717   16668   16685   16686
   16687   16688   16706   16707   16718   16685   16686   16687   16688   16706
   16708   16718   16670   16689   16690   16691   16692   16709   16710   16719
   16689   16690   16691   16692   16709   16711   16719   16672   16693   16694
   16695   16696   16712   16713   16720   16693   16694   16695   16696   16712
   16714   16720   16674   16675   16697   16698   16699   16715   16721   16697
   16698   16676   16697   16698   16699   16715   16721   16697   16699   16678
   16700   16701   16680   16700   16701   16702   16716   16722   16680   16700
   16702   16700   16701   16702   16716   16722   16682   16683   16703   16704
   16705   16717   16723   16703   16704   16684   16703   16704   16705   16717
   16723   16704   16705   16686   16687   16706   16707   16708   16718   16724
   16706   16707   16688   16706   16707   16708   16718   16724   16706   16708
   16690   16691   16709   16710   16711   16719   16725   16709   16710   16692
   16709   16710   16711   16719   16725   16709   16711   16694   16695   16712
   16713   16714   16720   16726   16712   16713   16696   16712   16713   16714
   16720   16726   16712   16714   16698   16699   16715   16721   16727   16728
   16729   16715   16715   16701   16702   16716   16722   16730   16731   16732
   16716   16716   16704   16717   16705   16717   16723   16733   16734   16735
   16717   16707   16708   16718   16724   16736   16737   16738   16718   16718
   16710   16711   16719   16725   16739   16740   16741   16719   16719   16713
   16714   16720   16726   16742   16743   16744   16720   16720   16721   16727
   16728   16729   16722   16730   16731   16732   16723   16733   16734   16735
   16724   16736   16737   16738   16725   16739   16740   16741   16726   16742
   16743   16744   16727   16728   16729   16730   16731   16732   16733   16734
   16735   16736   16737   16738   16739   16740   16741   16742   16743   16744
   16728   16729   16729       0   16731   16732   16732       0   16734   16735
   16735       0   16737   16738   16738       0   16740   16741   16741       0
   16743   16744   16744       0   16746   16747   16748   16749   16750   16751
   16752   16753   16754   16755   16756   16747   16748   16749   16750   16751
   16752   16753   16754   16755   16756   16757   16758   16759   16748   16749
   16750   16751   16752   16749   16753   16754   16755   16756   16757   16758
   16760   16753   16754   16755   16756   16757   16759   16760   16751   16752
   16752       0   16754   16755   16757   16758   16759   16760   16761   16762
   16757   16758   16756   16757   16758   16759   16760   16761   16762   16757
   16759   16758   16759   16760   16761   16762   16763   16764   16765   16766
   16760   16760   16761   16762   16763   16764   16765   16766   16767   16768
   16769   16770   16771   16772   16773   16774   16762   16763   16764   16765
   16766   16767   16768   16769   16770   16775   16776   16777   16763   16764
   16765   16766   16771   16772   16773   16774   16778   16779   16780   16764
   16767   16768   16769   16770   16775   16776   16781   16782   16783   16784
   16767   16768   16769   16770   16775   16777   16781   16766   16771   16772
   16773   16774   16778   16779   16785   16771   16772   16773   16774   16778
   16780   16785   16768   16769   16775   16776   16777   16781   16782   16783
   16784   16786   16787   16788   16789   16790   16791   16775   16776   16770
   16775   16776   16777   16781   16782   16786   16775   16777   16772   16773
   16778   16779   16780   16785   16792   16778   16779   16774   16778   16779
   16780   16785   16792   16778   16780   16776   16777   16781   16782   16783
   16784   16786   16787   16793   16794   16781   16782   16783   16784   16786
   16787   16788   16789   16790   16791   16795   16796   16797   16798   16799
   16800   16801   16802   16781   16779   16780   16785   16792   16803   16804
   16805   16785   16785   16782   16783   16784   16786   16787   16793   16794
   16795   16796   16806   16783   16784   16786   16787   16788   16789   16790
   16791   16793   16794   16795   16796   16807   16784   16787   16788   16789
   16790   16791   16797   16798   16799   16802   16808   16809   16810   16787
   16788   16789   16790   16791   16799   16800   16801   16802   16811   16812
   16813   16792   16803   16804   16805   16787   16793   16794   16795   16806
   16807   16793   16795   16796   16806   16807   16814   16815   16789   16791
   16797   16798   16799   16808   16809   16816   16817   16818   16790   16791
   16797   16798   16799   16802   16809   16810   16812   16813   16818   16791
   16800   16801   16802   16811   16812   16819   16820   16821   16799   16800
   16801   16802   16809   16810   16812   16813   16821   16803   16804   16805
   16794   16795   16796   16806   16807   16814   16815   16795   16806   16796
   16806   16807   16814   16815   16822   16823   16824   16825   16807   16798
   16799   16808   16809   16810   16816   16817   16818   16826   16827   16828
   16829   16808   16809   16802   16808   16809   16810   16818   16801   16811
   16812   16802   16811   16812   16813   16819   16820   16821   16830   16831
   16832   16833   16811   16812   16813   16821   16804   16805   16805       0
   16807   16814   16815   16822   16823   16824   16825   16834   16835   16836
   16837   16838   16839   16840   16841   16809   16816   16817   16818   16826
   16827   16828   16829   16842   16843   16844   16845   16846   16847   16848
   16849   16810   16816   16817   16818   16818   16812   16819   16820   16821
   16830   16831   16832   16833   16850   16851   16852   16853   16854   16855
   16856   16857   16813   16819   16820   16821   16821   16815   16822   16823
   16824   16825   16834   16835   16836   16837   16858   16859   16860   16822
   16823   16824   16825   16838   16839   16840   16841   16861   16862   16863
   16817   16826   16827   16828   16829   16842   16843   16844   16845   16864
   16865   16866   16826   16827   16828   16829   16846   16847   16848   16849
   16867   16868   16869       0   16820   16830   16831   16832   16833   16850
   16851   16852   16853   16870   16871   16872   16830   16831   16832   16833
   16854   16855   16856   16857   16873   16874   16875       0   16823   16834
   16835   16836   16837   16858   16859   16876   16834   16835   16836   16837
   16858   16860   16876   16825   16838   16839   16840   16841   16861   16862
   16877   16838   16839   16840   16841   16861   16863   16877   16827   16842
   16843   16844   16845   16864   16865   16878   16842   16843   16844   16845
   16865   16866   16878   16829   16846   16847   16848   16849   16867   16868
   16879   16846   16847   16848   16849   16867   16869   16879   16831   16850
   16851   16852   16853   16870   16871   16880   16850   16851   16852   16853
   16870   16872   16880   16833   16854   16855   16856   16857   16873   16874
   16881   16854   16855   16856   16857   16873   16875   16881   16835   16836
   16858   16859   16860   16876   16882   16858   16859   16837   16858   16859
   16860   16876   16882   16858   16860   16839   16861   16862   16841   16861
   16862   16863   16877   16883   16841   16861   16863   16861   16862   16863
   16877   16883   16843   16844   16864   16865   16866   16878   16884   16864
   16865   16845   16864   16865   16866   16878   16884   16865   16866   16847
   16848   16867   16868   16869   16879   16885   16867   16868   16849   16867
   16868   16869   16879   16885   16867   16869   16851   16852   16870   16871
   16872   16880   16886   16870   16871   16853   16870   16871   16872   16880
   16886   16870   16872   16855   16856   16873   16874   16875   16881   16887
   16873   16874   16857   16873   16874   16875   16881   16887   16873   16875
   16859   16860   16876   16882   16888   16889   16890   16876   16876   16862
   16863   16877   16883   16891   16892   16893   16877   16877   16865   16878
   16866   16878   16884   16894   16895   16896   16878   16868   16869   16879
   16885   16897   16898   16899   16879   16879   16871   16872   16880   16886
   16900   16901   16902   16880   16880   16874   16875   16881   16887   16903
   16904   16905   16881   16881   16882   16888   16889   16890   16883   16891
   16892   16893   16884   16894   16895   16896   16885   16897   16898   16899
   16886   16900   16901   16902   16887   16903   16904   16905   16888   16889
   16890   16891   16892   16893   16894   16895   16896   16897   16898   16899
   16900   16901   16902   16903   16904   16905   16889   16890   16890       0
   16892   16893   16893       0   16895   16896   16896       0   16898   16899
   16899       0   16901   16902   16902       0   16904   16905   16905       0
   16907   16908   16909   16910   16911   16912   16913   16914   16915   16916
   16917   16908   16909   16910   16911   16912   16913   16914   16915   16916
   16917   16918   16919   16920   16909   16910   16911   16912   16913   16910
   16914   16915   16916   16917   16918   16919   16921   16914   16915   16916
   16917   16918   16920   16921   16912   16913   16913       0   16915   16916
   16918   16919   16920   16921   16922   16923   16918   16919   16917   16918
   16919   16920   16921   16922   16923   16918   16920   16919   16920   16921
   16922   16923   16924   16925   16926   16927   16921   16921   16922   16923
   16924   16925   16926   16927   16928   16929   16930   16931   16932   16933
   16934   16935   16923   16924   16925   16926   16927   16928   16929   16930
   16931   16936   16937   16938   16924   16925   16926   16927   16932   16933
   16934   16935   16939   16940   16941   16925   16928   16929   16930   16931
   16936   16937   16942   16943   16944   16945   16928   16929   16930   16931
   16936   16938   16942   16927   16932   16933   16934   16935   16939   16940
   16946   16932   16933   16934   16935   16939   16941   16946   16929   16930
   16936   16937   16938   16942   16943   16944   16945   16947   16948   16949
   16950   16951   16952   16936   16937   16931   16936   16937   16938   16942
   16943   16947   16936   16938   16933   16934   16939   16940   16941   16946
   16953   16939   16940   16935   16939   16940   16941   16946   16953   16939
   16941   16937   16938   16942   16943   16944   16945   16947   16948   16954
   16955   16942   16943   16944   16945   16947   16948   16949   16950   16951
   16952   16956   16957   16958   16959   16960   16961   16962   16963   16942
   16940   16941   16946   16953   16964   16965   16966   16946   16946   16943
   16944   16945   16947   16948   16954   16955   16956   16957   16967   16944
   16945   16947   16948   16949   16950   16951   16952   16954   16955   16956
   16957   16968   16945   16948   16949   16950   16951   16952   16958   16959
   16960   16963   16969   16970   16971   16948   16949   16950   16951   16952
   16960   16961   16962   16963   16972   16973   16974   16953   16964   16965
   16966   16948   16954   16955   16956   16967   16968   16954   16956   16957
   16967   16968   16975   16976   16950   16952   16958   16959   16960   16969
   16970   16977   16978   16979   16951   16952   16958   16959   16960   16963
   16970   16971   16973   16974   16979   16952   16961   16962   16963   16972
   16973   16980   16981   16982   16960   16961   16962   16963   16970   16971
   16973   16974   16982   16964   16965   16966   16955   16956   16957   16967
   16968   16975   16976   16956   16967   16957   16967   16968   16975   16976
   16983   16984   16985   16986   16968   16959   16960   16969   16970   16971
   16977   16978   16979   16987   16988   16989   16990   16969   16970   16963
   16969   16970   16971   16979   16962   16972   16973   16963   16972   16973
   16974   16980   16981   16982   16991   16992   16993   16994   16972   16973
   16974   16982   16965   16966   16966       0   16968   16975   16976   16983
   16984   16985   16986   16995   16996   16997   16998   16999   17000   17001
   17002   16970   16977   16978   16979   16987   16988   16989   16990   17003
   17004   17005   17006   17007   17008   17009   17010   16971   16977   16978
   16979   16979   16973   16980   16981   16982   16991   16992   16993   16994
   17011   17012   17013   17014   17015   17016   17017   17018   16974   16980
   16981   16982   16982   16976   16983   16984   16985   16986   16995   16996
   16997   16998   17019   17020   17021   16983   16984   16985   16986   16999
   17000   17001   17002   17022   17023   17024   16978   16987   16988   16989
   16990   17003   17004   17005   17006   17025   17026   17027   16987   16988
   16989   16990   17007   17008   17009   17010   17028   17029   17030       0
   16981   16991   16992   16993   16994   17011   17012   17013   17014   17031
   17032   17033   16991   16992   16993   16994   17015   17016   17017   17018
   17034   17035   17036       0   16984   16995   16996   16997   16998   17019
   17020   17037   16995   16996   16997   16998   17019   17021   17037   16986
   16999   17000   17001   17002   17022   17023   17038   16999   17000   17001
   17002   17022   17024   17038   16988   17003   17004   17005   17006   17025
   17026   17039   17003   17004   17005   17006   17026   17027   17039   16990
   17007   17008   17009   17010   17028   17029   17040   17007   17008   17009
   17010   17028   17030   17040   16992   17011   17012   17013   17014   17031
   17032   17041   17011   17012   17013   17014   17031   17033   17041   16994
   17015   17016   17017   17018   17034   17035   17042   17015   17016   17017
   17018   17034   17036   17042   16996   16997   17019   17020   17021   17037
   17043   17019   17020   16998   17019   17020   17021   17037   17043   17019
   17021   17000   17022   17023   17002   17022   17023   17024   17038   17044
   17002   17022   17024   17022   17023   17024   17038   17044   17004   17005
   17025   17026   17027   17039   17045   17025   17026   17006   17025   17026
   17027   17039   17045   17026   17027   17008   17009   17028   17029   17030
   17040   17046   17028   17029   17010   17028   17029   17030   17040   17046
   17028   17030   17012   17013   17031   17032   17033   17041   17047   17031
   17032   17014   17031   17032   17033   17041   17047   17031   17033   17016
   17017   17034   17035   17036   17042   17048   17034   17035   17018   17034
   17035   17036   17042   17048   17034   17036   17020   17021   17037   17043
   17049   17050   17051   17037   17037   17023   17024   17038   17044   17052
   17053   17054   17038   17038   17026   17039   17027   17039   17045   17055
   17056   17057   17039   17029   17030   17040   17046   17058   17059   17060
   17040   17040   17032   17033   17041   17047   17061   17062   17063   17041
   17041   17035   17036   17042   17048   17064   17065   17066   17042   17042
   17043   17049   17050   17051   17044   17052   17053   17054   17045   17055
   17056   17057   17046   17058   17059   17060   17047   17061   17062   17063
   17048   17064   17065   17066   17049   17050   17051   17052   17053   17054
   17055   17056   17057   17058   17059   17060   17061   17062   17063   17064
   17065   17066   17050   17051   17051       0   17053   17054   17054       0
   17056   17057   17057       0   17059   17060   17060       0   17062   17063
   17063       0   17065   17066   17066       0   17068   17069   17070   17071
   17072   17073   17074   17075   17076   17077   17078   17069   17070   17071
   17072   17073   17074   17075   17076   17077   17078   17079   17080   17081
   17070   17071   17072   17073   17074   17071   17075   17076   17077   17078
   17079   17080   17082   17075   17076   17077   17078   17079   17081   17082
   17073   17074   17074       0   17076   17077   17079   17080   17081   17082
   17083   17084   17079   17080   17078   17079   17080   17081   17082   17083
   17084   17079   17081   17080   17081   17082   17083   17084   17085   17086
   17087   17088   17082   17082   17083   17084   17085   17086   17087   17088
   17089   17090   17091   17092   17093   17094   17095   17096   17084   17085
   17086   17087   17088   17089   17090   17091   17092   17097   17098   17099
   17085   17086   17087   17088   17093   17094   17095   17096   17100   17101
   17102   17086   17089   17090   17091   17092   17097   17098   17103   17104
   17105   17106   17089   17090   17091   17092   17097   17099   17103   17088
   17093   17094   17095   17096   17100   17101   17107   17093   17094   17095
   17096   17100   17102   17107   17090   17091   17097   17098   17099   17103
   17104   17105   17106   17108   17109   17110   17111   17112   17113   17097
   17098   17092   17097   17098   17099   17103   17104   17108   17097   17099
   17094   17095   17100   17101   17102   17107   17114   17100   17101   17096
   17100   17101   17102   17107   17114   17100   17102   17098   17099   17103
   17104   17105   17106   17108   17109   17115   17116   17103   17104   17105
   17106   17108   17109   17110   17111   17112   17113   17117   17118   17119
   17120   17121   17122   17123   17124   17103   17101   17102   17107   17114
   17125   17126   17127   17107   17107   17104   17105   17106   17108   17109
   17115   17116   17117   17118   17128   17105   17106   17108   17109   17110
   17111   17112   17113   17115   17116   17117   17118   17129   17106   17109
   17110   17111   17112   17113   17119   17120   17121   17124   17130   17131
   17132   17109   17110   17111   17112   17113   17121   17122   17123   17124
   17133   17134   17135   17114   17125   17126   17127   17109   17115   17116
   17117   17128   17129   17115   17117   17118   17128   17129   17136   17137
   17111   17113   17119   17120   17121   17130   17131   17138   17139   17140
   17112   17113   17119   17120   17121   17124   17131   17132   17134   17135
   17140   17113   17122   17123   17124   17133   17134   17141   17142   17143
   17121   17122   17123   17124   17131   17132   17134   17135   17143   17125
   17126   17127   17116   17117   17118   17128   17129   17136   17137   17117
   17128   17118   17128   17129   17136   17137   17144   17145   17146   17147
   17129   17120   17121   17130   17131   17132   17138   17139   17140   17148
   17149   17150   17151   17130   17131   17124   17130   17131   17132   17140
   17123   17133   17134   17124   17133   17134   17135   17141   17142   17143
   17152   17153   17154   17155   17133   17134   17135   17143   17126   17127
   17127       0   17129   17136   17137   17144   17145   17146   17147   17156
   17157   17158   17159   17160   17161   17162   17163   17131   17138   17139
   17140   17148   17149   17150   17151   17164   17165   17166   17167   17168
   17169   17170   17171   17132   17138   17139   17140   17140   17134   17141
   17142   17143   17152   17153   17154   17155   17172   17173   17174   17175
   17176   17177   17178   17179   17135   17141   17142   17143   17143   17137
   17144   17145   17146   17147   17156   17157   17158   17159   17180   17181
   17182   17144   17145   17146   17147   17160   17161   17162   17163   17183
   17184   17185   17139   17148   17149   17150   17151   17164   17165   17166
   17167   17186   17187   17188   17148   17149   17150   17151   17168   17169
   17170   17171   17189   17190   17191       0   17142   17152   17153   17154
   17155   17172   17173   17174   17175   17192   17193   17194   17152   17153
   17154   17155   17176   17177   17178   17179   17195   17196   17197       0
   17145   17156   17157   17158   17159   17180   17181   17198   17156   17157
   17158   17159   17180   17182   17198   17147   17160   17161   17162   17163
   17183   17184   17199   17160   17161   17162   17163   17183   17185   17199
   17149   17164   17165   17166   17167   17186   17187   17200   17164   17165
   17166   17167   17187   17188   17200   17151   17168   17169   17170   17171
   17189   17190   17201   17168   17169   17170   17171   17189   17191   17201
   17153   17172   17173   17174   17175   17192   17193   17202   17172   17173
   17174   17175   17192   17194   17202   17155   17176   17177   17178   17179
   17195   17196   17203   17176   17177   17178   17179   17195   17197   17203
   17157   17158   17180   17181   17182   17198   17204   17180   17181   17159
   17180   17181   17182   17198   17204   17180   17182   17161   17183   17184
   17163   17183   17184   17185   17199   17205   17163   17183   17185   17183
   17184   17185   17199   17205   17165   17166   17186   17187   17188   17200
   17206   17186   17187   17167   17186   17187   17188   17200   17206   17187
   17188   17169   17170   17189   17190   17191   17201   17207   17189   17190
   17171   17189   17190   17191   17201   17207   17189   17191   17173   17174
   17192   17193   17194   17202   17208   17192   17193   17175   17192   17193
   17194   17202   17208   17192   17194   17177   17178   17195   17196   17197
   17203   17209   17195   17196   17179   17195   17196   17197   17203   17209
   17195   17197   17181   17182   17198   17204   17210   17211   17212   17198
   17198   17184   17185   17199   17205   17213   17214   17215   17199   17199
   17187   17200   17188   17200   17206   17216   17217   17218   17200   17190
   17191   17201   17207   17219   17220   17221   17201   17201   17193   17194
   17202   17208   17222   17223   17224   17202   17202   17196   17197   17203
   17209   17225   17226   17227   17203   17203   17204   17210   17211   17212
   17205   17213   17214   17215   17206   17216   17217   17218   17207   17219
   17220   17221   17208   17222   17223   17224   17209   17225   17226   17227
   17210   17211   17212   17213   17214   17215   17216   17217   17218   17219
   17220   17221   17222   17223   17224   17225   17226   17227   17211   17212
   17212       0   17214   17215   17215       0   17217   17218   17218       0
   17220   17221   17221       0   17223   17224   17224       0   17226   17227
   17227       0   17229   17230   17231   17232   17233   17234   17235   17236
   17237   17238   17239   17230   17231   17232   17233   17234   17235   17236
   17237   17238   17239   17240   17241   17242   17231   17232   17233   17234
   17235   17232   17236   17237   17238   17239   17240   17241   17243   17236
   17237   17238   17239   17240   17242   17243   17234   17235   17235       0
   17237   17238   17240   17241   17242   17243   17244   17245   17240   17241
   17239   17240   17241   17242   17243   17244   17245   17240   17242   17241
   17242   17243   17244   17245   17246   17247   17248   17249   17243   17243
   17244   17245   17246   17247   17248   17249   17250   17251   17252   17253
   17254   17255   17256   17257   17245   17246   17247   17248   17249   17250
   17251   17252   17253   17258   17259   17260   17246   17247   17248   17249
   17254   17255   17256   17257   17261   17262   17263   17247   17250   17251
   17252   17253   17258   17259   17264   17265   17266   17267   17250   17251
   17252   17253   17258   17260   17264   17249   17254   17255   17256   17257
   17261   17262   17268   17254   17255   17256   17257   17261   17263   17268
   17251   17252   17258   17259   17260   17264   17265   17266   17267   17269
   17270   17271   17272   17273   17274   17258   17259   17253   17258   17259
   17260   17264   17265   17269   17258   17260   17255   17256   17261   17262
   17263   17268   17275   17261   17262   17257   17261   17262   17263   17268
   17275   17261   17263   17259   17260   17264   17265   17266   17267   17269
   17270   17276   17277   17264   17265   17266   17267   17269   17270   17271
   17272   17273   17274   17278   17279   17280   17281   17282   17283   17284
   17285   17264   17262   17263   17268   17275   17286   17287   17288   17268
   17268   17265   17266   17267   17269   17270   17276   17277   17278   17279
   17289   17266   17267   17269   17270   17271   17272   17273   17274   17276
   17277   17278   17279   17290   17267   17270   17271   17272   17273   17274
   17280   17281   17282   17285   17291   17292   17293   17270   17271   17272
   17273   17274   17282   17283   17284   17285   17294   17295   17296   17275
   17286   17287   17288   17270   17276   17277   17278   17289   17290   17276
   17278   17279   17289   17290   17297   17298   17272   17274   17280   17281
   17282   17291   17292   17299   17300   17301   17273   17274   17280   17281
   17282   17285   17292   17293   17295   17296   17301   17274   17283   17284
   17285   17294   17295   17302   17303   17304   17282   17283   17284   17285
   17292   17293   17295   17296   17304   17286   17287   17288   17277   17278
   17279   17289   17290   17297   17298   17278   17289   17279   17289   17290
   17297   17298   17305   17306   17307   17308   17290   17281   17282   17291
   17292   17293   17299   17300   17301   17309   17310   17311   17312   17291
   17292   17285   17291   17292   17293   17301   17284   17294   17295   17285
   17294   17295   17296   17302   17303   17304   17313   17314   17315   17316
   17294   17295   17296   17304   17287   17288   17288       0   17290   17297
   17298   17305   17306   17307   17308   17317   17318   17319   17320   17321
   17322   17323   17324   17292   17299   17300   17301   17309   17310   17311
   17312   17325   17326   17327   17328   17329   17330   17331   17332   17293
   17299   17300   17301   17301   17295   17302   17303   17304   17313   17314
   17315   17316   17333   17334   17335   17336   17337   17338   17339   17340
   17296   17302   17303   17304   17304   17298   17305   17306   17307   17308
   17317   17318   17319   17320   17341   17342   17343   17305   17306   17307
   17308   17321   17322   17323   17324   17344   17345   17346   17300   17309
   17310   17311   17312   17325   17326   17327   17328   17347   17348   17349
   17309   17310   17311   17312   17329   17330   17331   17332   17350   17351
   17352       0   17303   17313   17314   17315   17316   17333   17334   17335
   17336   17353   17354   17355   17313   17314   17315   17316   17337   17338
   17339   17340   17356   17357   17358       0   17306   17317   17318   17319
   17320   17341   17342   17359   17317   17318   17319   17320   17341   17343
   17359   17308   17321   17322   17323   17324   17344   17345   17360   17321
   17322   17323   17324   17344   17346   17360   17310   17325   17326   17327
   17328   17347   17348   17361   17325   17326   17327   17328   17348   17349
   17361   17312   17329   17330   17331   17332   17350   17351   17362   17329
   17330   17331   17332   17350   17352   17362   17314   17333   17334   17335
   17336   17353   17354   17363   17333   17334   17335   17336   17353   17355
   17363   17316   17337   17338   17339   17340   17356   17357   17364   17337
   17338   17339   17340   17356   17358   17364   17318   17319   17341   17342
   17343   17359   17365   17341   17342   17320   17341   17342   17343   17359
   17365   17341   17343   17322   17344   17345   17324   17344   17345   17346
   17360   17366   17324   17344   17346   17344   17345   17346   17360   17366
   17326   17327   17347   17348   17349   17361   17367   17347   17348   17328
   17347   17348   17349   17361   17367   17348   17349   17330   17331   17350
   17351   17352   17362   17368   17350   17351   17332   17350   17351   17352
   17362   17368   17350   17352   17334   17335   17353   17354   17355   17363
   17369   17353   17354   17336   17353   17354   17355   17363   17369   17353
   17355   17338   17339   17356   17357   17358   17364   17370   17356   17357
   17340   17356   17357   17358   17364   17370   17356   17358   17342   17343
   17359   17365   17371   17372   17373   17359   17359   17345   17346   17360
   17366   17374   17375   17376   17360   17360   17348   17361   17349   17361
   17367   17377   17378   17379   17361   17351   17352   17362   17368   17380
   17381   17382   17362   17362   17354   17355   17363   17369   17383   17384
   17385   17363   17363   17357   17358   17364   17370   17386   17387   17388
   17364   17364   17365   17371   17372   17373   17366   17374   17375   17376
   17367   17377   17378   17379   17368   17380   17381   17382   17369   17383
   17384   17385   17370   17386   17387   17388   17371   17372   17373   17374
   17375   17376   17377   17378   17379   17380   17381   17382   17383   17384
   17385   17386   17387   17388   17372   17373   17373       0   17375   17376
   17376       0   17378   17379   17379       0   17381   17382   17382       0
   17384   17385   17385       0   17387   17388   17388       0   17390   17391
   17392   17393   17394   17395   17396   17397   17398   17399   17400   17391
   17392   17393   17394   17395   17396   17397   17398   17399   17400   17401
   17402   17403   17392   17393   17394   17395   17396   17393   17397   17398
   17399   17400   17401   17402   17404   17397   17398   17399   17400   17401
   17403   17404   17395   17396   17396       0   17398   17399   17401   17402
   17403   17404   17405   17406   17401   17402   17400   17401   17402   17403
   17404   17405   17406   17401   17403   17402   17403   17404   17405   17406
   17407   17408   17409   17410   17404   17404   17405   17406   17407   17408
   17409   17410   17411   17412   17413   17414   17415   17416   17417   17418
   17406   17407   17408   17409   17410   17411   17412   17413   17414   17419
   17420   17421   17407   17408   17409   17410   17415   17416   17417   17418
   17422   17423   17424   17408   17411   17412   17413   17414   17419   17420
   17425   17426   17427   17428   17411   17412   17413   17414   17419   17421
   17425   17410   17415   17416   17417   17418   17422   17423   17429   17415
   17416   17417   17418   17422   17424   17429   17412   17413   17419   17420
   17421   17425   17426   17427   17428   17430   17431   17432   17433   17434
   17435   17419   17420   17414   17419   17420   17421   17425   17426   17430
   17419   17421   17416   17417   17422   17423   17424   17429   17436   17422
   17423   17418   17422   17423   17424   17429   17436   17422   17424   17420
   17421   17425   17426   17427   17428   17430   17431   17437   17438   17425
   17426   17427   17428   17430   17431   17432   17433   17434   17435   17439
   17440   17441   17442   17443   17444   17445   17446   17425   17423   17424
   17429   17436   17447   17448   17449   17429   17429   17426   17427   17428
   17430   17431   17437   17438   17439   17440   17450   17427   17428   17430
   17431   17432   17433   17434   17435   17437   17438   17439   17440   17451
   17428   17431   17432   17433   17434   17435   17441   17442   17443   17446
   17452   17453   17454   17431   17432   17433   17434   17435   17443   17444
   17445   17446   17455   17456   17457   17436   17447   17448   17449   17431
   17437   17438   17439   17450   17451   17437   17439   17440   17450   17451
   17458   17459   17433   17435   17441   17442   17443   17452   17453   17460
   17461   17462   17434   17435   17441   17442   17443   17446   17453   17454
   17456   17457   17462   17435   17444   17445   17446   17455   17456   17463
   17464   17465   17443   17444   17445   17446   17453   17454   17456   17457
   17465   17447   17448   17449   17438   17439   17440   17450   17451   17458
   17459   17439   17450   17440   17450   17451   17458   17459   17466   17467
   17468   17469   17451   17442   17443   17452   17453   17454   17460   17461
   17462   17470   17471   17472   17473   17452   17453   17446   17452   17453
   17454   17462   17445   17455   17456   17446   17455   17456   17457   17463
   17464   17465   17474   17475   17476   17477   17455   17456   17457   17465
   17448   17449   17449       0   17451   17458   17459   17466   17467   17468
   17469   17478   17479   17480   17481   17482   17483   17484   17485   17453
   17460   17461   17462   17470   17471   17472   17473   17486   17487   17488
   17489   17490   17491   17492   17493   17454   17460   17461   17462   17462
   17456   17463   17464   17465   17474   17475   17476   17477   17494   17495
   17496   17497   17498   17499   17500   17501   17457   17463   17464   17465
   17465   17459   17466   17467   17468   17469   17478   17479   17480   17481
   17502   17503   17504   17466   17467   17468   17469   17482   17483   17484
   17485   17505   17506   17507   17461   17470   17471   17472   17473   17486
   17487   17488   17489   17508   17509   17510   17470   17471   17472   17473
   17490   17491   17492   17493   17511   17512   17513       0   17464   17474
   17475   17476   17477   17494   17495   17496   17497   17514   17515   17516
   17474   17475   17476   17477   17498   17499   17500   17501   17517   17518
   17519       0   17467   17478   17479   17480   17481   17502   17503   17520
   17478   17479   17480   17481   17502   17504   17520   17469   17482   17483
   17484   17485   17505   17506   17521   17482   17483   17484   17485   17505
   17507   17521   17471   17486   17487   17488   17489   17508   17509   17522
   17486   17487   17488   17489   17509   17510   17522   17473   17490   17491
   17492   17493   17511   17512   17523   17490   17491   17492   17493   17511
   17513   17523   17475   17494   17495   17496   17497   17514   17515   17524
   17494   17495   17496   17497   17514   17516   17524   17477   17498   17499
   17500   17501   17517   17518   17525   17498   17499   17500   17501   17517
   17519   17525   17479   17480   17502   17503   17504   17520   17526   17502
   17503   17481   17502   17503   17504   17520   17526   17502   17504   17483
   17505   17506   17485   17505   17506   17507   17521   17527   17485   17505
   17507   17505   17506   17507   17521   17527   17487   17488   17508   17509
   17510   17522   17528   17508   17509   17489   17508   17509   17510   17522
   17528   17509   17510   17491   17492   17511   17512   17513   17523   17529
   17511   17512   17493   17511   17512   17513   17523   17529   17511   17513
   17495   17496   17514   17515   17516   17524   17530   17514   17515   17497
   17514   17515   17516   17524   17530   17514   17516   17499   17500   17517
   17518   17519   17525   17531   17517   17518   17501   17517   17518   17519
   17525   17531   17517   17519   17503   17504   17520   17526   17532   17533
   17534   17520   17520   17506   17507   17521   17527   17535   17536   17537
   17521   17521   17509   17522   17510   17522   17528   17538   17539   17540
   17522   17512   17513   17523   17529   17541   17542   17543   17523   17523
   17515   17516   17524   17530   17544   17545   17546   17524   17524   17518
   17519   17525   17531   17547   17548   17549   17525   17525   17526   17532
   17533   17534   17527   17535   17536   17537   17528   17538   17539   17540
   17529   17541   17542   17543   17530   17544   17545   17546   17531   17547
   17548   17549   17532   17533   17534   17535   17536   17537   17538   17539
   17540   17541   17542   17543   17544   17545   17546   17547   17548   17549
   17533   17534   17534       0   17536   17537   17537       0   17539   17540
   17540       0   17542   17543   17543       0   17545   17546   17546       0
   17548   17549   17549       0   17551   17552   17553   17554   17555   17556
   17557   17558   17559   17560   17561   17552   17553   17554   17555   17556
   17557   17558   17559   17560   17561   17562   17563   17564   17553   17554
   17555   17556   17557   17554   17558   17559   17560   17561   17562   17563
   17565   17558   17559   17560   17561   17562   17564   17565   17556   17557
   17557       0   17559   17560   17562   17563   17564   17565   17566   17567
   17562   17563   17561   17562   17563   17564   17565   17566   17567   17562
   17564   17563   17564   17565   17566   17567   17568   17569   17570   17571
   17565   17565   17566   17567   17568   17569   17570   17571   17572   17573
   17574   17575   17576   17577   17578   17579   17567   17568   17569   17570
   17571   17572   17573   17574   17575   17580   17581   17582   17568   17569
   17570   17571   17576   17577   17578   17579   17583   17584   17585   17569
   17572   17573   17574   17575   17580   17581   17586   17587   17588   17589
   17572   17573   17574   17575   17580   17582   17586   17571   17576   17577
   17578   17579   17583   17584   17590   17576   17577   17578   17579   17583
   17585   17590   17573   17574   17580   17581   17582   17586   17587   17588
   17589   17591   17592   17593   17594   17595   17596   17580   17581   17575
   17580   17581   17582   17586   17587   17591   17580   17582   17577   17578
   17583   17584   17585   17590   17597   17583   17584   17579   17583   17584
   17585   17590   17597   17583   17585   17581   17582   17586   17587   17588
   17589   17591   17592   17598   17599   17586   17587   17588   17589   17591
   17592   17593   17594   17595   17596   17600   17601   17602   17603   17604
   17605   17606   17607   17586   17584   17585   17590   17597   17608   17609
   17610   17590   17590   17587   17588   17589   17591   17592   17598   17599
   17600   17601   17611   17588   17589   17591   17592   17593   17594   17595
   17596   17598   17599   17600   17601   17612   17589   17592   17593   17594
   17595   17596   17602   17603   17604   17607   17613   17614   17615   17592
   17593   17594   17595   17596   17604   17605   17606   17607   17616   17617
   17618   17597   17608   17609   17610   17592   17598   17599   17600   17611
   17612   17598   17600   17601   17611   17612   17619   17620   17594   17596
   17602   17603   17604   17613   17614   17621   17622   17623   17595   17596
   17602   17603   17604   17607   17614   17615   17617   17618   17623   17596
   17605   17606   17607   17616   17617   17624   17625   17626   17604   17605
   17606   17607   17614   17615   17617   17618   17626   17608   17609   17610
   17599   17600   17601   17611   17612   17619   17620   17600   17611   17601
   17611   17612   17619   17620   17627   17628   17629   17630   17612   17603
   17604   17613   17614   17615   17621   17622   17623   17631   17632   17633
   17634   17613   17614   17607   17613   17614   17615   17623   17606   17616
   17617   17607   17616   17617   17618   17624   17625   17626   17635   17636
   17637   17638   17616   17617   17618   17626   17609   17610   17610       0
   17612   17619   17620   17627   17628   17629   17630   17639   17640   17641
   17642   17643   17644   17645   17646   17614   17621   17622   17623   17631
   17632   17633   17634   17647   17648   17649   17650   17651   17652   17653
   17654   17615   17621   17622   17623   17623   17617   17624   17625   17626
   17635   17636   17637   17638   17655   17656   17657   17658   17659   17660
   17661   17662   17618   17624   17625   17626   17626   17620   17627   17628
   17629   17630   17639   17640   17641   17642   17663   17664   17665   17627
   17628   17629   17630   17643   17644   17645   17646   17666   17667   17668
   17622   17631   17632   17633   17634   17647   17648   17649   17650   17669
   17670   17671   17631   17632   17633   17634   17651   17652   17653   17654
   17672   17673   17674       0   17625   17635   17636   17637   17638   17655
   17656   17657   17658   17675   17676   17677   17635   17636   17637   17638
   17659   17660   17661   17662   17678   17679   17680       0   17628   17639
   17640   17641   17642   17663   17664   17681   17639   17640   17641   17642
   17663   17665   17681   17630   17643   17644   17645   17646   17666   17667
   17682   17643   17644   17645   17646   17666   17668   17682   17632   17647
   17648   17649   17650   17669   17670   17683   17647   17648   17649   17650
   17670   17671   17683   17634   17651   17652   17653   17654   17672   17673
   17684   17651   17652   17653   17654   17672   17674   17684   17636   17655
   17656   17657   17658   17675   17676   17685   17655   17656   17657   17658
   17675   17677   17685   17638   17659   17660   17661   17662   17678   17679
   17686   17659   17660   17661   17662   17678   17680   17686   17640   17641
   17663   17664   17665   17681   17687   17663   17664   17642   17663   17664
   17665   17681   17687   17663   17665   17644   17666   17667   17646   17666
   17667   17668   17682   17688   17646   17666   17668   17666   17667   17668
   17682   17688   17648   17649   17669   17670   17671   17683   17689   17669
   17670   17650   17669   17670   17671   17683   17689   17670   17671   17652
   17653   17672   17673   17674   17684   17690   17672   17673   17654   17672
   17673   17674   17684   17690   17672   17674   17656   17657   17675   17676
   17677   17685   17691   17675   17676   17658   17675   17676   17677   17685
   17691   17675   17677   17660   17661   17678   17679   17680   17686   17692
   17678   17679   17662   17678   17679   17680   17686   17692   17678   17680
   17664   17665   17681   17687   17693   17694   17695   17681   17681   17667
   17668   17682   17688   17696   17697   17698   17682   17682   17670   17683
   17671   17683   17689   17699   17700   17701   17683   17673   17674   17684
   17690   17702   17703   17704   17684   17684   17676   17677   17685   17691
   17705   17706   17707   17685   17685   17679   17680   17686   17692   17708
   17709   17710   17686   17686   17687   17693   17694   17695   17688   17696
   17697   17698   17689   17699   17700   17701   17690   17702   17703   17704
   17691   17705   17706   17707   17692   17708   17709   17710   17693   17694
   17695   17696   17697   17698   17699   17700   17701   17702   17703   17704
   17705   17706   17707   17708   17709   17710   17694   17695   17695       0
   17697   17698   17698       0   17700   17701   17701       0   17703   17704
   17704       0   17706   17707   17707       0   17709   17710   17710       0
   17712   17713   17714   17715   17716   17717   17718   17719   17720   17721
   17722   17713   17714   17715   17716   17717   17718   17719   17720   17721
   17722   17723   17724   17725   17714   17715   17716   17717   17718   17715
   17719   17720   17721   17722   17723   17724   17726   17719   17720   17721
   17722   17723   17725   17726   17717   17718   17718       0   17720   17721
   17723   17724   17725   17726   17727   17728   17723   17724   17722   17723
   17724   17725   17726   17727   17728   17723   17725   17724   17725   17726
   17727   17728   17729   17730   17731   17732   17726   17726   17727   17728
   17729   17730   17731   17732   17733   17734   17735   17736   17737   17738
   17739   17740   17728   17729   17730   17731   17732   17733   17734   17735
   17736   17741   17742   17743   17729   17730   17731   17732   17737   17738
   17739   17740   17744   17745   17746   17730   17733   17734   17735   17736
   17741   17742   17747   17748   17749   17750   17733   17734   17735   17736
   17741   17743   17747   17732   17737   17738   17739   17740   17744   17745
   17751   17737   17738   17739   17740   17744   17746   17751   17734   17735
   17741   17742   17743   17747   17748   17749   17750   17752   17753   17754
   17755   17756   17757   17741   17742   17736   17741   17742   17743   17747
   17748   17752   17741   17743   17738   17739   17744   17745   17746   17751
   17758   17744   17745   17740   17744   17745   17746   17751   17758   17744
   17746   17742   17743   17747   17748   17749   17750   17752   17753   17759
   17760   17747   17748   17749   17750   17752   17753   17754   17755   17756
   17757   17761   17762   17763   17764   17765   17766   17767   17768   17747
   17745   17746   17751   17758   17769   17770   17771   17751   17751   17748
   17749   17750   17752   17753   17759   17760   17761   17762   17772   17749
   17750   17752   17753   17754   17755   17756   17757   17759   17760   17761
   17762   17773   17750   17753   17754   17755   17756   17757   17763   17764
   17765   17768   17774   17775   17776   17753   17754   17755   17756   17757
   17765   17766   17767   17768   17777   17778   17779   17758   17769   17770
   17771   17753   17759   17760   17761   17772   17773   17759   17761   17762
   17772   17773   17780   17781   17755   17757   17763   17764   17765   17774
   17775   17782   17783   17784   17756   17757   17763   17764   17765   17768
   17775   17776   17778   17779   17784   17757   17766   17767   17768   17777
   17778   17785   17786   17787   17765   17766   17767   17768   17775   17776
   17778   17779   17787   17769   17770   17771   17760   17761   17762   17772
   17773   17780   17781   17761   17772   17762   17772   17773   17780   17781
   17788   17789   17790   17791   17773   17764   17765   17774   17775   17776
   17782   17783   17784   17792   17793   17794   17795   17774   17775   17768
   17774   17775   17776   17784   17767   17777   17778   17768   17777   17778
   17779   17785   17786   17787   17796   17797   17798   17799   17777   17778
   17779   17787   17770   17771   17771       0   17773   17780   17781   17788
   17789   17790   17791   17800   17801   17802   17803   17804   17805   17806
   17807   17775   17782   17783   17784   17792   17793   17794   17795   17808
   17809   17810   17811   17812   17813   17814   17815   17776   17782   17783
   17784   17784   17778   17785   17786   17787   17796   17797   17798   17799
   17816   17817   17818   17819   17820   17821   17822   17823   17779   17785
   17786   17787   17787   17781   17788   17789   17790   17791   17800   17801
   17802   17803   17824   17825   17826   17788   17789   17790   17791   17804
   17805   17806   17807   17827   17828   17829   17783   17792   17793   17794
   17795   17808   17809   17810   17811   17830   17831   17832   17792   17793
   17794   17795   17812   17813   17814   17815   17833   17834   17835       0
   17786   17796   17797   17798   17799   17816   17817   17818   17819   17836
   17837   17838   17796   17797   17798   17799   17820   17821   17822   17823
   17839   17840   17841       0   17789   17800   17801   17802   17803   17824
   17825   17842   17800   17801   17802   17803   17824   17826   17842   17791
   17804   17805   17806   17807   17827   17828   17843   17804   17805   17806
   17807   17827   17829   17843   17793   17808   17809   17810   17811   17830
   17831   17844   17808   17809   17810   17811   17831   17832   17844   17795
   17812   17813   17814   17815   17833   17834   17845   17812   17813   17814
   17815   17833   17835   17845   17797   17816   17817   17818   17819   17836
   17837   17846   17816   17817   17818   17819   17836   17838   17846   17799
   17820   17821   17822   17823   17839   17840   17847   17820   17821   17822
   17823   17839   17841   17847   17801   17802   17824   17825   17826   17842
   17848   17824   17825   17803   17824   17825   17826   17842   17848   17824
   17826   17805   17827   17828   17807   17827   17828   17829   17843   17849
   17807   17827   17829   17827   17828   17829   17843   17849   17809   17810
   17830   17831   17832   17844   17850   17830   17831   17811   17830   17831
   17832   17844   17850   17831   17832   17813   17814   17833   17834   17835
   17845   17851   17833   17834   17815   17833   17834   17835   17845   17851
   17833   17835   17817   17818   17836   17837   17838   17846   17852   17836
   17837   17819   17836   17837   17838   17846   17852   17836   17838   17821
   17822   17839   17840   17841   17847   17853   17839   17840   17823   17839
   17840   17841   17847   17853   17839   17841   17825   17826   17842   17848
   17854   17855   17856   17842   17842   17828   17829   17843   17849   17857
   17858   17859   17843   17843   17831   17844   17832   17844   17850   17860
   17861   17862   17844   17834   17835   17845   17851   17863   17864   17865
   17845   17845   17837   17838   17846   17852   17866   17867   17868   17846
   17846   17840   17841   17847   17853   17869   17870   17871   17847   17847
   17848   17854   17855   17856   17849   17857   17858   17859   17850   17860
   17861   17862   17851   17863   17864   17865   17852   17866   17867   17868
   17853   17869   17870   17871   17854   17855   17856   17857   17858   17859
   17860   17861   17862   17863   17864   17865   17866   17867   17868   17869
   17870   17871   17855   17856   17856       0   17858   17859   17859       0
   17861   17862   17862       0   17864   17865   17865       0   17867   17868
   17868       0   17870   17871   17871       0   17873   17874   17875   17876
   17877   17878   17879   17880   17881   17882   17883   17874   17875   17876
   17877   17878   17879   17880   17881   17882   17883   17884   17885   17886
   17875   17876   17877   17878   17879   17876   17880   17881   17882   17883
   17884   17885   17887   17880   17881   17882   17883   17884   17886   17887
   17878   17879   17879       0   17881   17882   17884   17885   17886   17887
   17888   17889   17884   17885   17883   17884   17885   17886   17887   17888
   17889   17884   17886   17885   17886   17887   17888   17889   17890   17891
   17892   17893   17887   17887   17888   17889   17890   17891   17892   17893
   17894   17895   17896   17897   17898   17899   17900   17901   17889   17890
   17891   17892   17893   17894   17895   17896   17897   17902   17903   17904
   17890   17891   17892   17893   17898   17899   17900   17901   17905   17906
   17907   17891   17894   17895   17896   17897   17902   17903   17908   17909
   17910   17911   17894   17895   17896   17897   17902   17904   17908   17893
   17898   17899   17900   17901   17905   17906   17912   17898   17899   17900
   17901   17905   17907   17912   17895   17896   17902   17903   17904   17908
   17909   17910   17911   17913   17914   17915   17916   17917   17918   17902
   17903   17897   17902   17903   17904   17908   17909   17913   17902   17904
   17899   17900   17905   17906   17907   17912   17919   17905   17906   17901
   17905   17906   17907   17912   17919   17905   17907   17903   17904   17908
   17909   17910   17911   17913   17914   17920   17921   17908   17909   17910
   17911   17913   17914   17915   17916   17917   17918   17922   17923   17924
   17925   17926   17927   17928   17929   17908   17906   17907   17912   17919
   17930   17931   17932   17912   17912   17909   17910   17911   17913   17914
   17920   17921   17922   17923   17933   17910   17911   17913   17914   17915
   17916   17917   17918   17920   17921   17922   17923   17934   17911   17914
   17915   17916   17917   17918   17924   17925   17926   17929   17935   17936
   17937   17914   17915   17916   17917   17918   17926   17927   17928   17929
   17938   17939   17940   17919   17930   17931   17932   17914   17920   17921
   17922   17933   17934   17920   17922   17923   17933   17934   17941   17942
   17916   17918   17924   17925   17926   17935   17936   17943   17944   17945
   17917   17918   17924   17925   17926   17929   17936   17937   17939   17940
   17945   17918   17927   17928   17929   17938   17939   17946   17947   17948
   17926   17927   17928   17929   17936   17937   17939   17940   17948   17930
   17931   17932   17921   17922   17923   17933   17934   17941   17942   17922
   17933   17923   17933   17934   17941   17942   17949   17950   17951   17952
   17934   17925   17926   17935   17936   17937   17943   17944   17945   17953
   17954   17955   17956   17935   17936   17929   17935   17936   17937   17945
   17928   17938   17939   17929   17938   17939   17940   17946   17947   17948
   17957   17958   17959   17960   17938   17939   17940   17948   17931   17932
   17932       0   17934   17941   17942   17949   17950   17951   17952   17961
   17962   17963   17964   17965   17966   17967   17968   17936   17943   17944
   17945   17953   17954   17955   17956   17969   17970   17971   17972   17973
   17974   17975   17976   17937   17943   17944   17945   17945   17939   17946
   17947   17948   17957   17958   17959   17960   17977   17978   17979   17980
   17981   17982   17983   17984   17940   17946   17947   17948   17948   17942
   17949   17950   17951   17952   17961   17962   17963   17964   17985   17986
   17987   17949   17950   17951   17952   17965   17966   17967   17968   17988
   17989   17990   17944   17953   17954   17955   17956   17969   17970   17971
   17972   17991   17992   17993   17953   17954   17955   17956   17973   17974
   17975   17976   17994   17995   17996       0   17947   17957   17958   17959
   17960   17977   17978   17979   17980   17997   17998   17999   17957   17958
   17959   17960   17981   17982   17983   17984   18000   18001   18002       0
   17950   17961   17962   17963   17964   17985   17986   18003   17961   17962
   17963   17964   17985   17987   18003   17952   17965   17966   17967   17968
   17988   17989   18004   17965   17966   17967   17968   17988   17990   18004
   17954   17969   17970   17971   17972   17991   17992   18005   17969   17970
   17971   17972   17992   17993   18005   17956   17973   17974   17975   17976
   17994   17995   18006   17973   17974   17975   17976   17994   17996   18006
   17958   17977   17978   17979   17980   17997   17998   18007   17977   17978
   17979   17980   17997   17999   18007   17960   17981   17982   17983   17984
   18000   18001   18008   17981   17982   17983   17984   18000   18002   18008
   17962   17963   17985   17986   17987   18003   18009   17985   17986   17964
   17985   17986   17987   18003   18009   17985   17987   17966   17988   17989
   17968   17988   17989   17990   18004   18010   17968   17988   17990   17988
   17989   17990   18004   18010   17970   17971   17991   17992   17993   18005
   18011   17991   17992   17972   17991   17992   17993   18005   18011   17992
   17993   17974   17975   17994   17995   17996   18006   18012   17994   17995
   17976   17994   17995   17996   18006   18012   17994   17996   17978   17979
   17997   17998   17999   18007   18013   17997   17998   17980   17997   17998
   17999   18007   18013   17997   17999   17982   17983   18000   18001   18002
   18008   18014   18000   18001   17984   18000   18001   18002   18008   18014
   18000   18002   17986   17987   18003   18009   18015   18016   18017   18003
   18003   17989   17990   18004   18010   18018   18019   18020   18004   18004
   17992   18005   17993   18005   18011   18021   18022   18023   18005   17995
   17996   18006   18012   18024   18025   18026   18006   18006   17998   17999
   18007   18013   18027   18028   18029   18007   18007   18001   18002   18008
   18014   18030   18031   18032   18008   18008   18009   18015   18016   18017
   18010   18018   18019   18020   18011   18021   18022   18023   18012   18024
   18025   18026   18013   18027   18028   18029   18014   18030   18031   18032
   18015   18016   18017   18018   18019   18020   18021   18022   18023   18024
   18025   18026   18027   18028   18029   18030   18031   18032   18016   18017
   18017       0   18019   18020   18020       0   18022   18023   18023       0
   18025   18026   18026       0   18028   18029   18029       0   18031   18032
   18032       0   18034   18035   18036   18037   18038   18039   18040   18041
   18042   18043   18044   18035   18036   18037   18038   18039   18040   18041
   18042   18043   18044   18045   18046   18047   18036   18037   18038   18039
   18040   18037   18041   18042   18043   18044   18045   18046   18048   18041
   18042   18043   18044   18045   18047   18048   18039   18040   18040       0
   18042   18043   18045   18046   18047   18048   18049   18050   18045   18046
   18044   18045   18046   18047   18048   18049   18050   18045   18047   18046
   18047   18048   18049   18050   18051   18052   18053   18054   18048   18048
   18049   18050   18051   18052   18053   18054   18055   18056   18057   18058
   18059   18060   18061   18062   18050   18051   18052   18053   18054   18055
   18056   18057   18058   18063   18064   18065   18051   18052   18053   18054
   18059   18060   18061   18062   18066   18067   18068   18052   18055   18056
   18057   18058   18063   18064   18069   18070   18071   18072   18055   18056
   18057   18058   18063   18065   18069   18054   18059   18060   18061   18062
   18066   18067   18073   18059   18060   18061   18062   18066   18068   18073
   18056   18057   18063   18064   18065   18069   18070   18071   18072   18074
   18075   18076   18077   18078   18079   18063   18064   18058   18063   18064
   18065   18069   18070   18074   18063   18065   18060   18061   18066   18067
   18068   18073   18080   18066   18067   18062   18066   18067   18068   18073
   18080   18066   18068   18064   18065   18069   18070   18071   18072   18074
   18075   18081   18082   18069   18070   18071   18072   18074   18075   18076
   18077   18078   18079   18083   18084   18085   18086   18087   18088   18089
   18090   18069   18067   18068   18073   18080   18091   18092   18093   18073
   18073   18070   18071   18072   18074   18075   18081   18082   18083   18084
   18094   18071   18072   18074   18075   18076   18077   18078   18079   18081
   18082   18083   18084   18095   18072   18075   18076   18077   18078   18079
   18085   18086   18087   18090   18096   18097   18098   18075   18076   18077
   18078   18079   18087   18088   18089   18090   18099   18100   18101   18080
   18091   18092   18093   18075   18081   18082   18083   18094   18095   18081
   18083   18084   18094   18095   18102   18103   18077   18079   18085   18086
   18087   18096   18097   18104   18105   18106   18078   18079   18085   18086
   18087   18090   18097   18098   18100   18101   18106   18079   18088   18089
   18090   18099   18100   18107   18108   18109   18087   18088   18089   18090
   18097   18098   18100   18101   18109   18091   18092   18093   18082   18083
   18084   18094   18095   18102   18103   18083   18094   18084   18094   18095
   18102   18103   18110   18111   18112   18113   18095   18086   18087   18096
   18097   18098   18104   18105   18106   18114   18115   18116   18117   18096
   18097   18090   18096   18097   18098   18106   18089   18099   18100   18090
   18099   18100   18101   18107   18108   18109   18118   18119   18120   18121
   18099   18100   18101   18109   18092   18093   18093       0   18095   18102
   18103   18110   18111   18112   18113   18122   18123   18124   18125   18126
   18127   18128   18129   18097   18104   18105   18106   18114   18115   18116
   18117   18130   18131   18132   18133   18134   18135   18136   18137   18098
   18104   18105   18106   18106   18100   18107   18108   18109   18118   18119
   18120   18121   18138   18139   18140   18141   18142   18143   18144   18145
   18101   18107   18108   18109   18109   18103   18110   18111   18112   18113
   18122   18123   18124   18125   18146   18147   18148   18110   18111   18112
   18113   18126   18127   18128   18129   18149   18150   18151   18105   18114
   18115   18116   18117   18130   18131   18132   18133   18152   18153   18154
   18114   18115   18116   18117   18134   18135   18136   18137   18155   18156
   18157       0   18108   18118   18119   18120   18121   18138   18139   18140
   18141   18158   18159   18160   18118   18119   18120   18121   18142   18143
   18144   18145   18161   18162   18163       0   18111   18122   18123   18124
   18125   18146   18147   18164   18122   18123   18124   18125   18146   18148
   18164   18113   18126   18127   18128   18129   18149   18150   18165   18126
   18127   18128   18129   18149   18151   18165   18115   18130   18131   18132
   18133   18152   18153   18166   18130   18131   18132   18133   18153   18154
   18166   18117   18134   18135   18136   18137   18155   18156   18167   18134
   18135   18136   18137   18155   18157   18167   18119   18138   18139   18140
   18141   18158   18159   18168   18138   18139   18140   18141   18158   18160
   18168   18121   18142   18143   18144   18145   18161   18162   18169   18142
   18143   18144   18145   18161   18163   18169   18123   18124   18146   18147
   18148   18164   18170   18146   18147   18125   18146   18147   18148   18164
   18170   18146   18148   18127   18149   18150   18129   18149   18150   18151
   18165   18171   18129   18149   18151   18149   18150   18151   18165   18171
   18131   18132   18152   18153   18154   18166   18172   18152   18153   18133
   18152   18153   18154   18166   18172   18153   18154   18135   18136   18155
   18156   18157   18167   18173   18155   18156   18137   18155   18156   18157
   18167   18173   18155   18157   18139   18140   18158   18159   18160   18168
   18174   18158   18159   18141   18158   18159   18160   18168   18174   18158
   18160   18143   18144   18161   18162   18163   18169   18175   18161   18162
   18145   18161   18162   18163   18169   18175   18161   18163   18147   18148
   18164   18170   18176   18177   18178   18164   18164   18150   18151   18165
   18171   18179   18180   18181   18165   18165   18153   18166   18154   18166
   18172   18182   18183   18184   18166   18156   18157   18167   18173   18185
   18186   18187   18167   18167   18159   18160   18168   18174   18188   18189
   18190   18168   18168   18162   18163   18169   18175   18191   18192   18193
   18169   18169   18170   18176   18177   18178   18171   18179   18180   18181
   18172   18182   18183   18184   18173   18185   18186   18187   18174   18188
   18189   18190   18175   18191   18192   18193   18176   18177   18178   18179
   18180   18181   18182   18183   18184   18185   18186   18187   18188   18189
   18190   18191   18192   18193   18177   18178   18178       0   18180   18181
   18181       0   18183   18184   18184       0   18186   18187   18187       0
   18189   18190   18190       0   18192   18193   18193       0   18195   18196
   18197   18198   18199   18200   18201   18202   18203   18204   18205   18196
   18197   18198   18199   18200   18201   18202   18203   18204   18205   18206
   18207   18208   18197   18198   18199   18200   18201   18198   18202   18203
   18204   18205   18206   18207   18209   18202   18203   18204   18205   18206
   18208   18209   18200   18201   18201       0   18203   18204   18206   18207
   18208   18209   18210   18211   18206   18207   18205   18206   18207   18208
   18209   18210   18211   18206   18208   18207   18208   18209   18210   18211
   18212   18213   18214   18215   18209   18209   18210   18211   18212   18213
   18214   18215   18216   18217   18218   18219   18220   18221   18222   18223
   18211   18212   18213   18214   18215   18216   18217   18218   18219   18224
   18225   18226   18212   18213   18214   18215   18220   18221   18222   18223
   18227   18228   18229   18213   18216   18217   18218   18219   18224   18225
   18230   18231   18232   18233   18216   18217   18218   18219   18224   18226
   18230   18215   18220   18221   18222   18223   18227   18228   18234   18220
   18221   18222   18223   18227   18229   18234   18217   18218   18224   18225
   18226   18230   18231   18232   18233   18235   18236   18237   18238   18239
   18240   18224   18225   18219   18224   18225   18226   18230   18231   18235
   18224   18226   18221   18222   18227   18228   18229   18234   18241   18227
   18228   18223   18227   18228   18229   18234   18241   18227   18229   18225
   18226   18230   18231   18232   18233   18235   18236   18242   18243   18230
   18231   18232   18233   18235   18236   18237   18238   18239   18240   18244
   18245   18246   18247   18248   18249   18250   18251   18230   18228   18229
   18234   18241   18252   18253   18254   18234   18234   18231   18232   18233
   18235   18236   18242   18243   18244   18245   18255   18232   18233   18235
   18236   18237   18238   18239   18240   18242   18243   18244   18245   18256
   18233   18236   18237   18238   18239   18240   18246   18247   18248   18251
   18257   18258   18259   18236   18237   18238   18239   18240   18248   18249
   18250   18251   18260   18261   18262   18241   18252   18253   18254   18236
   18242   18243   18244   18255   18256   18242   18244   18245   18255   18256
   18263   18264   18238   18240   18246   18247   18248   18257   18258   18265
   18266   18267   18239   18240   18246   18247   18248   18251   18258   18259
   18261   18262   18267   18240   18249   18250   18251   18260   18261   18268
   18269   18270   18248   18249   18250   18251   18258   18259   18261   18262
   18270   18252   18253   18254   18243   18244   18245   18255   18256   18263
   18264   18244   18255   18245   18255   18256   18263   18264   18271   18272
   18273   18274   18256   18247   18248   18257   18258   18259   18265   18266
   18267   18275   18276   18277   18278   18257   18258   18251   18257   18258
   18259   18267   18250   18260   18261   18251   18260   18261   18262   18268
   18269   18270   18279   18280   18281   18282   18260   18261   18262   18270
   18253   18254   18254       0   18256   18263   18264   18271   18272   18273
   18274   18283   18284   18285   18286   18287   18288   18289   18290   18258
   18265   18266   18267   18275   18276   18277   18278   18291   18292   18293
   18294   18295   18296   18297   18298   18259   18265   18266   18267   18267
   18261   18268   18269   18270   18279   18280   18281   18282   18299   18300
   18301   18302   18303   18304   18305   18306   18262   18268   18269   18270
   18270   18264   18271   18272   18273   18274   18283   18284   18285   18286
   18307   18308   18309   18271   18272   18273   18274   18287   18288   18289
   18290   18310   18311   18312   18266   18275   18276   18277   18278   18291
   18292   18293   18294   18313   18314   18315   18275   18276   18277   18278
   18295   18296   18297   18298   18316   18317   18318       0   18269   18279
   18280   18281   18282   18299   18300   18301   18302   18319   18320   18321
   18279   18280   18281   18282   18303   18304   18305   18306   18322   18323
   18324       0   18272   18283   18284   18285   18286   18307   18308   18325
   18283   18284   18285   18286   18307   18309   18325   18274   18287   18288
   18289   18290   18310   18311   18326   18287   18288   18289   18290   18310
   18312   18326   18276   18291   18292   18293   18294   18313   18314   18327
   18291   18292   18293   18294   18314   18315   18327   18278   18295   18296
   18297   18298   18316   18317   18328   18295   18296   18297   18298   18316
   18318   18328   18280   18299   18300   18301   18302   18319   18320   18329
   18299   18300   18301   18302   18319   18321   18329   18282   18303   18304
   18305   18306   18322   18323   18330   18303   18304   18305   18306   18322
   18324   18330   18284   18285   18307   18308   18309   18325   18331   18307
   18308   18286   18307   18308   18309   18325   18331   18307   18309   18288
   18310   18311   18290   18310   18311   18312   18326   18332   18290   18310
   18312   18310   18311   18312   18326   18332   18292   18293   18313   18314
   18315   18327   18333   18313   18314   18294   18313   18314   18315   18327
   18333   18314   18315   18296   18297   18316   18317   18318   18328   18334
   18316   18317   18298   18316   18317   18318   18328   18334   18316   18318
   18300   18301   18319   18320   18321   18329   18335   18319   18320   18302
   18319   18320   18321   18329   18335   18319   18321   18304   18305   18322
   18323   18324   18330   18336   18322   18323   18306   18322   18323   18324
   18330   18336   18322   18324   18308   18309   18325   18331   18337   18338
   18339   18325   18325   18311   18312   18326   18332   18340   18341   18342
   18326   18326   18314   18327   18315   18327   18333   18343   18344   18345
   18327   18317   18318   18328   18334   18346   18347   18348   18328   18328
   18320   18321   18329   18335   18349   18350   18351   18329   18329   18323
   18324   18330   18336   18352   18353   18354   18330   18330   18331   18337
   18338   18339   18332   18340   18341   18342   18333   18343   18344   18345
   18334   18346   18347   18348   18335   18349   18350   18351   18336   18352
   18353   18354   18337   18338   18339   18340   18341   18342   18343   18344
   18345   18346   18347   18348   18349   18350   18351   18352   18353   18354
   18338   18339   18339       0   18341   18342   18342       0   18344   18345
   18345       0   18347   18348   18348       0   18350   18351   18351       0
   18353   18354   18354       0   18356   18357   18358   18359   18360   18361
   18362   18363   18364   18365   18366   18357   18358   18359   18360   18361
   18362   18363   18364   18365   18366   18367   18368   18369   18358   18359
   18360   18361   18362   18359   18363   18364   18365   18366   18367   18368
   18370   18363   18364   18365   18366   18367   18369   18370   18361   18362
   18362       0   18364   18365   18367   18368   18369   18370   18371   18372
   18367   18368   18366   18367   18368   18369   18370   18371   18372   18367
   18369   18368   18369   18370   18371   18372   18373   18374   18375   18376
   18370   18370   18371   18372   18373   18374   18375   18376   18377   18378
   18379   18380   18381   18382   18383   18384   18372   18373   18374   18375
   18376   18377   18378   18379   18380   18385   18386   18387   18373   18374
   18375   18376   18381   18382   18383   18384   18388   18389   18390   18374
   18377   18378   18379   18380   18385   18386   18391   18392   18393   18394
   18377   18378   18379   18380   18385   18387   18391   18376   18381   18382
   18383   18384   18388   18389   18395   18381   18382   18383   18384   18388
   18390   18395   18378   18379   18385   18386   18387   18391   18392   18393
   18394   18396   18397   18398   18399   18400   18401   18385   18386   18380
   18385   18386   18387   18391   18392   18396   18385   18387   18382   18383
   18388   18389   18390   18395   18402   18388   18389   18384   18388   18389
   18390   18395   18402   18388   18390   18386   18387   18391   18392   18393
   18394   18396   18397   18403   18404   18391   18392   18393   18394   18396
   18397   18398   18399   18400   18401   18405   18406   18407   18408   18409
   18410   18411   18412   18391   18389   18390   18395   18402   18413   18414
   18415   18395   18395   18392   18393   18394   18396   18397   18403   18404
   18405   18406   18416   18393   18394   18396   18397   18398   18399   18400
   18401   18403   18404   18405   18406   18417   18394   18397   18398   18399
   18400   18401   18407   18408   18409   18412   18418   18419   18420   18397
   18398   18399   18400   18401   18409   18410   18411   18412   18421   18422
   18423   18402   18413   18414   18415   18397   18403   18404   18405   18416
   18417   18403   18405   18406   18416   18417   18424   18425   18399   18401
   18407   18408   18409   18418   18419   18426   18427   18428   18400   18401
   18407   18408   18409   18412   18419   18420   18422   18423   18428   18401
   18410   18411   18412   18421   18422   18429   18430   18431   18409   18410
   18411   18412   18419   18420   18422   18423   18431   18413   18414   18415
   18404   18405   18406   18416   18417   18424   18425   18405   18416   18406
   18416   18417   18424   18425   18432   18433   18434   18435   18417   18408
   18409   18418   18419   18420   18426   18427   18428   18436   18437   18438
   18439   18418   18419   18412   18418   18419   18420   18428   18411   18421
   18422   18412   18421   18422   18423   18429   18430   18431   18440   18441
   18442   18443   18421   18422   18423   18431   18414   18415   18415       0
   18417   18424   18425   18432   18433   18434   18435   18444   18445   18446
   18447   18448   18449   18450   18451   18419   18426   18427   18428   18436
   18437   18438   18439   18452   18453   18454   18455   18456   18457   18458
   18459   18420   18426   18427   18428   18428   18422   18429   18430   18431
   18440   18441   18442   18443   18460   18461   18462   18463   18464   18465
   18466   18467   18423   18429   18430   18431   18431   18425   18432   18433
   18434   18435   18444   18445   18446   18447   18468   18469   18470   18432
   18433   18434   18435   18448   18449   18450   18451   18471   18472   18473
   18427   18436   18437   18438   18439   18452   18453   18454   18455   18474
   18475   18476   18436   18437   18438   18439   18456   18457   18458   18459
   18477   18478   18479       0   18430   18440   18441   18442   18443   18460
   18461   18462   18463   18480   18481   18482   18440   18441   18442   18443
   18464   18465   18466   18467   18483   18484   18485       0   18433   18444
   18445   18446   18447   18468   18469   18486   18444   18445   18446   18447
   18468   18470   18486   18435   18448   18449   18450   18451   18471   18472
   18487   18448   18449   18450   18451   18471   18473   18487   18437   18452
   18453   18454   18455   18474   18475   18488   18452   18453   18454   18455
   18475   18476   18488   18439   18456   18457   18458   18459   18477   18478
   18489   18456   18457   18458   18459   18477   18479   18489   18441   18460
   18461   18462   18463   18480   18481   18490   18460   18461   18462   18463
   18480   18482   18490   18443   18464   18465   18466   18467   18483   18484
   18491   18464   18465   18466   18467   18483   18485   18491   18445   18446
   18468   18469   18470   18486   18492   18468   18469   18447   18468   18469
   18470   18486   18492   18468   18470   18449   18471   18472   18451   18471
   18472   18473   18487   18493   18451   18471   18473   18471   18472   18473
   18487   18493   18453   18454   18474   18475   18476   18488   18494   18474
   18475   18455   18474   18475   18476   18488   18494   18475   18476   18457
   18458   18477   18478   18479   18489   18495   18477   18478   18459   18477
   18478   18479   18489   18495   18477   18479   18461   18462   18480   18481
   18482   18490   18496   18480   18481   18463   18480   18481   18482   18490
   18496   18480   18482   18465   18466   18483   18484   18485   18491   18497
   18483   18484   18467   18483   18484   18485   18491   18497   18483   18485
   18469   18470   18486   18492   18498   18499   18500   18486   18486   18472
   18473   18487   18493   18501   18502   18503   18487   18487   18475   18488
   18476   18488   18494   18504   18505   18506   18488   18478   18479   18489
   18495   18507   18508   18509   18489   18489   18481   18482   18490   18496
   18510   18511   18512   18490   18490   18484   18485   18491   18497   18513
   18514   18515   18491   18491   18492   18498   18499   18500   18493   18501
   18502   18503   18494   18504   18505   18506   18495   18507   18508   18509
   18496   18510   18511   18512   18497   18513   18514   18515   18498   18499
   18500   18501   18502   18503   18504   18505   18506   18507   18508   18509
   18510   18511   18512   18513   18514   18515   18499   18500   18500       0
   18502   18503   18503       0   18505   18506   18506       0   18508   18509
   18509       0   18511   18512   18512       0   18514   18515   18515       0
   18517   18518   18519   18520   18521   18522   18523   18524   18525   18526
   18527   18518   18519   18520   18521   18522   18523   18524   18525   18526
   18527   18528   18529   18530   18519   18520   18521   18522   18523   18520
   18524   18525   18526   18527   18528   18529   18531   18524   18525   18526
   18527   18528   18530   18531   18522   18523   18523       0   18525   18526
   18528   18529   18530   18531   18532   18533   18528   18529   18527   18528
   18529   18530   18531   18532   18533   18528   18530   18529   18530   18531
   18532   18533   18534   18535   18536   18537   18531   18531   18532   18533
   18534   18535   18536   18537   18538   18539   18540   18541   18542   18543
   18544   18545   18533   18534   18535   18536   18537   18538   18539   18540
   18541   18546   18547   18548   18534   18535   18536   18537   18542   18543
   18544   18545   18549   18550   18551   18535   18538   18539   18540   18541
   18546   18547   18552   18553   18554   18555   18538   18539   18540   18541
   18546   18548   18552   18537   18542   18543   18544   18545   18549   18550
   18556   18542   18543   18544   18545   18549   18551   18556   18539   18540
   18546   18547   18548   18552   18553   18554   18555   18557   18558   18559
   18560   18561   18562   18546   18547   18541   18546   18547   18548   18552
   18553   18557   18546   18548   18543   18544   18549   18550   18551   18556
   18563   18549   18550   18545   18549   18550   18551   18556   18563   18549
   18551   18547   18548   18552   18553   18554   18555   18557   18558   18564
   18565   18552   18553   18554   18555   18557   18558   18559   18560   18561
   18562   18566   18567   18568   18569   18570   18571   18572   18573   18552
   18550   18551   18556   18563   18574   18575   18576   18556   18556   18553
   18554   18555   18557   18558   18564   18565   18566   18567   18577   18554
   18555   18557   18558   18559   18560   18561   18562   18564   18565   18566
   18567   18578   18555   18558   18559   18560   18561   18562   18568   18569
   18570   18573   18579   18580   18581   18558   18559   18560   18561   18562
   18570   18571   18572   18573   18582   18583   18584   18563   18574   18575
   18576   18558   18564   18565   18566   18577   18578   18564   18566   18567
   18577   18578   18585   18586   18560   18562   18568   18569   18570   18579
   18580   18587   18588   18589   18561   18562   18568   18569   18570   18573
   18580   18581   18583   18584   18589   18562   18571   18572   18573   18582
   18583   18590   18591   18592   18570   18571   18572   18573   18580   18581
   18583   18584   18592   18574   18575   18576   18565   18566   18567   18577
   18578   18585   18586   18566   18577   18567   18577   18578   18585   18586
   18593   18594   18595   18596   18578   18569   18570   18579   18580   18581
   18587   18588   18589   18597   18598   18599   18600   18579   18580   18573
   18579   18580   18581   18589   18572   18582   18583   18573   18582   18583
   18584   18590   18591   18592   18601   18602   18603   18604   18582   18583
   18584   18592   18575   18576   18576       0   18578   18585   18586   18593
   18594   18595   18596   18605   18606   18607   18608   18609   18610   18611
   18612   18580   18587   18588   18589   18597   18598   18599   18600   18613
   18614   18615   18616   18617   18618   18619   18620   18581   18587   18588
   18589   18589   18583   18590   18591   18592   18601   18602   18603   18604
   18621   18622   18623   18624   18625   18626   18627   18628   18584   18590
   18591   18592   18592   18586   18593   18594   18595   18596   18605   18606
   18607   18608   18629   18630   18631   18593   18594   18595   18596   18609
   18610   18611   18612   18632   18633   18634   18588   18597   18598   18599
   18600   18613   18614   18615   18616   18635   18636   18637   18597   18598
   18599   18600   18617   18618   18619   18620   18638   18639   18640       0
   18591   18601   18602   18603   18604   18621   18622   18623   18624   18641
   18642   18643   18601   18602   18603   18604   18625   18626   18627   18628
   18644   18645   18646       0   18594   18605   18606   18607   18608   18629
   18630   18647   18605   18606   18607   18608   18629   18631   18647   18596
   18609   18610   18611   18612   18632   18633   18648   18609   18610   18611
   18612   18632   18634   18648   18598   18613   18614   18615   18616   18635
   18636   18649   18613   18614   18615   18616   18636   18637   18649   18600
   18617   18618   18619   18620   18638   18639   18650   18617   18618   18619
   18620   18638   18640   18650   18602   18621   18622   18623   18624   18641
   18642   18651   18621   18622   18623   18624   18641   18643   18651   18604
   18625   18626   18627   18628   18644   18645   18652   18625   18626   18627
   18628   18644   18646   18652   18606   18607   18629   18630   18631   18647
   18653   18629   18630   18608   18629   18630   18631   18647   18653   18629
   18631   18610   18632   18633   18612   18632   18633   18634   18648   18654
   18612   18632   18634   18632   18633   18634   18648   18654   18614   18615
   18635   18636   18637   18649   18655   18635   18636   18616   18635   18636
   18637   18649   18655   18636   18637   18618   18619   18638   18639   18640
   18650   18656   18638   18639   18620   18638   18639   18640   18650   18656
   18638   18640   18622   18623   18641   18642   18643   18651   18657   18641
   18642   18624   18641   18642   18643   18651   18657   18641   18643   18626
   18627   18644   18645   18646   18652   18658   18644   18645   18628   18644
   18645   18646   18652   18658   18644   18646   18630   18631   18647   18653
   18659   18660   18661   18647   18647   18633   18634   18648   18654   18662
   18663   18664   18648   18648   18636   18649   18637   18649   18655   18665
   18666   18667   18649   18639   18640   18650   18656   18668   18669   18670
   18650   18650   18642   18643   18651   18657   18671   18672   18673   18651
   18651   18645   18646   18652   18658   18674   18675   18676   18652   18652
   18653   18659   18660   18661   18654   18662   18663   18664   18655   18665
   18666   18667   18656   18668   18669   18670   18657   18671   18672   18673
   18658   18674   18675   18676   18659   18660   18661   18662   18663   18664
   18665   18666   18667   18668   18669   18670   18671   18672   18673   18674
   18675   18676   18660   18661   18661       0   18663   18664   18664       0
   18666   18667   18667       0   18669   18670   18670       0   18672   18673
   18673       0   18675   18676   18676       0   18678   18679   18680   18681
   18682   18683   18684   18685   18686   18687   18688   18679   18680   18681
   18682   18683   18684   18685   18686   18687   18688   18689   18690   18691
   18680   18681   18682   18683   18684   18681   18685   18686   18687   18688
   18689   18690   18692   18685   18686   18687   18688   18689   18691   18692
   18683   18684   18684       0   18686   18687   18689   18690   18691   18692
   18693   18694   18689   18690   18688   18689   18690   18691   18692   18693
   18694   18689   18691   18690   18691   18692   18693   18694   18695   18696
   18697   18698   18692   18692   18693   18694   18695   18696   18697   18698
   18699   18700   18701   18702   18703   18704   18705   18706   18694   18695
   18696   18697   18698   18699   18700   18701   18702   18707   18708   18709
   18695   18696   18697   18698   18703   18704   18705   18706   18710   18711
   18712   18696   18699   18700   18701   18702   18707   18708   18713   18714
   18715   18716   18699   18700   18701   18702   18707   18709   18713   18698
   18703   18704   18705   18706   18710   18711   18717   18703   18704   18705
   18706   18710   18712   18717   18700   18701   18707   18708   18709   18713
   18714   18715   18716   18718   18719   18720   18721   18722   18723   18707
   18708   18702   18707   18708   18709   18713   18714   18718   18707   18709
   18704   18705   18710   18711   18712   18717   18724   18710   18711   18706
   18710   18711   18712   18717   18724   18710   18712   18708   18709   18713
   18714   18715   18716   18718   18719   18725   18726   18713   18714   18715
   18716   18718   18719   18720   18721   18722   18723   18727   18728   18729
   18730   18731   18732   18733   18734   18713   18711   18712   18717   18724
   18735   18736   18737   18717   18717   18714   18715   18716   18718   18719
   18725   18726   18727   18728   18738   18715   18716   18718   18719   18720
   18721   18722   18723   18725   18726   18727   18728   18739   18716   18719
   18720   18721   18722   18723   18729   18730   18731   18734   18740   18741
   18742   18719   18720   18721   18722   18723   18731   18732   18733   18734
   18743   18744   18745   18724   18735   18736   18737   18719   18725   18726
   18727   18738   18739   18725   18727   18728   18738   18739   18746   18747
   18721   18723   18729   18730   18731   18740   18741   18748   18749   18750
   18722   18723   18729   18730   18731   18734   18741   18742   18744   18745
   18750   18723   18732   18733   18734   18743   18744   18751   18752   18753
   18731   18732   18733   18734   18741   18742   18744   18745   18753   18735
   18736   18737   18726   18727   18728   18738   18739   18746   18747   18727
   18738   18728   18738   18739   18746   18747   18754   18755   18756   18757
   18739   18730   18731   18740   18741   18742   18748   18749   18750   18758
   18759   18760   18761   18740   18741   18734   18740   18741   18742   18750
   18733   18743   18744   18734   18743   18744   18745   18751   18752   18753
   18762   18763   18764   18765   18743   18744   18745   18753   18736   18737
   18737       0   18739   18746   18747   18754   18755   18756   18757   18766
   18767   18768   18769   18770   18771   18772   18773   18741   18748   18749
   18750   18758   18759   18760   18761   18774   18775   18776   18777   18778
   18779   18780   18781   18742   18748   18749   18750   18750   18744   18751
   18752   18753   18762   18763   18764   18765   18782   18783   18784   18785
   18786   18787   18788   18789   18745   18751   18752   18753   18753   18747
   18754   18755   18756   18757   18766   18767   18768   18769   18790   18791
   18792   18754   18755   18756   18757   18770   18771   18772   18773   18793
   18794   18795   18749   18758   18759   18760   18761   18774   18775   18776
   18777   18796   18797   18798   18758   18759   18760   18761   18778   18779
   18780   18781   18799   18800   18801       0   18752   18762   18763   18764
   18765   18782   18783   18784   18785   18802   18803   18804   18762   18763
   18764   18765   18786   18787   18788   18789   18805   18806   18807       0
   18755   18766   18767   18768   18769   18790   18791   18808   18766   18767
   18768   18769   18790   18792   18808   18757   18770   18771   18772   18773
   18793   18794   18809   18770   18771   18772   18773   18793   18795   18809
   18759   18774   18775   18776   18777   18796   18797   18810   18774   18775
   18776   18777   18797   18798   18810   18761   18778   18779   18780   18781
   18799   18800   18811   18778   18779   18780   18781   18799   18801   18811
   18763   18782   18783   18784   18785   18802   18803   18812   18782   18783
   18784   18785   18802   18804   18812   18765   18786   18787   18788   18789
   18805   18806   18813   18786   18787   18788   18789   18805   18807   18813
   18767   18768   18790   18791   18792   18808   18814   18790   18791   18769
   18790   18791   18792   18808   18814   18790   18792   18771   18793   18794
   18773   18793   18794   18795   18809   18815   18773   18793   18795   18793
   18794   18795   18809   18815   18775   18776   18796   18797   18798   18810
   18816   18796   18797   18777   18796   18797   18798   18810   18816   18797
   18798   18779   18780   18799   18800   18801   18811   18817   18799   18800
   18781   18799   18800   18801   18811   18817   18799   18801   18783   18784
   18802   18803   18804   18812   18818   18802   18803   18785   18802   18803
   18804   18812   18818   18802   18804   18787   18788   18805   18806   18807
   18813   18819   18805   18806   18789   18805   18806   18807   18813   18819
   18805   18807   18791   18792   18808   18814   18820   18821   18822   18808
   18808   18794   18795   18809   18815   18823   18824   18825   18809   18809
   18797   18810   18798   18810   18816   18826   18827   18828   18810   18800
   18801   18811   18817   18829   18830   18831   18811   18811   18803   18804
   18812   18818   18832   18833   18834   18812   18812   18806   18807   18813
   18819   18835   18836   18837   18813   18813   18814   18820   18821   18822
   18815   18823   18824   18825   18816   18826   18827   18828   18817   18829
   18830   18831   18818   18832   18833   18834   18819   18835   18836   18837
   18820   18821   18822   18823   18824   18825   18826   18827   18828   18829
   18830   18831   18832   18833   18834   18835   18836   18837   18821   18822
   18822       0   18824   18825   18825       0   18827   18828   18828       0
   18830   18831   18831       0   18833   18834   18834       0   18836   18837
   18837       0   18839   18840   18841   18842   18843   18844   18845   18846
   18847   18848   18849   18840   18841   18842   18843   18844   18845   18846
   18847   18848   18849   18850   18851   18852   18841   18842   18843   18844
   18845   18842   18846   18847   18848   18849   18850   18851   18853   18846
   18847   18848   18849   18850   18852   18853   18844   18845   18845       0
   18847   18848   18850   18851   18852   18853   18854   18855   18850   18851
   18849   18850   18851   18852   18853   18854   18855   18850   18852   18851
   18852   18853   18854   18855   18856   18857   18858   18859   18853   18853
   18854   18855   18856   18857   18858   18859   18860   18861   18862   18863
   18864   18865   18866   18867   18855   18856   18857   18858   18859   18860
   18861   18862   18863   18868   18869   18870   18856   18857   18858   18859
   18864   18865   18866   18867   18871   18872   18873   18857   18860   18861
   18862   18863   18868   18869   18874   18875   18876   18877   18860   18861
   18862   18863   18868   18870   18874   18859   18864   18865   18866   18867
   18871   18872   18878   18864   18865   18866   18867   18871   18873   18878
   18861   18862   18868   18869   18870   18874   18875   18876   18877   18879
   18880   18881   18882   18883   18884   18868   18869   18863   18868   18869
   18870   18874   18875   18879   18868   18870   18865   18866   18871   18872
   18873   18878   18885   18871   18872   18867   18871   18872   18873   18878
   18885   18871   18873   18869   18870   18874   18875   18876   18877   18879
   18880   18886   18887   18874   18875   18876   18877   18879   18880   18881
   18882   18883   18884   18888   18889   18890   18891   18892   18893   18894
   18895   18874   18872   18873   18878   18885   18896   18897   18898   18878
   18878   18875   18876   18877   18879   18880   18886   18887   18888   18889
   18899   18876   18877   18879   18880   18881   18882   18883   18884   18886
   18887   18888   18889   18900   18877   18880   18881   18882   18883   18884
   18890   18891   18892   18895   18901   18902   18903   18880   18881   18882
   18883   18884   18892   18893   18894   18895   18904   18905   18906   18885
   18896   18897   18898   18880   18886   18887   18888   18899   18900   18886
   18888   18889   18899   18900   18907   18908   18882   18884   18890   18891
   18892   18901   18902   18909   18910   18911   18883   18884   18890   18891
   18892   18895   18902   18903   18905   18906   18911   18884   18893   18894
   18895   18904   18905   18912   18913   18914   18892   18893   18894   18895
   18902   18903   18905   18906   18914   18896   18897   18898   18887   18888
   18889   18899   18900   18907   18908   18888   18899   18889   18899   18900
   18907   18908   18915   18916   18917   18918   18900   18891   18892   18901
   18902   18903   18909   18910   18911   18919   18920   18921   18922   18901
   18902   18895   18901   18902   18903   18911   18894   18904   18905   18895
   18904   18905   18906   18912   18913   18914   18923   18924   18925   18926
   18904   18905   18906   18914   18897   18898   18898       0   18900   18907
   18908   18915   18916   18917   18918   18927   18928   18929   18930   18931
   18932   18933   18934   18902   18909   18910   18911   18919   18920   18921
   18922   18935   18936   18937   18938   18939   18940   18941   18942   18903
   18909   18910   18911   18911   18905   18912   18913   18914   18923   18924
   18925   18926   18943   18944   18945   18946   18947   18948   18949   18950
   18906   18912   18913   18914   18914   18908   18915   18916   18917   18918
   18927   18928   18929   18930   18951   18952   18953   18915   18916   18917
   18918   18931   18932   18933   18934   18954   18955   18956   18910   18919
   18920   18921   18922   18935   18936   18937   18938   18957   18958   18959
   18919   18920   18921   18922   18939   18940   18941   18942   18960   18961
   18962       0   18913   18923   18924   18925   18926   18943   18944   18945
   18946   18963   18964   18965   18923   18924   18925   18926   18947   18948
   18949   18950   18966   18967   18968       0   18916   18927   18928   18929
   18930   18951   18952   18969   18927   18928   18929   18930   18951   18953
   18969   18918   18931   18932   18933   18934   18954   18955   18970   18931
   18932   18933   18934   18954   18956   18970   18920   18935   18936   18937
   18938   18957   18958   18971   18935   18936   18937   18938   18958   18959
   18971   18922   18939   18940   18941   18942   18960   18961   18972   18939
   18940   18941   18942   18960   18962   18972   18924   18943   18944   18945
   18946   18963   18964   18973   18943   18944   18945   18946   18963   18965
   18973   18926   18947   18948   18949   18950   18966   18967   18974   18947
   18948   18949   18950   18966   18968   18974   18928   18929   18951   18952
   18953   18969   18975   18951   18952   18930   18951   18952   18953   18969
   18975   18951   18953   18932   18954   18955   18934   18954   18955   18956
   18970   18976   18934   18954   18956   18954   18955   18956   18970   18976
   18936   18937   18957   18958   18959   18971   18977   18957   18958   18938
   18957   18958   18959   18971   18977   18958   18959   18940   18941   18960
   18961   18962   18972   18978   18960   18961   18942   18960   18961   18962
   18972   18978   18960   18962   18944   18945   18963   18964   18965   18973
   18979   18963   18964   18946   18963   18964   18965   18973   18979   18963
   18965   18948   18949   18966   18967   18968   18974   18980   18966   18967
   18950   18966   18967   18968   18974   18980   18966   18968   18952   18953
   18969   18975   18981   18982   18983   18969   18969   18955   18956   18970
   18976   18984   18985   18986   18970   18970   18958   18971   18959   18971
   18977   18987   18988   18989   18971   18961   18962   18972   18978   18990
   18991   18992   18972   18972   18964   18965   18973   18979   18993   18994
   18995   18973   18973   18967   18968   18974   18980   18996   18997   18998
   18974   18974   18975   18981   18982   18983   18976   18984   18985   18986
   18977   18987   18988   18989   18978   18990   18991   18992   18979   18993
   18994   18995   18980   18996   18997   18998   18981   18982   18983   18984
   18985   18986   18987   18988   18989   18990   18991   18992   18993   18994
   18995   18996   18997   18998   18982   18983   18983       0   18985   18986
   18986       0   18988   18989   18989       0   18991   18992   18992       0
   18994   18995   18995       0   18997   18998   18998       0   19000   19001
   19002   19003   19004   19005   19006   19007   19008   19009   19010   19001
   19002   19003   19004   19005   19006   19007   19008   19009   19010   19011
   19012   19013   19002   19003   19004   19005   19006   19003   19007   19008
   19009   19010   19011   19012   19014   19007   19008   19009   19010   19011
   19013   19014   19005   19006   19006       0   19008   19009   19011   19012
   19013   19014   19015   19016   19011   19012   19010   19011   19012   19013
   19014   19015   19016   19011   19013   19012   19013   19014   19015   19016
   19017   19018   19019   19020   19014   19014   19015   19016   19017   19018
   19019   19020   19021   19022   19023   19024   19025   19026   19027   19028
   19016   19017   19018   19019   19020   19021   19022   19023   19024   19029
   19030   19031   19017   19018   19019   19020   19025   19026   19027   19028
   19032   19033   19034   19018   19021   19022   19023   19024   19029   19030
   19035   19036   19037   19038   19021   19022   19023   19024   19029   19031
   19035   19020   19025   19026   19027   19028   19032   19033   19039   19025
   19026   19027   19028   19032   19034   19039   19022   19023   19029   19030
   19031   19035   19036   19037   19038   19040   19041   19042   19043   19044
   19045   19029   19030   19024   19029   19030   19031   19035   19036   19040
   19029   19031   19026   19027   19032   19033   19034   19039   19046   19032
   19033   19028   19032   19033   19034   19039   19046   19032   19034   19030
   19031   19035   19036   19037   19038   19040   19041   19047   19048   19035
   19036   19037   19038   19040   19041   19042   19043   19044   19045   19049
   19050   19051   19052   19053   19054   19055   19056   19035   19033   19034
   19039   19046   19057   19058   19059   19039   19039   19036   19037   19038
   19040   19041   19047   19048   19049   19050   19060   19037   19038   19040
   19041   19042   19043   19044   19045   19047   19048   19049   19050   19061
   19038   19041   19042   19043   19044   19045   19051   19052   19053   19056
   19062   19063   19064   19041   19042   19043   19044   19045   19053   19054
   19055   19056   19065   19066   19067   19046   19057   19058   19059   19041
   19047   19048   19049   19060   19061   19047   19049   19050   19060   19061
   19068   19069   19043   19045   19051   19052   19053   19062   19063   19070
   19071   19072   19044   19045   19051   19052   19053   19056   19063   19064
   19066   19067   19072   19045   19054   19055   19056   19065   19066   19073
   19074   19075   19053   19054   19055   19056   19063   19064   19066   19067
   19075   19057   19058   19059   19048   19049   19050   19060   19061   19068
   19069   19049   19060   19050   19060   19061   19068   19069   19076   19077
   19078   19079   19061   19052   19053   19062   19063   19064   19070   19071
   19072   19080   19081   19082   19083   19062   19063   19056   19062   19063
   19064   19072   19055   19065   19066   19056   19065   19066   19067   19073
   19074   19075   19084   19085   19086   19087   19065   19066   19067   19075
   19058   19059   19059       0   19061   19068   19069   19076   19077   19078
   19079   19088   19089   19090   19091   19092   19093   19094   19095   19063
   19070   19071   19072   19080   19081   19082   19083   19096   19097   19098
   19099   19100   19101   19102   19103   19064   19070   19071   19072   19072
   19066   19073   19074   19075   19084   19085   19086   19087   19104   19105
   19106   19107   19108   19109   19110   19111   19067   19073   19074   19075
   19075   19069   19076   19077   19078   19079   19088   19089   19090   19091
   19112   19113   19114   19076   19077   19078   19079   19092   19093   19094
   19095   19115   19116   19117   19071   19080   19081   19082   19083   19096
   19097   19098   19099   19118   19119   19120   19080   19081   19082   19083
   19100   19101   19102   19103   19121   19122   19123       0   19074   19084
   19085   19086   19087   19104   19105   19106   19107   19124   19125   19126
   19084   19085   19086   19087   19108   19109   19110   19111   19127   19128
   19129       0   19077   19088   19089   19090   19091   19112   19113   19130
   19088   19089   19090   19091   19112   19114   19130   19079   19092   19093
   19094   19095   19115   19116   19131   19092   19093   19094   19095   19115
   19117   19131   19081   19096   19097   19098   19099   19118   19119   19132
   19096   19097   19098   19099   19119   19120   19132   19083   19100   19101
   19102   19103   19121   19122   19133   19100   19101   19102   19103   19121
   19123   19133   19085   19104   19105   19106   19107   19124   19125   19134
   19104   19105   19106   19107   19124   19126   19134   19087   19108   19109
   19110   19111   19127   19128   19135   19108   19109   19110   19111   19127
   19129   19135   19089   19090   19112   19113   19114   19130   19136   19112
   19113   19091   19112   19113   19114   19130   19136   19112   19114   19093
   19115   19116   19095   19115   19116   19117   19131   19137   19095   19115
   19117   19115   19116   19117   19131   19137   19097   19098   19118   19119
   19120   19132   19138   19118   19119   19099   19118   19119   19120   19132
   19138   19119   19120   19101   19102   19121   19122   19123   19133   19139
   19121   19122   19103   19121   19122   19123   19133   19139   19121   19123
   19105   19106   19124   19125   19126   19134   19140   19124   19125   19107
   19124   19125   19126   19134   19140   19124   19126   19109   19110   19127
   19128   19129   19135   19141   19127   19128   19111   19127   19128   19129
   19135   19141   19127   19129   19113   19114   19130   19136   19142   19143
   19144   19130   19130   19116   19117   19131   19137   19145   19146   19147
   19131   19131   19119   19132   19120   19132   19138   19148   19149   19150
   19132   19122   19123   19133   19139   19151   19152   19153   19133   19133
   19125   19126   19134   19140   19154   19155   19156   19134   19134   19128
   19129   19135   19141   19157   19158   19159   19135   19135   19136   19142
   19143   19144   19137   19145   19146   19147   19138   19148   19149   19150
   19139   19151   19152   19153   19140   19154   19155   19156   19141   19157
   19158   19159   19142   19143   19144   19145   19146   19147   19148   19149
   19150   19151   19152   19153   19154   19155   19156   19157   19158   19159
   19143   19144   19144       0   19146   19147   19147       0   19149   19150
   19150       0   19152   19153   19153       0   19155   19156   19156       0
   19158   19159   19159       0   19161   19162   19163   19164   19165   19166
   19167   19168   19169   19170   19171   19162   19163   19164   19165   19166
   19167   19168   19169   19170   19171   19172   19173   19174   19163   19164
   19165   19166   19167   19164   19168   19169   19170   19171   19172   19173
   19175   19168   19169   19170   19171   19172   19174   19175   19166   19167
   19167       0   19169   19170   19172   19173   19174   19175   19176   19177
   19172   19173   19171   19172   19173   19174   19175   19176   19177   19172
   19174   19173   19174   19175   19176   19177   19178   19179   19180   19181
   19175   19175   19176   19177   19178   19179   19180   19181   19182   19183
   19184   19185   19186   19187   19188   19189   19177   19178   19179   19180
   19181   19182   19183   19184   19185   19190   19191   19192   19178   19179
   19180   19181   19186   19187   19188   19189   19193   19194   19195   19179
   19182   19183   19184   19185   19190   19191   19196   19197   19198   19199
   19182   19183   19184   19185   19190   19192   19196   19181   19186   19187
   19188   19189   19193   19194   19200   19186   19187   19188   19189   19193
   19195   19200   19183   19184   19190   19191   19192   19196   19197   19198
   19199   19201   19202   19203   19204   19205   19206   19190   19191   19185
   19190   19191   19192   19196   19197   19201   19190   19192   19187   19188
   19193   19194   19195   19200   19207   19193   19194   19189   19193   19194
   19195   19200   19207   19193   19195   19191   19192   19196   19197   19198
   19199   19201   19202   19208   19209   19196   19197   19198   19199   19201
   19202   19203   19204   19205   19206   19210   19211   19212   19213   19214
   19215   19216   19217   19196   19194   19195   19200   19207   19218   19219
   19220   19200   19200   19197   19198   19199   19201   19202   19208   19209
   19210   19211   19221   19198   19199   19201   19202   19203   19204   19205
   19206   19208   19209   19210   19211   19222   19199   19202   19203   19204
   19205   19206   19212   19213   19214   19217   19223   19224   19225   19202
   19203   19204   19205   19206   19214   19215   19216   19217   19226   19227
   19228   19207   19218   19219   19220   19202   19208   19209   19210   19221
   19222   19208   19210   19211   19221   19222   19229   19230   19204   19206
   19212   19213   19214   19223   19224   19231   19232   19233   19205   19206
   19212   19213   19214   19217   19224   19225   19227   19228   19233   19206
   19215   19216   19217   19226   19227   19234   19235   19236   19214   19215
   19216   19217   19224   19225   19227   19228   19236   19218   19219   19220
   19209   19210   19211   19221   19222   19229   19230   19210   19221   19211
   19221   19222   19229   19230   19237   19238   19239   19240   19222   19213
   19214   19223   19224   19225   19231   19232   19233   19241   19242   19243
   19244   19223   19224   19217   19223   19224   19225   19233   19216   19226
   19227   19217   19226   19227   19228   19234   19235   19236   19245   19246
   19247   19248   19226   19227   19228   19236   19219   19220   19220       0
   19222   19229   19230   19237   19238   19239   19240   19249   19250   19251
   19252   19253   19254   19255   19256   19224   19231   19232   19233   19241
   19242   19243   19244   19257   19258   19259   19260   19261   19262   19263
   19264   19225   19231   19232   19233   19233   19227   19234   19235   19236
   19245   19246   19247   19248   19265   19266   19267   19268   19269   19270
   19271   19272   19228   19234   19235   19236   19236   19230   19237   19238
   19239   19240   19249   19250   19251   19252   19273   19274   19275   19237
   19238   19239   19240   19253   19254   19255   19256   19276   19277   19278
   19232   19241   19242   19243   19244   19257   19258   19259   19260   19279
   19280   19281   19241   19242   19243   19244   19261   19262   19263   19264
   19282   19283   19284       0   19235   19245   19246   19247   19248   19265
   19266   19267   19268   19285   19286   19287   19245   19246   19247   19248
   19269   19270   19271   19272   19288   19289   19290       0   19238   19249
   19250   19251   19252   19273   19274   19291   19249   19250   19251   19252
   19273   19275   19291   19240   19253   19254   19255   19256   19276   19277
   19292   19253   19254   19255   19256   19276   19278   19292   19242   19257
   19258   19259   19260   19279   19280   19293   19257   19258   19259   19260
   19280   19281   19293   19244   19261   19262   19263   19264   19282   19283
   19294   19261   19262   19263   19264   19282   19284   19294   19246   19265
   19266   19267   19268   19285   19286   19295   19265   19266   19267   19268
   19285   19287   19295   19248   19269   19270   19271   19272   19288   19289
   19296   19269   19270   19271   19272   19288   19290   19296   19250   19251
   19273   19274   19275   19291   19297   19273   19274   19252   19273   19274
   19275   19291   19297   19273   19275   19254   19276   19277   19256   19276
   19277   19278   19292   19298   19256   19276   19278   19276   19277   19278
   19292   19298   19258   19259   19279   19280   19281   19293   19299   19279
   19280   19260   19279   19280   19281   19293   19299   19280   19281   19262
   19263   19282   19283   19284   19294   19300   19282   19283   19264   19282
   19283   19284   19294   19300   19282   19284   19266   19267   19285   19286
   19287   19295   19301   19285   19286   19268   19285   19286   19287   19295
   19301   19285   19287   19270   19271   19288   19289   19290   19296   19302
   19288   19289   19272   19288   19289   19290   19296   19302   19288   19290
   19274   19275   19291   19297   19303   19304   19305   19291   19291   19277
   19278   19292   19298   19306   19307   19308   19292   19292   19280   19293
   19281   19293   19299   19309   19310   19311   19293   19283   19284   19294
   19300   19312   19313   19314   19294   19294   19286   19287   19295   19301
   19315   19316   19317   19295   19295   19289   19290   19296   19302   19318
   19319   19320   19296   19296   19297   19303   19304   19305   19298   19306
   19307   19308   19299   19309   19310   19311   19300   19312   19313   19314
   19301   19315   19316   19317   19302   19318   19319   19320   19303   19304
   19305   19306   19307   19308   19309   19310   19311   19312   19313   19314
   19315   19316   19317   19318   19319   19320   19304   19305   19305       0
   19307   19308   19308       0   19310   19311   19311       0   19313   19314
   19314       0   19316   19317   19317       0   19319   19320   19320       0
   19322   19323   19324   19325   19326   19327   19328   19329   19330   19331
   19332   19323   19324   19325   19326   19327   19328   19329   19330   19331
   19332   19333   19334   19335   19324   19325   19326   19327   19328   19325
   19329   19330   19331   19332   19333   19334   19336   19329   19330   19331
   19332   19333   19335   19336   19327   19328   19328       0   19330   19331
   19333   19334   19335   19336   19337   19338   19333   19334   19332   19333
   19334   19335   19336   19337   19338   19333   19335   19334   19335   19336
   19337   19338   19339   19340   19341   19342   19336   19336   19337   19338
   19339   19340   19341   19342   19343   19344   19345   19346   19347   19348
   19349   19350   19338   19339   19340   19341   19342   19343   19344   19345
   19346   19351   19352   19353   19339   19340   19341   19342   19347   19348
   19349   19350   19354   19355   19356   19340   19343   19344   19345   19346
   19351   19352   19357   19358   19359   19360   19343   19344   19345   19346
   19351   19353   19357   19342   19347   19348   19349   19350   19354   19355
   19361   19347   19348   19349   19350   19354   19356   19361   19344   19345
   19351   19352   19353   19357   19358   19359   19360   19362   19363   19364
   19365   19366   19367   19351   19352   19346   19351   19352   19353   19357
   19358   19362   19351   19353   19348   19349   19354   19355   19356   19361
   19368   19354   19355   19350   19354   19355   19356   19361   19368   19354
   19356   19352   19353   19357   19358   19359   19360   19362   19363   19369
   19370   19357   19358   19359   19360   19362   19363   19364   19365   19366
   19367   19371   19372   19373   19374   19375   19376   19377   19378   19357
   19355   19356   19361   19368   19379   19380   19381   19361   19361   19358
   19359   19360   19362   19363   19369   19370   19371   19372   19382   19359
   19360   19362   19363   19364   19365   19366   19367   19369   19370   19371
   19372   19383   19360   19363   19364   19365   19366   19367   19373   19374
   19375   19378   19384   19385   19386   19363   19364   19365   19366   19367
   19375   19376   19377   19378   19387   19388   19389   19368   19379   19380
   19381   19363   19369   19370   19371   19382   19383   19369   19371   19372
   19382   19383   19390   19391   19365   19367   19373   19374   19375   19384
   19385   19392   19393   19394   19366   19367   19373   19374   19375   19378
   19385   19386   19388   19389   19394   19367   19376   19377   19378   19387
   19388   19395   19396   19397   19375   19376   19377   19378   19385   19386
   19388   19389   19397   19379   19380   19381   19370   19371   19372   19382
   19383   19390   19391   19371   19382   19372   19382   19383   19390   19391
   19398   19399   19400   19401   19383   19374   19375   19384   19385   19386
   19392   19393   19394   19402   19403   19404   19405   19384   19385   19378
   19384   19385   19386   19394   19377   19387   19388   19378   19387   19388
   19389   19395   19396   19397   19406   19407   19408   19409   19387   19388
   19389   19397   19380   19381   19381       0   19383   19390   19391   19398
   19399   19400   19401   19410   19411   19412   19413   19414   19415   19416
   19417   19385   19392   19393   19394   19402   19403   19404   19405   19418
   19419   19420   19421   19422   19423   19424   19425   19386   19392   19393
   19394   19394   19388   19395   19396   19397   19406   19407   19408   19409
   19426   19427   19428   19429   19430   19431   19432   19433   19389   19395
   19396   19397   19397   19391   19398   19399   19400   19401   19410   19411
   19412   19413   19434   19435   19436   19398   19399   19400   19401   19414
   19415   19416   19417   19437   19438   19439   19393   19402   19403   19404
   19405   19418   19419   19420   19421   19440   19441   19442   19402   19403
   19404   19405   19422   19423   19424   19425   19443   19444   19445       0
   19396   19406   19407   19408   19409   19426   19427   19428   19429   19446
   19447   19448   19406   19407   19408   19409   19430   19431   19432   19433
   19449   19450   19451       0   19399   19410   19411   19412   19413   19434
   19435   19452   19410   19411   19412   19413   19434   19436   19452   19401
   19414   19415   19416   19417   19437   19438   19453   19414   19415   19416
   19417   19437   19439   19453   19403   19418   19419   19420   19421   19440
   19441   19454   19418   19419   19420   19421   19441   19442   19454   19405
   19422   19423   19424   19425   19443   19444   19455   19422   19423   19424
   19425   19443   19445   19455   19407   19426   19427   19428   19429   19446
   19447   19456   19426   19427   19428   19429   19446   19448   19456   19409
   19430   19431   19432   19433   19449   19450   19457   19430   19431   19432
   19433   19449   19451   19457   19411   19412   19434   19435   19436   19452
   19458   19434   19435   19413   19434   19435   19436   19452   19458   19434
   19436   19415   19437   19438   19417   19437   19438   19439   19453   19459
   19417   19437   19439   19437   19438   19439   19453   19459   19419   19420
   19440   19441   19442   19454   19460   19440   19441   19421   19440   19441
   19442   19454   19460   19441   19442   19423   19424   19443   19444   19445
   19455   19461   19443   19444   19425   19443   19444   19445   19455   19461
   19443   19445   19427   19428   19446   19447   19448   19456   19462   19446
   19447   19429   19446   19447   19448   19456   19462   19446   19448   19431
   19432   19449   19450   19451   19457   19463   19449   19450   19433   19449
   19450   19451   19457   19463   19449   19451   19435   19436   19452   19458
   19464   19465   19466   19452   19452   19438   19439   19453   19459   19467
   19468   19469   19453   19453   19441   19454   19442   19454   19460   19470
   19471   19472   19454   19444   19445   19455   19461   19473   19474   19475
   19455   19455   19447   19448   19456   19462   19476   19477   19478   19456
   19456   19450   19451   19457   19463   19479   19480   19481   19457   19457
   19458   19464   19465   19466   19459   19467   19468   19469   19460   19470
   19471   19472   19461   19473   19474   19475   19462   19476   19477   19478
   19463   19479   19480   19481   19464   19465   19466   19467   19468   19469
   19470   19471   19472   19473   19474   19475   19476   19477   19478   19479
   19480   19481   19465   19466   19466       0   19468   19469   19469       0
   19471   19472   19472       0   19474   19475   19475       0   19477   19478
   19478       0   19480   19481   19481       0   19483   19484   19485   19486
   19487   19488   19489   19490   19491   19492   19493   19484   19485   19486
   19487   19488   19489   19490   19491   19492   19493   19494   19495   19496
   19485   19486   19487   19488   19489   19486   19490   19491   19492   19493
   19494   19495   19497   19490   19491   19492   19493   19494   19496   19497
   19488   19489   19489       0   19491   19492   19494   19495   19496   19497
   19498   19499   19494   19495   19493   19494   19495   19496   19497   19498
   19499   19494   19496   19495   19496   19497   19498   19499   19500   19501
   19502   19503   19497   19497   19498   19499   19500   19501   19502   19503
   19504   19505   19506   19507   19508   19509   19510   19511   19499   19500
   19501   19502   19503   19504   19505   19506   19507   19512   19513   19514
   19500   19501   19502   19503   19508   19509   19510   19511   19515   19516
   19517   19501   19504   19505   19506   19507   19512   19513   19518   19519
   19520   19521   19504   19505   19506   19507   19512   19514   19518   19503
   19508   19509   19510   19511   19515   19516   19522   19508   19509   19510
   19511   19515   19517   19522   19505   19506   19512   19513   19514   19518
   19519   19520   19521   19523   19524   19525   19526   19527   19528   19512
   19513   19507   19512   19513   19514   19518   19519   19523   19512   19514
   19509   19510   19515   19516   19517   19522   19529   19515   19516   19511
   19515   19516   19517   19522   19529   19515   19517   19513   19514   19518
   19519   19520   19521   19523   19524   19530   19531   19518   19519   19520
   19521   19523   19524   19525   19526   19527   19528   19532   19533   19534
   19535   19536   19537   19538   19539   19518   19516   19517   19522   19529
   19540   19541   19542   19522   19522   19519   19520   19521   19523   19524
   19530   19531   19532   19533   19543   19520   19521   19523   19524   19525
   19526   19527   19528   19530   19531   19532   19533   19544   19521   19524
   19525   19526   19527   19528   19534   19535   19536   19539   19545   19546
   19547   19524   19525   19526   19527   19528   19536   19537   19538   19539
   19548   19549   19550   19529   19540   19541   19542   19524   19530   19531
   19532   19543   19544   19530   19532   19533   19543   19544   19551   19552
   19526   19528   19534   19535   19536   19545   19546   19553   19554   19555
   19527   19528   19534   19535   19536   19539   19546   19547   19549   19550
   19555   19528   19537   19538   19539   19548   19549   19556   19557   19558
   19536   19537   19538   19539   19546   19547   19549   19550   19558   19540
   19541   19542   19531   19532   19533   19543   19544   19551   19552   19532
   19543   19533   19543   19544   19551   19552   19559   19560   19561   19562
   19544   19535   19536   19545   19546   19547   19553   19554   19555   19563
   19564   19565   19566   19545   19546   19539   19545   19546   19547   19555
   19538   19548   19549   19539   19548   19549   19550   19556   19557   19558
   19567   19568   19569   19570   19548   19549   19550   19558   19541   19542
   19542       0   19544   19551   19552   19559   19560   19561   19562   19571
   19572   19573   19574   19575   19576   19577   19578   19546   19553   19554
   19555   19563   19564   19565   19566   19579   19580   19581   19582   19583
   19584   19585   19586   19547   19553   19554   19555   19555   19549   19556
   19557   19558   19567   19568   19569   19570   19587   19588   19589   19590
   19591   19592   19593   19594   19550   19556   19557   19558   19558   19552
   19559   19560   19561   19562   19571   19572   19573   19574   19595   19596
   19597   19559   19560   19561   19562   19575   19576   19577   19578   19598
   19599   19600   19554   19563   19564   19565   19566   19579   19580   19581
   19582   19601   19602   19603   19563   19564   19565   19566   19583   19584
   19585   19586   19604   19605   19606       0   19557   19567   19568   19569
   19570   19587   19588   19589   19590   19607   19608   19609   19567   19568
   19569   19570   19591   19592   19593   19594   19610   19611   19612       0
   19560   19571   19572   19573   19574   19595   19596   19613   19571   19572
   19573   19574   19595   19597   19613   19562   19575   19576   19577   19578
   19598   19599   19614   19575   19576   19577   19578   19598   19600   19614
   19564   19579   19580   19581   19582   19601   19602   19615   19579   19580
   19581   19582   19602   19603   19615   19566   19583   19584   19585   19586
   19604   19605   19616   19583   19584   19585   19586   19604   19606   19616
   19568   19587   19588   19589   19590   19607   19608   19617   19587   19588
   19589   19590   19607   19609   19617   19570   19591   19592   19593   19594
   19610   19611   19618   19591   19592   19593   19594   19610   19612   19618
   19572   19573   19595   19596   19597   19613   19619   19595   19596   19574
   19595   19596   19597   19613   19619   19595   19597   19576   19598   19599
   19578   19598   19599   19600   19614   19620   19578   19598   19600   19598
   19599   19600   19614   19620   19580   19581   19601   19602   19603   19615
   19621   19601   19602   19582   19601   19602   19603   19615   19621   19602
   19603   19584   19585   19604   19605   19606   19616   19622   19604   19605
   19586   19604   19605   19606   19616   19622   19604   19606   19588   19589
   19607   19608   19609   19617   19623   19607   19608   19590   19607   19608
   19609   19617   19623   19607   19609   19592   19593   19610   19611   19612
   19618   19624   19610   19611   19594   19610   19611   19612   19618   19624
   19610   19612   19596   19597   19613   19619   19625   19626   19627   19613
   19613   19599   19600   19614   19620   19628   19629   19630   19614   19614
   19602   19615   19603   19615   19621   19631   19632   19633   19615   19605
   19606   19616   19622   19634   19635   19636   19616   19616   19608   19609
   19617   19623   19637   19638   19639   19617   19617   19611   19612   19618
   19624   19640   19641   19642   19618   19618   19619   19625   19626   19627
   19620   19628   19629   19630   19621   19631   19632   19633   19622   19634
   19635   19636   19623   19637   19638   19639   19624   19640   19641   19642
   19625   19626   19627   19628   19629   19630   19631   19632   19633   19634
   19635   19636   19637   19638   19639   19640   19641   19642   19626   19627
   19627       0   19629   19630   19630       0   19632   19633   19633       0
   19635   19636   19636       0   19638   19639   19639       0   19641   19642
   19642       0   19644   19645   19646   19647   19648   19649   19650   19651
   19652   19653   19654   19645   19646   19647   19648   19649   19650   19651
   19652   19653   19654   19655   19656   19657   19646   19647   19648   19649
   19650   19647   19651   19652   19653   19654   19655   19656   19658   19651
   19652   19653   19654   19655   19657   19658   19649   19650   19650       0
   19652   19653   19655   19656   19657   19658   19659   19660   19655   19656
   19654   19655   19656   19657   19658   19659   19660   19655   19657   19656
   19657   19658   19659   19660   19661   19662   19663   19664   19658   19658
   19659   19660   19661   19662   19663   19664   19665   19666   19667   19668
   19669   19670   19671   19672   19660   19661   19662   19663   19664   19665
   19666   19667   19668   19673   19674   19675   19661   19662   19663   19664
   19669   19670   19671   19672   19676   19677   19678   19662   19665   19666
   19667   19668   19673   19674   19679   19680   19681   19682   19665   19666
   19667   19668   19673   19675   19679   19664   19669   19670   19671   19672
   19676   19677   19683   19669   19670   19671   19672   19676   19678   19683
   19666   19667   19673   19674   19675   19679   19680   19681   19682   19684
   19685   19686   19687   19688   19689   19673   19674   19668   19673   19674
   19675   19679   19680   19684   19673   19675   19670   19671   19676   19677
   19678   19683   19690   19676   19677   19672   19676   19677   19678   19683
   19690   19676   19678   19674   19675   19679   19680   19681   19682   19684
   19685   19691   19692   19679   19680   19681   19682   19684   19685   19686
   19687   19688   19689   19693   19694   19695   19696   19697   19698   19699
   19700   19679   19677   19678   19683   19690   19701   19702   19703   19683
   19683   19680   19681   19682   19684   19685   19691   19692   19693   19694
   19704   19681   19682   19684   19685   19686   19687   19688   19689   19691
   19692   19693   19694   19705   19682   19685   19686   19687   19688   19689
   19695   19696   19697   19700   19706   19707   19708   19685   19686   19687
   19688   19689   19697   19698   19699   19700   19709   19710   19711   19690
   19701   19702   19703   19685   19691   19692   19693   19704   19705   19691
   19693   19694   19704   19705   19712   19713   19687   19689   19695   19696
   19697   19706   19707   19714   19715   19716   19688   19689   19695   19696
   19697   19700   19707   19708   19710   19711   19716   19689   19698   19699
   19700   19709   19710   19717   19718   19719   19697   19698   19699   19700
   19707   19708   19710   19711   19719   19701   19702   19703   19692   19693
   19694   19704   19705   19712   19713   19693   19704   19694   19704   19705
   19712   19713   19720   19721   19722   19723   19705   19696   19697   19706
   19707   19708   19714   19715   19716   19724   19725   19726   19727   19706
   19707   19700   19706   19707   19708   19716   19699   19709   19710   19700
   19709   19710   19711   19717   19718   19719   19728   19729   19730   19731
   19709   19710   19711   19719   19702   19703   19703       0   19705   19712
   19713   19720   19721   19722   19723   19732   19733   19734   19735   19736
   19737   19738   19739   19707   19714   19715   19716   19724   19725   19726
   19727   19740   19741   19742   19743   19744   19745   19746   19747   19708
   19714   19715   19716   19716   19710   19717   19718   19719   19728   19729
   19730   19731   19748   19749   19750   19751   19752   19753   19754   19755
   19711   19717   19718   19719   19719   19713   19720   19721   19722   19723
   19732   19733   19734   19735   19756   19757   19758   19720   19721   19722
   19723   19736   19737   19738   19739   19759   19760   19761   19715   19724
   19725   19726   19727   19740   19741   19742   19743   19762   19763   19764
   19724   19725   19726   19727   19744   19745   19746   19747   19765   19766
   19767       0   19718   19728   19729   19730   19731   19748   19749   19750
   19751   19768   19769   19770   19728   19729   19730   19731   19752   19753
   19754   19755   19771   19772   19773       0   19721   19732   19733   19734
   19735   19756   19757   19774   19732   19733   19734   19735   19756   19758
   19774   19723   19736   19737   19738   19739   19759   19760   19775   19736
   19737   19738   19739   19759   19761   19775   19725   19740   19741   19742
   19743   19762   19763   19776   19740   19741   19742   19743   19763   19764
   19776   19727   19744   19745   19746   19747   19765   19766   19777   19744
   19745   19746   19747   19765   19767   19777   19729   19748   19749   19750
   19751   19768   19769   19778   19748   19749   19750   19751   19768   19770
   19778   19731   19752   19753   19754   19755   19771   19772   19779   19752
   19753   19754   19755   19771   19773   19779   19733   19734   19756   19757
   19758   19774   19780   19756   19757   19735   19756   19757   19758   19774
   19780   19756   19758   19737   19759   19760   19739   19759   19760   19761
   19775   19781   19739   19759   19761   19759   19760   19761   19775   19781
   19741   19742   19762   19763   19764   19776   19782   19762   19763   19743
   19762   19763   19764   19776   19782   19763   19764   19745   19746   19765
   19766   19767   19777   19783   19765   19766   19747   19765   19766   19767
   19777   19783   19765   19767   19749   19750   19768   19769   19770   19778
   19784   19768   19769   19751   19768   19769   19770   19778   19784   19768
   19770   19753   19754   19771   19772   19773   19779   19785   19771   19772
   19755   19771   19772   19773   19779   19785   19771   19773   19757   19758
   19774   19780   19786   19787   19788   19774   19774   19760   19761   19775
   19781   19789   19790   19791   19775   19775   19763   19776   19764   19776
   19782   19792   19793   19794   19776   19766   19767   19777   19783   19795
   19796   19797   19777   19777   19769   19770   19778   19784   19798   19799
   19800   19778   19778   19772   19773   19779   19785   19801   19802   19803
   19779   19779   19780   19786   19787   19788   19781   19789   19790   19791
   19782   19792   19793   19794   19783   19795   19796   19797   19784   19798
   19799   19800   19785   19801   19802   19803   19786   19787   19788   19789
   19790   19791   19792   19793   19794   19795   19796   19797   19798   19799
   19800   19801   19802   19803   19787   19788   19788       0   19790   19791
   19791       0   19793   19794   19794       0   19796   19797   19797       0
   19799   19800   19800       0   19802   19803   19803       0   19805   19806
   19807   19808   19809   19810   19811   19812   19813   19814   19815   19806
   19807   19808   19809   19810   19811   19812   19813   19814   19815   19816
   19817   19818   19807   19808   19809   19810   19811   19808   19812   19813
   19814   19815   19816   19817   19819   19812   19813   19814   19815   19816
   19818   19819   19810   19811   19811       0   19813   19814   19816   19817
   19818   19819   19820   19821   19816   19817   19815   19816   19817   19818
   19819   19820   19821   19816   19818   19817   19818   19819   19820   19821
   19822   19823   19824   19825   19819   19819   19820   19821   19822   19823
   19824   19825   19826   19827   19828   19829   19830   19831   19832   19833
   19821   19822   19823   19824   19825   19826   19827   19828   19829   19834
   19835   19836   19822   19823   19824   19825   19830   19831   19832   19833
   19837   19838   19839   19823   19826   19827   19828   19829   19834   19835
   19840   19841   19842   19843   19826   19827   19828   19829   19834   19836
   19840   19825   19830   19831   19832   19833   19837   19838   19844   19830
   19831   19832   19833   19837   19839   19844   19827   19828   19834   19835
   19836   19840   19841   19842   19843   19845   19846   19847   19848   19849
   19850   19834   19835   19829   19834   19835   19836   19840   19841   19845
   19834   19836   19831   19832   19837   19838   19839   19844   19851   19837
   19838   19833   19837   19838   19839   19844   19851   19837   19839   19835
   19836   19840   19841   19842   19843   19845   19846   19852   19853   19840
   19841   19842   19843   19845   19846   19847   19848   19849   19850   19854
   19855   19856   19857   19858   19859   19860   19861   19840   19838   19839
   19844   19851   19862   19863   19864   19844   19844   19841   19842   19843
   19845   19846   19852   19853   19854   19855   19865   19842   19843   19845
   19846   19847   19848   19849   19850   19852   19853   19854   19855   19866
   19843   19846   19847   19848   19849   19850   19856   19857   19858   19861
   19867   19868   19869   19846   19847   19848   19849   19850   19858   19859
   19860   19861   19870   19871   19872   19851   19862   19863   19864   19846
   19852   19853   19854   19865   19866   19852   19854   19855   19865   19866
   19873   19874   19848   19850   19856   19857   19858   19867   19868   19875
   19876   19877   19849   19850   19856   19857   19858   19861   19868   19869
   19871   19872   19877   19850   19859   19860   19861   19870   19871   19878
   19879   19880   19858   19859   19860   19861   19868   19869   19871   19872
   19880   19862   19863   19864   19853   19854   19855   19865   19866   19873
   19874   19854   19865   19855   19865   19866   19873   19874   19881   19882
   19883   19884   19866   19857   19858   19867   19868   19869   19875   19876
   19877   19885   19886   19887   19888   19867   19868   19861   19867   19868
   19869   19877   19860   19870   19871   19861   19870   19871   19872   19878
   19879   19880   19889   19890   19891   19892   19870   19871   19872   19880
   19863   19864   19864       0   19866   19873   19874   19881   19882   19883
   19884   19893   19894   19895   19896   19897   19898   19899   19900   19868
   19875   19876   19877   19885   19886   19887   19888   19901   19902   19903
   19904   19905   19906   19907   19908   19869   19875   19876   19877   19877
   19871   19878   19879   19880   19889   19890   19891   19892   19909   19910
   19911   19912   19913   19914   19915   19916   19872   19878   19879   19880
   19880   19874   19881   19882   19883   19884   19893   19894   19895   19896
   19917   19918   19919   19881   19882   19883   19884   19897   19898   19899
   19900   19920   19921   19922   19876   19885   19886   19887   19888   19901
   19902   19903   19904   19923   19924   19925   19885   19886   19887   19888
   19905   19906   19907   19908   19926   19927   19928       0   19879   19889
   19890   19891   19892   19909   19910   19911   19912   19929   19930   19931
   19889   19890   19891   19892   19913   19914   19915   19916   19932   19933
   19934       0   19882   19893   19894   19895   19896   19917   19918   19935
   19893   19894   19895   19896   19917   19919   19935   19884   19897   19898
   19899   19900   19920   19921   19936   19897   19898   19899   19900   19920
   19922   19936   19886   19901   19902   19903   19904   19923   19924   19937
   19901   19902   19903   19904   19924   19925   19937   19888   19905   19906
   19907   19908   19926   19927   19938   19905   19906   19907   19908   19926
   19928   19938   19890   19909   19910   19911   19912   19929   19930   19939
   19909   19910   19911   19912   19929   19931   19939   19892   19913   19914
   19915   19916   19932   19933   19940   19913   19914   19915   19916   19932
   19934   19940   19894   19895   19917   19918   19919   19935   19941   19917
   19918   19896   19917   19918   19919   19935   19941   19917   19919   19898
   19920   19921   19900   19920   19921   19922   19936   19942   19900   19920
   19922   19920   19921   19922   19936   19942   19902   19903   19923   19924
   19925   19937   19943   19923   19924   19904   19923   19924   19925   19937
   19943   19924   19925   19906   19907   19926   19927   19928   19938   19944
   19926   19927   19908   19926   19927   19928   19938   19944   19926   19928
   19910   19911   19929   19930   19931   19939   19945   19929   19930   19912
   19929   19930   19931   19939   19945   19929   19931   19914   19915   19932
   19933   19934   19940   19946   19932   19933   19916   19932   19933   19934
   19940   19946   19932   19934   19918   19919   19935   19941   19947   19948
   19949   19935   19935   19921   19922   19936   19942   19950   19951   19952
   19936   19936   19924   19937   19925   19937   19943   19953   19954   19955
   19937   19927   19928   19938   19944   19956   19957   19958   19938   19938
   19930   19931   19939   19945   19959   19960   19961   19939   19939   19933
   19934   19940   19946   19962   19963   19964   19940   19940   19941   19947
   19948   19949   19942   19950   19951   19952   19943   19953   19954   19955
   19944   19956   19957   19958   19945   19959   19960   19961   19946   19962
   19963   19964   19947   19948   19949   19950   19951   19952   19953   19954
   19955   19956   19957   19958   19959   19960   19961   19962   19963   19964
   19948   19949   19949       0   19951   19952   19952       0   19954   19955
   19955       0   19957   19958   19958       0   19960   19961   19961       0
   19963   19964   19964       0   19966   19967   19968   19969   19970   19971
   19972   19973   19974   19975   19976   19967   19968   19969   19970   19971
   19972   19973   19974   19975   19976   19977   19978   19979   19968   19969
   19970   19971   19972   19969   19973   19974   19975   19976   19977   19978
   19980   19973   19974   19975   19976   19977   19979   19980   19971   19972
   19972       0   19974   19975   19977   19978   19979   19980   19981   19982
   19977   19978   19976   19977   19978   19979   19980   19981   19982   19977
   19979   19978   19979   19980   19981   19982   19983   19984   19985   19986
   19980   19980   19981   19982   19983   19984   19985   19986   19987   19988
   19989   19990   19991   19992   19993   19994   19982   19983   19984   19985
   19986   19987   19988   19989   19990   19995   19996   19997   19983   19984
   19985   19986   19991   19992   19993   19994   19998   19999   20000   19984
   19987   19988   19989   19990   19995   19996   20001   20002   20003   20004
   19987   19988   19989   19990   19995   19997   20001   19986   19991   19992
   19993   19994   19998   19999   20005   19991   19992   19993   19994   19998
   20000   20005   19988   19989   19995   19996   19997   20001   20002   20003
   20004   20006   20007   20008   20009   20010   20011   19995   19996   19990
   19995   19996   19997   20001   20002   20006   19995   19997   19992   19993
   19998   19999   20000   20005   20012   19998   19999   19994   19998   19999
   20000   20005   20012   19998   20000   19996   19997   20001   20002   20003
   20004   20006   20007   20013   20014   20001   20002   20003   20004   20006
   20007   20008   20009   20010   20011   20015   20016   20017   20018   20019
   20020   20021   20022   20001   19999   20000   20005   20012   20023   20024
   20025   20005   20005   20002   20003   20004   20006   20007   20013   20014
   20015   20016   20026   20003   20004   20006   20007   20008   20009   20010
   20011   20013   20014   20015   20016   20027   20004   20007   20008   20009
   20010   20011   20017   20018   20019   20022   20028   20029   20030   20007
   20008   20009   20010   20011   20019   20020   20021   20022   20031   20032
   20033   20012   20023   20024   20025   20007   20013   20014   20015   20026
   20027   20013   20015   20016   20026   20027   20034   20035   20009   20011
   20017   20018   20019   20028   20029   20036   20037   20038   20010   20011
   20017   20018   20019   20022   20029   20030   20032   20033   20038   20011
   20020   20021   20022   20031   20032   20039   20040   20041   20019   20020
   20021   20022   20029   20030   20032   20033   20041   20023   20024   20025
   20014   20015   20016   20026   20027   20034   20035   20015   20026   20016
   20026   20027   20034   20035   20042   20043   20044   20045   20027   20018
   20019   20028   20029   20030   20036   20037   20038   20046   20047   20048
   20049   20028   20029   20022   20028   20029   20030   20038   20021   20031
   20032   20022   20031   20032   20033   20039   20040   20041   20050   20051
   20052   20053   20031   20032   20033   20041   20024   20025   20025       0
   20027   20034   20035   20042   20043   20044   20045   20054   20055   20056
   20057   20058   20059   20060   20061   20029   20036   20037   20038   20046
   20047   20048   20049   20062   20063   20064   20065   20066   20067   20068
   20069   20030   20036   20037   20038   20038   20032   20039   20040   20041
   20050   20051   20052   20053   20070   20071   20072   20073   20074   20075
   20076   20077   20033   20039   20040   20041   20041   20035   20042   20043
   20044   20045   20054   20055   20056   20057   20078   20079   20080   20042
   20043   20044   20045   20058   20059   20060   20061   20081   20082   20083
   20037   20046   20047   20048   20049   20062   20063   20064   20065   20084
   20085   20086   20046   20047   20048   20049   20066   20067   20068   20069
   20087   20088   20089       0   20040   20050   20051   20052   20053   20070
   20071   20072   20073   20090   20091   20092   20050   20051   20052   20053
   20074   20075   20076   20077   20093   20094   20095       0   20043   20054
   20055   20056   20057   20078   20079   20096   20054   20055   20056   20057
   20078   20080   20096   20045   20058   20059   20060   20061   20081   20082
   20097   20058   20059   20060   20061   20081   20083   20097   20047   20062
   20063   20064   20065   20084   20085   20098   20062   20063   20064   20065
   20085   20086   20098   20049   20066   20067   20068   20069   20087   20088
   20099   20066   20067   20068   20069   20087   20089   20099   20051   20070
   20071   20072   20073   20090   20091   20100   20070   20071   20072   20073
   20090   20092   20100   20053   20074   20075   20076   20077   20093   20094
   20101   20074   20075   20076   20077   20093   20095   20101   20055   20056
   20078   20079   20080   20096   20102   20078   20079   20057   20078   20079
   20080   20096   20102   20078   20080   20059   20081   20082   20061   20081
   20082   20083   20097   20103   20061   20081   20083   20081   20082   20083
   20097   20103   20063   20064   20084   20085   20086   20098   20104   20084
   20085   20065   20084   20085   20086   20098   20104   20085   20086   20067
   20068   20087   20088   20089   20099   20105   20087   20088   20069   20087
   20088   20089   20099   20105   20087   20089   20071   20072   20090   20091
   20092   20100   20106   20090   20091   20073   20090   20091   20092   20100
   20106   20090   20092   20075   20076   20093   20094   20095   20101   20107
   20093   20094   20077   20093   20094   20095   20101   20107   20093   20095
   20079   20080   20096   20102   20108   20109   20110   20096   20096   20082
   20083   20097   20103   20111   20112   20113   20097   20097   20085   20098
   20086   20098   20104   20114   20115   20116   20098   20088   20089   20099
   20105   20117   20118   20119   20099   20099   20091   20092   20100   20106
   20120   20121   20122   20100   20100   20094   20095   20101   20107   20123
   20124   20125   20101   20101   20102   20108   20109   20110   20103   20111
   20112   20113   20104   20114   20115   20116   20105   20117   20118   20119
   20106   20120   20121   20122   20107   20123   20124   20125   20108   20109
   20110   20111   20112   20113   20114   20115   20116   20117   20118   20119
   20120   20121   20122   20123   20124   20125   20109   20110   20110       0
   20112   20113   20113       0   20115   20116   20116       0   20118   20119
   20119       0   20121   20122   20122       0   20124   20125   20125       0
   20127   20128   20129   20130   20131   20132   20133   20134   20135   20136
   20137   20128   20129   20130   20131   20132   20133   20134   20135   20136
   20137   20138   20139   20140   20129   20130   20131   20132   20133   20130
   20134   20135   20136   20137   20138   20139   20141   20134   20135   20136
   20137   20138   20140   20141   20132   20133   20133       0   20135   20136
   20138   20139   20140   20141   20142   20143   20138   20139   20137   20138
   20139   20140   20141   20142   20143   20138   20140   20139   20140   20141
   20142   20143   20144   20145   20146   20147   20141   20141   20142   20143
   20144   20145   20146   20147   20148   20149   20150   20151   20152   20153
   20154   20155   20143   20144   20145   20146   20147   20148   20149   20150
   20151   20156   20157   20158   20144   20145   20146   20147   20152   20153
   20154   20155   20159   20160   20161   20145   20148   20149   20150   20151
   20156   20157   20162   20163   20164   20165   20148   20149   20150   20151
   20156   20158   20162   20147   20152   20153   20154   20155   20159   20160
   20166   20152   20153   20154   20155   20159   20161   20166   20149   20150
   20156   20157   20158   20162   20163   20164   20165   20167   20168   20169
   20170   20171   20172   20156   20157   20151   20156   20157   20158   20162
   20163   20167   20156   20158   20153   20154   20159   20160   20161   20166
   20173   20159   20160   20155   20159   20160   20161   20166   20173   20159
   20161   20157   20158   20162   20163   20164   20165   20167   20168   20174
   20175   20162   20163   20164   20165   20167   20168   20169   20170   20171
   20172   20176   20177   20178   20179   20180   20181   20182   20183   20162
   20160   20161   20166   20173   20184   20185   20186   20166   20166   20163
   20164   20165   20167   20168   20174   20175   20176   20177   20187   20164
   20165   20167   20168   20169   20170   20171   20172   20174   20175   20176
   20177   20188   20165   20168   20169   20170   20171   20172   20178   20179
   20180   20183   20189   20190   20191   20168   20169   20170   20171   20172
   20180   20181   20182   20183   20192   20193   20194   20173   20184   20185
   20186   20168   20174   20175   20176   20187   20188   20174   20176   20177
   20187   20188   20195   20196   20170   20172   20178   20179   20180   20189
   20190   20197   20198   20199   20171   20172   20178   20179   20180   20183
   20190   20191   20193   20194   20199   20172   20181   20182   20183   20192
   20193   20200   20201   20202   20180   20181   20182   20183   20190   20191
   20193   20194   20202   20184   20185   20186   20175   20176   20177   20187
   20188   20195   20196   20176   20187   20177   20187   20188   20195   20196
   20203   20204   20205   20206   20188   20179   20180   20189   20190   20191
   20197   20198   20199   20207   20208   20209   20210   20189   20190   20183
   20189   20190   20191   20199   20182   20192   20193   20183   20192   20193
   20194   20200   20201   20202   20211   20212   20213   20214   20192   20193
   20194   20202   20185   20186   20186       0   20188   20195   20196   20203
   20204   20205   20206   20215   20216   20217   20218   20219   20220   20221
   20222   20190   20197   20198   20199   20207   20208   20209   20210   20223
   20224   20225   20226   20227   20228   20229   20230   20191   20197   20198
   20199   20199   20193   20200   20201   20202   20211   20212   20213   20214
   20231   20232   20233   20234   20235   20236   20237   20238   20194   20200
   20201   20202   20202   20196   20203   20204   20205   20206   20215   20216
   20217   20218   20239   20240   20241   20203   20204   20205   20206   20219
   20220   20221   20222   20242   20243   20244   20198   20207   20208   20209
   20210   20223   20224   20225   20226   20245   20246   20247   20207   20208
   20209   20210   20227   20228   20229   20230   20248   20249   20250       0
   20201   20211   20212   20213   20214   20231   20232   20233   20234   20251
   20252   20253   20211   20212   20213   20214   20235   20236   20237   20238
   20254   20255   20256       0   20204   20215   20216   20217   20218   20239
   20240   20257   20215   20216   20217   20218   20239   20241   20257   20206
   20219   20220   20221   20222   20242   20243   20258   20219   20220   20221
   20222   20242   20244   20258   20208   20223   20224   20225   20226   20245
   20246   20259   20223   20224   20225   20226   20246   20247   20259   20210
   20227   20228   20229   20230   20248   20249   20260   20227   20228   20229
   20230   20248   20250   20260   20212   20231   20232   20233   20234   20251
   20252   20261   20231   20232   20233   20234   20251   20253   20261   20214
   20235   20236   20237   20238   20254   20255   20262   20235   20236   20237
   20238   20254   20256   20262   20216   20217   20239   20240   20241   20257
   20263   20239   20240   20218   20239   20240   20241   20257   20263   20239
   20241   20220   20242   20243   20222   20242   20243   20244   20258   20264
   20222   20242   20244   20242   20243   20244   20258   20264   20224   20225
   20245   20246   20247   20259   20265   20245   20246   20226   20245   20246
   20247   20259   20265   20246   20247   20228   20229   20248   20249   20250
   20260   20266   20248   20249   20230   20248   20249   20250   20260   20266
   20248   20250   20232   20233   20251   20252   20253   20261   20267   20251
   20252   20234   20251   20252   20253   20261   20267   20251   20253   20236
   20237   20254   20255   20256   20262   20268   20254   20255   20238   20254
   20255   20256   20262   20268   20254   20256   20240   20241   20257   20263
   20269   20270   20271   20257   20257   20243   20244   20258   20264   20272
   20273   20274   20258   20258   20246   20259   20247   20259   20265   20275
   20276   20277   20259   20249   20250   20260   20266   20278   20279   20280
   20260   20260   20252   20253   20261   20267   20281   20282   20283   20261
   20261   20255   20256   20262   20268   20284   20285   20286   20262   20262
   20263   20269   20270   20271   20264   20272   20273   20274   20265   20275
   20276   20277   20266   20278   20279   20280   20267   20281   20282   20283
   20268   20284   20285   20286   20269   20270   20271   20272   20273   20274
   20275   20276   20277   20278   20279   20280   20281   20282   20283   20284
   20285   20286   20270   20271   20271       0   20273   20274   20274       0
   20276   20277   20277       0   20279   20280   20280       0   20282   20283
   20283       0   20285   20286   20286       0   20288   20289   20290   20291
   20292   20293   20294   20295   20296   20297   20298   20289   20290   20291
   20292   20293   20294   20295   20296   20297   20298   20299   20300   20301
   20290   20291   20292   20293   20294   20291   20295   20296   20297   20298
   20299   20300   20302   20295   20296   20297   20298   20299   20301   20302
   20293   20294   20294       0   20296   20297   20299   20300   20301   20302
   20303   20304   20299   20300   20298   20299   20300   20301   20302   20303
   20304   20299   20301   20300   20301   20302   20303   20304   20305   20306
   20307   20308   20302   20302   20303   20304   20305   20306   20307   20308
   20309   20310   20311   20312   20313   20314   20315   20316   20304   20305
   20306   20307   20308   20309   20310   20311   20312   20317   20318   20319
   20305   20306   20307   20308   20313   20314   20315   20316   20320   20321
   20322   20306   20309   20310   20311   20312   20317   20318   20323   20324
   20325   20326   20309   20310   20311   20312   20317   20319   20323   20308
   20313   20314   20315   20316   20320   20321   20327   20313   20314   20315
   20316   20320   20322   20327   20310   20311   20317   20318   20319   20323
   20324   20325   20326   20328   20329   20330   20331   20332   20333   20317
   20318   20312   20317   20318   20319   20323   20324   20328   20317   20319
   20314   20315   20320   20321   20322   20327   20334   20320   20321   20316
   20320   20321   20322   20327   20334   20320   20322   20318   20319   20323
   20324   20325   20326   20328   20329   20335   20336   20323   20324   20325
   20326   20328   20329   20330   20331   20332   20333   20337   20338   20339
   20340   20341   20342   20343   20344   20323   20321   20322   20327   20334
   20345   20346   20347   20327   20327   20324   20325   20326   20328   20329
   20335   20336   20337   20338   20348   20325   20326   20328   20329   20330
   20331   20332   20333   20335   20336   20337   20338   20349   20326   20329
   20330   20331   20332   20333   20339   20340   20341   20344   20350   20351
   20352   20329   20330   20331   20332   20333   20341   20342   20343   20344
   20353   20354   20355   20334   20345   20346   20347   20329   20335   20336
   20337   20348   20349   20335   20337   20338   20348   20349   20356   20357
   20331   20333   20339   20340   20341   20350   20351   20358   20359   20360
   20332   20333   20339   20340   20341   20344   20351   20352   20354   20355
   20360   20333   20342   20343   20344   20353   20354   20361   20362   20363
   20341   20342   20343   20344   20351   20352   20354   20355   20363   20345
   20346   20347   20336   20337   20338   20348   20349   20356   20357   20337
   20348   20338   20348   20349   20356   20357   20364   20365   20366   20367
   20349   20340   20341   20350   20351   20352   20358   20359   20360   20368
   20369   20370   20371   20350   20351   20344   20350   20351   20352   20360
   20343   20353   20354   20344   20353   20354   20355   20361   20362   20363
   20372   20373   20374   20375   20353   20354   20355   20363   20346   20347
   20347       0   20349   20356   20357   20364   20365   20366   20367   20376
   20377   20378   20379   20380   20381   20382   20383   20351   20358   20359
   20360   20368   20369   20370   20371   20384   20385   20386   20387   20388
   20389   20390   20391   20352   20358   20359   20360   20360   20354   20361
   20362   20363   20372   20373   20374   20375   20392   20393   20394   20395
   20396   20397   20398   20399   20355   20361   20362   20363   20363   20357
   20364   20365   20366   20367   20376   20377   20378   20379   20400   20401
   20402   20364   20365   20366   20367   20380   20381   20382   20383   20403
   20404   20405   20359   20368   20369   20370   20371   20384   20385   20386
   20387   20406   20407   20408   20368   20369   20370   20371   20388   20389
   20390   20391   20409   20410   20411       0   20362   20372   20373   20374
   20375   20392   20393   20394   20395   20412   20413   20414   20372   20373
   20374   20375   20396   20397   20398   20399   20415   20416   20417       0
   20365   20376   20377   20378   20379   20400   20401   20418   20376   20377
   20378   20379   20400   20402   20418   20367   20380   20381   20382   20383
   20403   20404   20419   20380   20381   20382   20383   20403   20405   20419
   20369   20384   20385   20386   20387   20406   20407   20420   20384   20385
   20386   20387   20407   20408   20420   20371   20388   20389   20390   20391
   20409   20410   20421   20388   20389   20390   20391   20409   20411   20421
   20373   20392   20393   20394   20395   20412   20413   20422   20392   20393
   20394   20395   20412   20414   20422   20375   20396   20397   20398   20399
   20415   20416   20423   20396   20397   20398   20399   20415   20417   20423
   20377   20378   20400   20401   20402   20418   20424   20400   20401   20379
   20400   20401   20402   20418   20424   20400   20402   20381   20403   20404
   20383   20403   20404   20405   20419   20425   20383   20403   20405   20403
   20404   20405   20419   20425   20385   20386   20406   20407   20408   20420
   20426   20406   20407   20387   20406   20407   20408   20420   20426   20407
   20408   20389   20390   20409   20410   20411   20421   20427   20409   20410
   20391   20409   20410   20411   20421   20427   20409   20411   20393   20394
   20412   20413   20414   20422   20428   20412   20413   20395   20412   20413
   20414   20422   20428   20412   20414   20397   20398   20415   20416   20417
   20423   20429   20415   20416   20399   20415   20416   20417   20423   20429
   20415   20417   20401   20402   20418   20424   20430   20431   20432   20418
   20418   20404   20405   20419   20425   20433   20434   20435   20419   20419
   20407   20420   20408   20420   20426   20436   20437   20438   20420   20410
   20411   20421   20427   20439   20440   20441   20421   20421   20413   20414
   20422   20428   20442   20443   20444   20422   20422   20416   20417   20423
   20429   20445   20446   20447   20423   20423   20424   20430   20431   20432
   20425   20433   20434   20435   20426   20436   20437   20438   20427   20439
   20440   20441   20428   20442   20443   20444   20429   20445   20446   20447
   20430   20431   20432   20433   20434   20435   20436   20437   20438   20439
   20440   20441   20442   20443   20444   20445   20446   20447   20431   20432
   20432       0   20434   20435   20435       0   20437   20438   20438       0
   20440   20441   20441       0   20443   20444   20444       0   20446   20447
   20447       0   20449   20450   20451   20452   20453   20454   20455   20456
   20457   20458   20459   20450   20451   20452   20453   20454   20455   20456
   20457   20458   20459   20460   20461   20462   20451   20452   20453   20454
   20455   20452   20456   20457   20458   20459   20460   20461   20463   20456
   20457   20458   20459   20460   20462   20463   20454   20455   20455       0
   20457   20458   20460   20461   20462   20463   20464   20465   20460   20461
   20459   20460   20461   20462   20463   20464   20465   20460   20462   20461
   20462   20463   20464   20465   20466   20467   20468   20469   20463   20463
   20464   20465   20466   20467   20468   20469   20470   20471   20472   20473
   20474   20475   20476   20477   20465   20466   20467   20468   20469   20470
   20471   20472   20473   20478   20479   20480   20466   20467   20468   20469
   20474   20475   20476   20477   20481   20482   20483   20467   20470   20471
   20472   20473   20478   20479   20484   20485   20486   20487   20470   20471
   20472   20473   20478   20480   20484   20469   20474   20475   20476   20477
   20481   20482   20488   20474   20475   20476   20477   20481   20483   20488
   20471   20472   20478   20479   20480   20484   20485   20486   20487   20489
   20490   20491   20492   20493   20494   20478   20479   20473   20478   20479
   20480   20484   20485   20489   20478   20480   20475   20476   20481   20482
   20483   20488   20495   20481   20482   20477   20481   20482   20483   20488
   20495   20481   20483   20479   20480   20484   20485   20486   20487   20489
   20490   20496   20497   20484   20485   20486   20487   20489   20490   20491
   20492   20493   20494   20498   20499   20500   20501   20502   20503   20504
   20505   20484   20482   20483   20488   20495   20506   20507   20508   20488
   20488   20485   20486   20487   20489   20490   20496   20497   20498   20499
   20509   20486   20487   20489   20490   20491   20492   20493   20494   20496
   20497   20498   20499   20510   20487   20490   20491   20492   20493   20494
   20500   20501   20502   20505   20511   20512   20513   20490   20491   20492
   20493   20494   20502   20503   20504   20505   20514   20515   20516   20495
   20506   20507   20508   20490   20496   20497   20498   20509   20510   20496
   20498   20499   20509   20510   20517   20518   20492   20494   20500   20501
   20502   20511   20512   20519   20520   20521   20493   20494   20500   20501
   20502   20505   20512   20513   20515   20516   20521   20494   20503   20504
   20505   20514   20515   20522   20523   20524   20502   20503   20504   20505
   20512   20513   20515   20516   20524   20506   20507   20508   20497   20498
   20499   20509   20510   20517   20518   20498   20509   20499   20509   20510
   20517   20518   20525   20526   20527   20528   20510   20501   20502   20511
   20512   20513   20519   20520   20521   20529   20530   20531   20532   20511
   20512   20505   20511   20512   20513   20521   20504   20514   20515   20505
   20514   20515   20516   20522   20523   20524   20533   20534   20535   20536
   20514   20515   20516   20524   20507   20508   20508       0   20510   20517
   20518   20525   20526   20527   20528   20537   20538   20539   20540   20541
   20542   20543   20544   20512   20519   20520   20521   20529   20530   20531
   20532   20545   20546   20547   20548   20549   20550   20551   20552   20513
   20519   20520   20521   20521   20515   20522   20523   20524   20533   20534
   20535   20536   20553   20554   20555   20556   20557   20558   20559   20560
   20516   20522   20523   20524   20524   20518   20525   20526   20527   20528
   20537   20538   20539   20540   20561   20562   20563   20525   20526   20527
   20528   20541   20542   20543   20544   20564   20565   20566   20520   20529
   20530   20531   20532   20545   20546   20547   20548   20567   20568   20569
   20529   20530   20531   20532   20549   20550   20551   20552   20570   20571
   20572       0   20523   20533   20534   20535   20536   20553   20554   20555
   20556   20573   20574   20575   20533   20534   20535   20536   20557   20558
   20559   20560   20576   20577   20578       0   20526   20537   20538   20539
   20540   20561   20562   20579   20537   20538   20539   20540   20561   20563
   20579   20528   20541   20542   20543   20544   20564   20565   20580   20541
   20542   20543   20544   20564   20566   20580   20530   20545   20546   20547
   20548   20567   20568   20581   20545   20546   20547   20548   20568   20569
   20581   20532   20549   20550   20551   20552   20570   20571   20582   20549
   20550   20551   20552   20570   20572   20582   20534   20553   20554   20555
   20556   20573   20574   20583   20553   20554   20555   20556   20573   20575
   20583   20536   20557   20558   20559   20560   20576   20577   20584   20557
   20558   20559   20560   20576   20578   20584   20538   20539   20561   20562
   20563   20579   20585   20561   20562   20540   20561   20562   20563   20579
   20585   20561   20563   20542   20564   20565   20544   20564   20565   20566
   20580   20586   20544   20564   20566   20564   20565   20566   20580   20586
   20546   20547   20567   20568   20569   20581   20587   20567   20568   20548
   20567   20568   20569   20581   20587   20568   20569   20550   20551   20570
   20571   20572   20582   20588   20570   20571   20552   20570   20571   20572
   20582   20588   20570   20572   20554   20555   20573   20574   20575   20583
   20589   20573   20574   20556   20573   20574   20575   20583   20589   20573
   20575   20558   20559   20576   20577   20578   20584   20590   20576   20577
   20560   20576   20577   20578   20584   20590   20576   20578   20562   20563
   20579   20585   20591   20592   20593   20579   20579   20565   20566   20580
   20586   20594   20595   20596   20580   20580   20568   20581   20569   20581
   20587   20597   20598   20599   20581   20571   20572   20582   20588   20600
   20601   20602   20582   20582   20574   20575   20583   20589   20603   20604
   20605   20583   20583   20577   20578   20584   20590   20606   20607   20608
   20584   20584   20585   20591   20592   20593   20586   20594   20595   20596
   20587   20597   20598   20599   20588   20600   20601   20602   20589   20603
   20604   20605   20590   20606   20607   20608   20591   20592   20593   20594
   20595   20596   20597   20598   20599   20600   20601   20602   20603   20604
   20605   20606   20607   20608   20592   20593   20593       0   20595   20596
   20596       0   20598   20599   20599       0   20601   20602   20602       0
   20604   20605   20605       0   20607   20608   20608       0   20610   20611
   20612   20613   20614   20615   20616   20617   20618   20619   20620   20611
   20612   20613   20614   20615   20616   20617   20618   20619   20620   20621
   20622   20623   20612   20613   20614   20615   20616   20613   20617   20618
   20619   20620   20621   20622   20624   20617   20618   20619   20620   20621
   20623   20624   20615   20616   20616       0   20618   20619   20621   20622
   20623   20624   20625   20626   20621   20622   20620   20621   20622   20623
   20624   20625   20626   20621   20623   20622   20623   20624   20625   20626
   20627   20628   20629   20630   20624   20624   20625   20626   20627   20628
   20629   20630   20631   20632   20633   20634   20635   20636   20637   20638
   20626   20627   20628   20629   20630   20631   20632   20633   20634   20639
   20640   20641   20627   20628   20629   20630   20635   20636   20637   20638
   20642   20643   20644   20628   20631   20632   20633   20634   20639   20640
   20645   20646   20647   20648   20631   20632   20633   20634   20639   20641
   20645   20630   20635   20636   20637   20638   20642   20643   20649   20635
   20636   20637   20638   20642   20644   20649   20632   20633   20639   20640
   20641   20645   20646   20647   20648   20650   20651   20652   20653   20654
   20655   20639   20640   20634   20639   20640   20641   20645   20646   20650
   20639   20641   20636   20637   20642   20643   20644   20649   20656   20642
   20643   20638   20642   20643   20644   20649   20656   20642   20644   20640
   20641   20645   20646   20647   20648   20650   20651   20657   20658   20645
   20646   20647   20648   20650   20651   20652   20653   20654   20655   20659
   20660   20661   20662   20663   20664   20665   20666   20645   20643   20644
   20649   20656   20667   20668   20669   20649   20649   20646   20647   20648
   20650   20651   20657   20658   20659   20660   20670   20647   20648   20650
   20651   20652   20653   20654   20655   20657   20658   20659   20660   20671
   20648   20651   20652   20653   20654   20655   20661   20662   20663   20666
   20672   20673   20674   20651   20652   20653   20654   20655   20663   20664
   20665   20666   20675   20676   20677   20656   20667   20668   20669   20651
   20657   20658   20659   20670   20671   20657   20659   20660   20670   20671
   20678   20679   20653   20655   20661   20662   20663   20672   20673   20680
   20681   20682   20654   20655   20661   20662   20663   20666   20673   20674
   20676   20677   20682   20655   20664   20665   20666   20675   20676   20683
   20684   20685   20663   20664   20665   20666   20673   20674   20676   20677
   20685   20667   20668   20669   20658   20659   20660   20670   20671   20678
   20679   20659   20670   20660   20670   20671   20678   20679   20686   20687
   20688   20689   20671   20662   20663   20672   20673   20674   20680   20681
   20682   20690   20691   20692   20693   20672   20673   20666   20672   20673
   20674   20682   20665   20675   20676   20666   20675   20676   20677   20683
   20684   20685   20694   20695   20696   20697   20675   20676   20677   20685
   20668   20669   20669       0   20671   20678   20679   20686   20687   20688
   20689   20698   20699   20700   20701   20702   20703   20704   20705   20673
   20680   20681   20682   20690   20691   20692   20693   20706   20707   20708
   20709   20710   20711   20712   20713   20674   20680   20681   20682   20682
   20676   20683   20684   20685   20694   20695   20696   20697   20714   20715
   20716   20717   20718   20719   20720   20721   20677   20683   20684   20685
   20685   20679   20686   20687   20688   20689   20698   20699   20700   20701
   20722   20723   20724   20686   20687   20688   20689   20702   20703   20704
   20705   20725   20726   20727   20681   20690   20691   20692   20693   20706
   20707   20708   20709   20728   20729   20730   20690   20691   20692   20693
   20710   20711   20712   20713   20731   20732   20733       0   20684   20694
   20695   20696   20697   20714   20715   20716   20717   20734   20735   20736
   20694   20695   20696   20697   20718   20719   20720   20721   20737   20738
   20739       0   20687   20698   20699   20700   20701   20722   20723   20740
   20698   20699   20700   20701   20722   20724   20740   20689   20702   20703
   20704   20705   20725   20726   20741   20702   20703   20704   20705   20725
   20727   20741   20691   20706   20707   20708   20709   20728   20729   20742
   20706   20707   20708   20709   20729   20730   20742   20693   20710   20711
   20712   20713   20731   20732   20743   20710   20711   20712   20713   20731
   20733   20743   20695   20714   20715   20716   20717   20734   20735   20744
   20714   20715   20716   20717   20734   20736   20744   20697   20718   20719
   20720   20721   20737   20738   20745   20718   20719   20720   20721   20737
   20739   20745   20699   20700   20722   20723   20724   20740   20746   20722
   20723   20701   20722   20723   20724   20740   20746   20722   20724   20703
   20725   20726   20705   20725   20726   20727   20741   20747   20705   20725
   20727   20725   20726   20727   20741   20747   20707   20708   20728   20729
   20730   20742   20748   20728   20729   20709   20728   20729   20730   20742
   20748   20729   20730   20711   20712   20731   20732   20733   20743   20749
   20731   20732   20713   20731   20732   20733   20743   20749   20731   20733
   20715   20716   20734   20735   20736   20744   20750   20734   20735   20717
   20734   20735   20736   20744   20750   20734   20736   20719   20720   20737
   20738   20739   20745   20751   20737   20738   20721   20737   20738   20739
   20745   20751   20737   20739   20723   20724   20740   20746   20752   20753
   20754   20740   20740   20726   20727   20741   20747   20755   20756   20757
   20741   20741   20729   20742   20730   20742   20748   20758   20759   20760
   20742   20732   20733   20743   20749   20761   20762   20763   20743   20743
   20735   20736   20744   20750   20764   20765   20766   20744   20744   20738
   20739   20745   20751   20767   20768   20769   20745   20745   20746   20752
   20753   20754   20747   20755   20756   20757   20748   20758   20759   20760
   20749   20761   20762   20763   20750   20764   20765   20766   20751   20767
   20768   20769   20752   20753   20754   20755   20756   20757   20758   20759
   20760   20761   20762   20763   20764   20765   20766   20767   20768   20769
   20753   20754   20754       0   20756   20757   20757       0   20759   20760
   20760       0   20762   20763   20763       0   20765   20766   20766       0
   20768   20769   20769       0   20771   20772   20773   20774   20775   20776
   20777   20778   20779   20780   20781   20772   20773   20774   20775   20776
   20777   20778   20779   20780   20781   20782   20783   20784   20773   20774
   20775   20776   20777   20774   20778   20779   20780   20781   20782   20783
   20785   20778   20779   20780   20781   20782   20784   20785   20776   20777
   20777       0   20779   20780   20782   20783   20784   20785   20786   20787
   20782   20783   20781   20782   20783   20784   20785   20786   20787   20782
   20784   20783   20784   20785   20786   20787   20788   20789   20790   20791
   20785   20785   20786   20787   20788   20789   20790   20791   20792   20793
   20794   20795   20796   20797   20798   20799   20787   20788   20789   20790
   20791   20792   20793   20794   20795   20800   20801   20802   20788   20789
   20790   20791   20796   20797   20798   20799   20803   20804   20805   20789
   20792   20793   20794   20795   20800   20801   20806   20807   20808   20809
   20792   20793   20794   20795   20800   20802   20806   20791   20796   20797
   20798   20799   20803   20804   20810   20796   20797   20798   20799   20803
   20805   20810   20793   20794   20800   20801   20802   20806   20807   20808
   20809   20811   20812   20813   20814   20815   20816   20800   20801   20795
   20800   20801   20802   20806   20807   20811   20800   20802   20797   20798
   20803   20804   20805   20810   20817   20803   20804   20799   20803   20804
   20805   20810   20817   20803   20805   20801   20802   20806   20807   20808
   20809   20811   20812   20818   20819   20806   20807   20808   20809   20811
   20812   20813   20814   20815   20816   20820   20821   20822   20823   20824
   20825   20826   20827   20806   20804   20805   20810   20817   20828   20829
   20830   20810   20810   20807   20808   20809   20811   20812   20818   20819
   20820   20821   20831   20808   20809   20811   20812   20813   20814   20815
   20816   20818   20819   20820   20821   20832   20809   20812   20813   20814
   20815   20816   20822   20823   20824   20827   20833   20834   20835   20812
   20813   20814   20815   20816   20824   20825   20826   20827   20836   20837
   20838   20817   20828   20829   20830   20812   20818   20819   20820   20831
   20832   20818   20820   20821   20831   20832   20839   20840   20814   20816
   20822   20823   20824   20833   20834   20841   20842   20843   20815   20816
   20822   20823   20824   20827   20834   20835   20837   20838   20843   20816
   20825   20826   20827   20836   20837   20844   20845   20846   20824   20825
   20826   20827   20834   20835   20837   20838   20846   20828   20829   20830
   20819   20820   20821   20831   20832   20839   20840   20820   20831   20821
   20831   20832   20839   20840   20847   20848   20849   20850   20832   20823
   20824   20833   20834   20835   20841   20842   20843   20851   20852   20853
   20854   20833   20834   20827   20833   20834   20835   20843   20826   20836
   20837   20827   20836   20837   20838   20844   20845   20846   20855   20856
   20857   20858   20836   20837   20838   20846   20829   20830   20830       0
   20832   20839   20840   20847   20848   20849   20850   20859   20860   20861
   20862   20863   20864   20865   20866   20834   20841   20842   20843   20851
   20852   20853   20854   20867   20868   20869   20870   20871   20872   20873
   20874   20835   20841   20842   20843   20843   20837   20844   20845   20846
   20855   20856   20857   20858   20875   20876   20877   20878   20879   20880
   20881   20882   20838   20844   20845   20846   20846   20840   20847   20848
   20849   20850   20859   20860   20861   20862   20883   20884   20885   20847
   20848   20849   20850   20863   20864   20865   20866   20886   20887   20888
   20842   20851   20852   20853   20854   20867   20868   20869   20870   20889
   20890   20891   20851   20852   20853   20854   20871   20872   20873   20874
   20892   20893   20894       0   20845   20855   20856   20857   20858   20875
   20876   20877   20878   20895   20896   20897   20855   20856   20857   20858
   20879   20880   20881   20882   20898   20899   20900       0   20848   20859
   20860   20861   20862   20883   20884   20901   20859   20860   20861   20862
   20883   20885   20901   20850   20863   20864   20865   20866   20886   20887
   20902   20863   20864   20865   20866   20886   20888   20902   20852   20867
   20868   20869   20870   20889   20890   20903   20867   20868   20869   20870
   20890   20891   20903   20854   20871   20872   20873   20874   20892   20893
   20904   20871   20872   20873   20874   20892   20894   20904   20856   20875
   20876   20877   20878   20895   20896   20905   20875   20876   20877   20878
   20895   20897   20905   20858   20879   20880   20881   20882   20898   20899
   20906   20879   20880   20881   20882   20898   20900   20906   20860   20861
   20883   20884   20885   20901   20907   20883   20884   20862   20883   20884
   20885   20901   20907   20883   20885   20864   20886   20887   20866   20886
   20887   20888   20902   20908   20866   20886   20888   20886   20887   20888
   20902   20908   20868   20869   20889   20890   20891   20903   20909   20889
   20890   20870   20889   20890   20891   20903   20909   20890   20891   20872
   20873   20892   20893   20894   20904   20910   20892   20893   20874   20892
   20893   20894   20904   20910   20892   20894   20876   20877   20895   20896
   20897   20905   20911   20895   20896   20878   20895   20896   20897   20905
   20911   20895   20897   20880   20881   20898   20899   20900   20906   20912
   20898   20899   20882   20898   20899   20900   20906   20912   20898   20900
   20884   20885   20901   20907   20913   20914   20915   20901   20901   20887
   20888   20902   20908   20916   20917   20918   20902   20902   20890   20903
   20891   20903   20909   20919   20920   20921   20903   20893   20894   20904
   20910   20922   20923   20924   20904   20904   20896   20897   20905   20911
   20925   20926   20927   20905   20905   20899   20900   20906   20912   20928
   20929   20930   20906   20906   20907   20913   20914   20915   20908   20916
   20917   20918   20909   20919   20920   20921   20910   20922   20923   20924
   20911   20925   20926   20927   20912   20928   20929   20930   20913   20914
   20915   20916   20917   20918   20919   20920   20921   20922   20923   20924
   20925   20926   20927   20928   20929   20930   20914   20915   20915       0
   20917   20918   20918       0   20920   20921   20921       0   20923   20924
   20924       0   20926   20927   20927       0   20929   20930   20930       0
   20932   20933   20934   20935   20936   20937   20938   20939   20940   20941
   20942   20933   20934   20935   20936   20937   20938   20939   20940   20941
   20942   20943   20944   20945   20934   20935   20936   20937   20938   20935
   20939   20940   20941   20942   20943   20944   20946   20939   20940   20941
   20942   20943   20945   20946   20937   20938   20938       0   20940   20941
   20943   20944   20945   20946   20947   20948   20943   20944   20942   20943
   20944   20945   20946   20947   20948   20943   20945   20944   20945   20946
   20947   20948   20949   20950   20951   20952   20946   20946   20947   20948
   20949   20950   20951   20952   20953   20954   20955   20956   20957   20958
   20959   20960   20948   20949   20950   20951   20952   20953   20954   20955
   20956   20961   20962   20963   20949   20950   20951   20952   20957   20958
   20959   20960   20964   20965   20966   20950   20953   20954   20955   20956
   20961   20962   20967   20968   20969   20970   20953   20954   20955   20956
   20961   20963   20967   20952   20957   20958   20959   20960   20964   20965
   20971   20957   20958   20959   20960   20964   20966   20971   20954   20955
   20961   20962   20963   20967   20968   20969   20970   20972   20973   20974
   20975   20976   20977   20961   20962   20956   20961   20962   20963   20967
   20968   20972   20961   20963   20958   20959   20964   20965   20966   20971
   20978   20964   20965   20960   20964   20965   20966   20971   20978   20964
   20966   20962   20963   20967   20968   20969   20970   20972   20973   20979
   20980   20967   20968   20969   20970   20972   20973   20974   20975   20976
   20977   20981   20982   20983   20984   20985   20986   20987   20988   20967
   20965   20966   20971   20978   20989   20990   20991   20971   20971   20968
   20969   20970   20972   20973   20979   20980   20981   20982   20992   20969
   20970   20972   20973   20974   20975   20976   20977   20979   20980   20981
   20982   20993   20970   20973   20974   20975   20976   20977   20983   20984
   20985   20988   20994   20995   20996   20973   20974   20975   20976   20977
   20985   20986   20987   20988   20997   20998   20999   20978   20989   20990
   20991   20973   20979   20980   20981   20992   20993   20979   20981   20982
   20992   20993   21000   21001   20975   20977   20983   20984   20985   20994
   20995   21002   21003   21004   20976   20977   20983   20984   20985   20988
   20995   20996   20998   20999   21004   20977   20986   20987   20988   20997
   20998   21005   21006   21007   20985   20986   20987   20988   20995   20996
   20998   20999   21007   20989   20990   20991   20980   20981   20982   20992
   20993   21000   21001   20981   20992   20982   20992   20993   21000   21001
   21008   21009   21010   21011   20993   20984   20985   20994   20995   20996
   21002   21003   21004   21012   21013   21014   21015   20994   20995   20988
   20994   20995   20996   21004   20987   20997   20998   20988   20997   20998
   20999   21005   21006   21007   21016   21017   21018   21019   20997   20998
   20999   21007   20990   20991   20991       0   20993   21000   21001   21008
   21009   21010   21011   21020   21021   21022   21023   21024   21025   21026
   21027   20995   21002   21003   21004   21012   21013   21014   21015   21028
   21029   21030   21031   21032   21033   21034   21035   20996   21002   21003
   21004   21004   20998   21005   21006   21007   21016   21017   21018   21019
   21036   21037   21038   21039   21040   21041   21042   21043   20999   21005
   21006   21007   21007   21001   21008   21009   21010   21011   21020   21021
   21022   21023   21044   21045   21046   21008   21009   21010   21011   21024
   21025   21026   21027   21047   21048   21049   21003   21012   21013   21014
   21015   21028   21029   21030   21031   21050   21051   21052   21012   21013
   21014   21015   21032   21033   21034   21035   21053   21054   21055       0
   21006   21016   21017   21018   21019   21036   21037   21038   21039   21056
   21057   21058   21016   21017   21018   21019   21040   21041   21042   21043
   21059   21060   21061       0   21009   21020   21021   21022   21023   21044
   21045   21062   21020   21021   21022   21023   21044   21046   21062   21011
   21024   21025   21026   21027   21047   21048   21063   21024   21025   21026
   21027   21047   21049   21063   21013   21028   21029   21030   21031   21050
   21051   21064   21028   21029   21030   21031   21051   21052   21064   21015
   21032   21033   21034   21035   21053   21054   21065   21032   21033   21034
   21035   21053   21055   21065   21017   21036   21037   21038   21039   21056
   21057   21066   21036   21037   21038   21039   21056   21058   21066   21019
   21040   21041   21042   21043   21059   21060   21067   21040   21041   21042
   21043   21059   21061   21067   21021   21022   21044   21045   21046   21062
   21068   21044   21045   21023   21044   21045   21046   21062   21068   21044
   21046   21025   21047   21048   21027   21047   21048   21049   21063   21069
   21027   21047   21049   21047   21048   21049   21063   21069   21029   21030
   21050   21051   21052   21064   21070   21050   21051   21031   21050   21051
   21052   21064   21070   21051   21052   21033   21034   21053   21054   21055
   21065   21071   21053   21054   21035   21053   21054   21055   21065   21071
   21053   21055   21037   21038   21056   21057   21058   21066   21072   21056
   21057   21039   21056   21057   21058   21066   21072   21056   21058   21041
   21042   21059   21060   21061   21067   21073   21059   21060   21043   21059
   21060   21061   21067   21073   21059   21061   21045   21046   21062   21068
   21074   21075   21076   21062   21062   21048   21049   21063   21069   21077
   21078   21079   21063   21063   21051   21064   21052   21064   21070   21080
   21081   21082   21064   21054   21055   21065   21071   21083   21084   21085
   21065   21065   21057   21058   21066   21072   21086   21087   21088   21066
   21066   21060   21061   21067   21073   21089   21090   21091   21067   21067
   21068   21074   21075   21076   21069   21077   21078   21079   21070   21080
   21081   21082   21071   21083   21084   21085   21072   21086   21087   21088
   21073   21089   21090   21091   21074   21075   21076   21077   21078   21079
   21080   21081   21082   21083   21084   21085   21086   21087   21088   21089
   21090   21091   21075   21076   21076       0   21078   21079   21079       0
   21081   21082   21082       0   21084   21085   21085       0   21087   21088
   21088       0   21090   21091   21091       0   21093   21094   21095   21096
   21097   21098   21099   21100   21101   21102   21103   21094   21095   21096
   21097   21098   21099   21100   21101   21102   21103   21104   21105   21106
   21095   21096   21097   21098   21099   21096   21100   21101   21102   21103
   21104   21105   21107   21100   21101   21102   21103   21104   21106   21107
   21098   21099   21099       0   21101   21102   21104   21105   21106   21107
   21108   21109   21104   21105   21103   21104   21105   21106   21107   21108
   21109   21104   21106   21105   21106   21107   21108   21109   21110   21111
   21112   21113   21107   21107   21108   21109   21110   21111   21112   21113
   21114   21115   21116   21117   21118   21119   21120   21121   21109   21110
   21111   21112   21113   21114   21115   21116   21117   21122   21123   21124
   21110   21111   21112   21113   21118   21119   21120   21121   21125   21126
   21127   21111   21114   21115   21116   21117   21122   21123   21128   21129
   21130   21131   21114   21115   21116   21117   21122   21124   21128   21113
   21118   21119   21120   21121   21125   21126   21132   21118   21119   21120
   21121   21125   21127   21132   21115   21116   21122   21123   21124   21128
   21129   21130   21131   21133   21134   21135   21136   21137   21138   21122
   21123   21117   21122   21123   21124   21128   21129   21133   21122   21124
   21119   21120   21125   21126   21127   21132   21139   21125   21126   21121
   21125   21126   21127   21132   21139   21125   21127   21123   21124   21128
   21129   21130   21131   21133   21134   21140   21141   21128   21129   21130
   21131   21133   21134   21135   21136   21137   21138   21142   21143   21144
   21145   21146   21147   21148   21149   21128   21126   21127   21132   21139
   21150   21151   21152   21132   21132   21129   21130   21131   21133   21134
   21140   21141   21142   21143   21153   21130   21131   21133   21134   21135
   21136   21137   21138   21140   21141   21142   21143   21154   21131   21134
   21135   21136   21137   21138   21144   21145   21146   21149   21155   21156
   21157   21134   21135   21136   21137   21138   21146   21147   21148   21149
   21158   21159   21160   21139   21150   21151   21152   21134   21140   21141
   21142   21153   21154   21140   21142   21143   21153   21154   21161   21162
   21136   21138   21144   21145   21146   21155   21156   21163   21164   21165
   21137   21138   21144   21145   21146   21149   21156   21157   21159   21160
   21165   21138   21147   21148   21149   21158   21159   21166   21167   21168
   21146   21147   21148   21149   21156   21157   21159   21160   21168   21150
   21151   21152   21141   21142   21143   21153   21154   21161   21162   21142
   21153   21143   21153   21154   21161   21162   21169   21170   21171   21172
   21154   21145   21146   21155   21156   21157   21163   21164   21165   21173
   21174   21175   21176   21155   21156   21149   21155   21156   21157   21165
   21148   21158   21159   21149   21158   21159   21160   21166   21167   21168
   21177   21178   21179   21180   21158   21159   21160   21168   21151   21152
   21152       0   21154   21161   21162   21169   21170   21171   21172   21181
   21182   21183   21184   21185   21186   21187   21188   21156   21163   21164
   21165   21173   21174   21175   21176   21189   21190   21191   21192   21193
   21194   21195   21196   21157   21163   21164   21165   21165   21159   21166
   21167   21168   21177   21178   21179   21180   21197   21198   21199   21200
   21201   21202   21203   21204   21160   21166   21167   21168   21168   21162
   21169   21170   21171   21172   21181   21182   21183   21184   21205   21206
   21207   21169   21170   21171   21172   21185   21186   21187   21188   21208
   21209   21210   21164   21173   21174   21175   21176   21189   21190   21191
   21192   21211   21212   21213   21173   21174   21175   21176   21193   21194
   21195   21196   21214   21215   21216       0   21167   21177   21178   21179
   21180   21197   21198   21199   21200   21217   21218   21219   21177   21178
   21179   21180   21201   21202   21203   21204   21220   21221   21222       0
   21170   21181   21182   21183   21184   21205   21206   21223   21181   21182
   21183   21184   21205   21207   21223   21172   21185   21186   21187   21188
   21208   21209   21224   21185   21186   21187   21188   21208   21210   21224
   21174   21189   21190   21191   21192   21211   21212   21225   21189   21190
   21191   21192   21212   21213   21225   21176   21193   21194   21195   21196
   21214   21215   21226   21193   21194   21195   21196   21214   21216   21226
   21178   21197   21198   21199   21200   21217   21218   21227   21197   21198
   21199   21200   21217   21219   21227   21180   21201   21202   21203   21204
   21220   21221   21228   21201   21202   21203   21204   21220   21222   21228
   21182   21183   21205   21206   21207   21223   21229   21205   21206   21184
   21205   21206   21207   21223   21229   21205   21207   21186   21208   21209
   21188   21208   21209   21210   21224   21230   21188   21208   21210   21208
   21209   21210   21224   21230   21190   21191   21211   21212   21213   21225
   21231   21211   21212   21192   21211   21212   21213   21225   21231   21212
   21213   21194   21195   21214   21215   21216   21226   21232   21214   21215
   21196   21214   21215   21216   21226   21232   21214   21216   21198   21199
   21217   21218   21219   21227   21233   21217   21218   21200   21217   21218
   21219   21227   21233   21217   21219   21202   21203   21220   21221   21222
   21228   21234   21220   21221   21204   21220   21221   21222   21228   21234
   21220   21222   21206   21207   21223   21229   21235   21236   21237   21223
   21223   21209   21210   21224   21230   21238   21239   21240   21224   21224
   21212   21225   21213   21225   21231   21241   21242   21243   21225   21215
   21216   21226   21232   21244   21245   21246   21226   21226   21218   21219
   21227   21233   21247   21248   21249   21227   21227   21221   21222   21228
   21234   21250   21251   21252   21228   21228   21229   21235   21236   21237
   21230   21238   21239   21240   21231   21241   21242   21243   21232   21244
   21245   21246   21233   21247   21248   21249   21234   21250   21251   21252
   21235   21236   21237   21238   21239   21240   21241   21242   21243   21244
   21245   21246   21247   21248   21249   21250   21251   21252   21236   21237
   21237       0   21239   21240   21240       0   21242   21243   21243       0
   21245   21246   21246       0   21248   21249   21249       0   21251   21252
   21252       0   21254   21255   21256   21257   21258   21259   21260   21261
   21262   21263   21264   21255   21256   21257   21258   21259   21260   21261
   21262   21263   21264   21265   21266   21267   21256   21257   21258   21259
   21260   21257   21261   21262   21263   21264   21265   21266   21268   21261
   21262   21263   21264   21265   21267   21268   21259   21260   21260       0
   21262   21263   21265   21266   21267   21268   21269   21270   21265   21266
   21264   21265   21266   21267   21268   21269   21270   21265   21267   21266
   21267   21268   21269   21270   21271   21272   21273   21274   21268   21268
   21269   21270   21271   21272   21273   21274   21275   21276   21277   21278
   21279   21280   21281   21282   21270   21271   21272   21273   21274   21275
   21276   21277   21278   21283   21284   21285   21271   21272   21273   21274
   21279   21280   21281   21282   21286   21287   21288   21272   21275   21276
   21277   21278   21283   21284   21289   21290   21291   21292   21275   21276
   21277   21278   21283   21285   21289   21274   21279   21280   21281   21282
   21286   21287   21293   21279   21280   21281   21282   21286   21288   21293
   21276   21277   21283   21284   21285   21289   21290   21291   21292   21294
   21295   21296   21297   21298   21299   21283   21284   21278   21283   21284
   21285   21289   21290   21294   21283   21285   21280   21281   21286   21287
   21288   21293   21300   21286   21287   21282   21286   21287   21288   21293
   21300   21286   21288   21284   21285   21289   21290   21291   21292   21294
   21295   21301   21302   21289   21290   21291   21292   21294   21295   21296
   21297   21298   21299   21303   21304   21305   21306   21307   21308   21309
   21310   21289   21287   21288   21293   21300   21311   21312   21313   21293
   21293   21290   21291   21292   21294   21295   21301   21302   21303   21304
   21314   21291   21292   21294   21295   21296   21297   21298   21299   21301
   21302   21303   21304   21315   21292   21295   21296   21297   21298   21299
   21305   21306   21307   21310   21316   21317   21318   21295   21296   21297
   21298   21299   21307   21308   21309   21310   21319   21320   21321   21300
   21311   21312   21313   21295   21301   21302   21303   21314   21315   21301
   21303   21304   21314   21315   21322   21323   21297   21299   21305   21306
   21307   21316   21317   21324   21325   21326   21298   21299   21305   21306
   21307   21310   21317   21318   21320   21321   21326   21299   21308   21309
   21310   21319   21320   21327   21328   21329   21307   21308   21309   21310
   21317   21318   21320   21321   21329   21311   21312   21313   21302   21303
   21304   21314   21315   21322   21323   21303   21314   21304   21314   21315
   21322   21323   21330   21331   21332   21333   21315   21306   21307   21316
   21317   21318   21324   21325   21326   21334   21335   21336   21337   21316
   21317   21310   21316   21317   21318   21326   21309   21319   21320   21310
   21319   21320   21321   21327   21328   21329   21338   21339   21340   21341
   21319   21320   21321   21329   21312   21313   21313       0   21315   21322
   21323   21330   21331   21332   21333   21342   21343   21344   21345   21346
   21347   21348   21349   21317   21324   21325   21326   21334   21335   21336
   21337   21350   21351   21352   21353   21354   21355   21356   21357   21318
   21324   21325   21326   21326   21320   21327   21328   21329   21338   21339
   21340   21341   21358   21359   21360   21361   21362   21363   21364   21365
   21321   21327   21328   21329   21329   21323   21330   21331   21332   21333
   21342   21343   21344   21345   21366   21367   21368   21330   21331   21332
   21333   21346   21347   21348   21349   21369   21370   21371   21325   21334
   21335   21336   21337   21350   21351   21352   21353   21372   21373   21374
   21334   21335   21336   21337   21354   21355   21356   21357   21375   21376
   21377       0   21328   21338   21339   21340   21341   21358   21359   21360
   21361   21378   21379   21380   21338   21339   21340   21341   21362   21363
   21364   21365   21381   21382   21383       0   21331   21342   21343   21344
   21345   21366   21367   21384   21342   21343   21344   21345   21366   21368
   21384   21333   21346   21347   21348   21349   21369   21370   21385   21346
   21347   21348   21349   21369   21371   21385   21335   21350   21351   21352
   21353   21372   21373   21386   21350   21351   21352   21353   21373   21374
   21386   21337   21354   21355   21356   21357   21375   21376   21387   21354
   21355   21356   21357   21375   21377   21387   21339   21358   21359   21360
   21361   21378   21379   21388   21358   21359   21360   21361   21378   21380
   21388   21341   21362   21363   21364   21365   21381   21382   21389   21362
   21363   21364   21365   21381   21383   21389   21343   21344   21366   21367
   21368   21384   21390   21366   21367   21345   21366   21367   21368   21384
   21390   21366   21368   21347   21369   21370   21349   21369   21370   21371
   21385   21391   21349   21369   21371   21369   21370   21371   21385   21391
   21351   21352   21372   21373   21374   21386   21392   21372   21373   21353
   21372   21373   21374   21386   21392   21373   21374   21355   21356   21375
   21376   21377   21387   21393   21375   21376   21357   21375   21376   21377
   21387   21393   21375   21377   21359   21360   21378   21379   21380   21388
   21394   21378   21379   21361   21378   21379   21380   21388   21394   21378
   21380   21363   21364   21381   21382   21383   21389   21395   21381   21382
   21365   21381   21382   21383   21389   21395   21381   21383   21367   21368
   21384   21390   21396   21397   21398   21384   21384   21370   21371   21385
   21391   21399   21400   21401   21385   21385   21373   21386   21374   21386
   21392   21402   21403   21404   21386   21376   21377   21387   21393   21405
   21406   21407   21387   21387   21379   21380   21388   21394   21408   21409
   21410   21388   21388   21382   21383   21389   21395   21411   21412   21413
   21389   21389   21390   21396   21397   21398   21391   21399   21400   21401
   21392   21402   21403   21404   21393   21405   21406   21407   21394   21408
   21409   21410   21395   21411   21412   21413   21396   21397   21398   21399
   21400   21401   21402   21403   21404   21405   21406   21407   21408   21409
   21410   21411   21412   21413   21397   21398   21398       0   21400   21401
   21401       0   21403   21404   21404       0   21406   21407   21407       0
   21409   21410   21410       0   21412   21413   21413       0   21415   21416
   21417   21418   21419   21420   21421   21422   21423   21424   21425   21416
   21417   21418   21419   21420   21421   21422   21423   21424   21425   21426
   21427   21428   21417   21418   21419   21420   21421   21418   21422   21423
   21424   21425   21426   21427   21429   21422   21423   21424   21425   21426
   21428   21429   21420   21421   21421       0   21423   21424   21426   21427
   21428   21429   21430   21431   21426   21427   21425   21426   21427   21428
   21429   21430   21431   21426   21428   21427   21428   21429   21430   21431
   21432   21433   21434   21435   21429   21429   21430   21431   21432   21433
   21434   21435   21436   21437   21438   21439   21440   21441   21442   21443
   21431   21432   21433   21434   21435   21436   21437   21438   21439   21444
   21445   21446   21432   21433   21434   21435   21440   21441   21442   21443
   21447   21448   21449   21433   21436   21437   21438   21439   21444   21445
   21450   21451   21452   21453   21436   21437   21438   21439   21444   21446
   21450   21435   21440   21441   21442   21443   21447   21448   21454   21440
   21441   21442   21443   21447   21449   21454   21437   21438   21444   21445
   21446   21450   21451   21452   21453   21455   21456   21457   21458   21459
   21460   21444   21445   21439   21444   21445   21446   21450   21451   21455
   21444   21446   21441   21442   21447   21448   21449   21454   21461   21447
   21448   21443   21447   21448   21449   21454   21461   21447   21449   21445
   21446   21450   21451   21452   21453   21455   21456   21462   21463   21450
   21451   21452   21453   21455   21456   21457   21458   21459   21460   21464
   21465   21466   21467   21468   21469   21470   21471   21450   21448   21449
   21454   21461   21472   21473   21474   21454   21454   21451   21452   21453
   21455   21456   21462   21463   21464   21465   21475   21452   21453   21455
   21456   21457   21458   21459   21460   21462   21463   21464   21465   21476
   21453   21456   21457   21458   21459   21460   21466   21467   21468   21471
   21477   21478   21479   21456   21457   21458   21459   21460   21468   21469
   21470   21471   21480   21481   21482   21461   21472   21473   21474   21456
   21462   21463   21464   21475   21476   21462   21464   21465   21475   21476
   21483   21484   21458   21460   21466   21467   21468   21477   21478   21485
   21486   21487   21459   21460   21466   21467   21468   21471   21478   21479
   21481   21482   21487   21460   21469   21470   21471   21480   21481   21488
   21489   21490   21468   21469   21470   21471   21478   21479   21481   21482
   21490   21472   21473   21474   21463   21464   21465   21475   21476   21483
   21484   21464   21475   21465   21475   21476   21483   21484   21491   21492
   21493   21494   21476   21467   21468   21477   21478   21479   21485   21486
   21487   21495   21496   21497   21498   21477   21478   21471   21477   21478
   21479   21487   21470   21480   21481   21471   21480   21481   21482   21488
   21489   21490   21499   21500   21501   21502   21480   21481   21482   21490
   21473   21474   21474       0   21476   21483   21484   21491   21492   21493
   21494   21503   21504   21505   21506   21507   21508   21509   21510   21478
   21485   21486   21487   21495   21496   21497   21498   21511   21512   21513
   21514   21515   21516   21517   21518   21479   21485   21486   21487   21487
   21481   21488   21489   21490   21499   21500   21501   21502   21519   21520
   21521   21522   21523   21524   21525   21526   21482   21488   21489   21490
   21490   21484   21491   21492   21493   21494   21503   21504   21505   21506
   21527   21528   21529   21491   21492   21493   21494   21507   21508   21509
   21510   21530   21531   21532   21486   21495   21496   21497   21498   21511
   21512   21513   21514   21533   21534   21535   21495   21496   21497   21498
   21515   21516   21517   21518   21536   21537   21538       0   21489   21499
   21500   21501   21502   21519   21520   21521   21522   21539   21540   21541
   21499   21500   21501   21502   21523   21524   21525   21526   21542   21543
   21544       0   21492   21503   21504   21505   21506   21527   21528   21545
   21503   21504   21505   21506   21527   21529   21545   21494   21507   21508
   21509   21510   21530   21531   21546   21507   21508   21509   21510   21530
   21532   21546   21496   21511   21512   21513   21514   21533   21534   21547
   21511   21512   21513   21514   21534   21535   21547   21498   21515   21516
   21517   21518   21536   21537   21548   21515   21516   21517   21518   21536
   21538   21548   21500   21519   21520   21521   21522   21539   21540   21549
   21519   21520   21521   21522   21539   21541   21549   21502   21523   21524
   21525   21526   21542   21543   21550   21523   21524   21525   21526   21542
   21544   21550   21504   21505   21527   21528   21529   21545   21551   21527
   21528   21506   21527   21528   21529   21545   21551   21527   21529   21508
   21530   21531   21510   21530   21531   21532   21546   21552   21510   21530
   21532   21530   21531   21532   21546   21552   21512   21513   21533   21534
   21535   21547   21553   21533   21534   21514   21533   21534   21535   21547
   21553   21534   21535   21516   21517   21536   21537   21538   21548   21554
   21536   21537   21518   21536   21537   21538   21548   21554   21536   21538
   21520   21521   21539   21540   21541   21549   21555   21539   21540   21522
   21539   21540   21541   21549   21555   21539   21541   21524   21525   21542
   21543   21544   21550   21556   21542   21543   21526   21542   21543   21544
   21550   21556   21542   21544   21528   21529   21545   21551   21557   21558
   21559   21545   21545   21531   21532   21546   21552   21560   21561   21562
   21546   21546   21534   21547   21535   21547   21553   21563   21564   21565
   21547   21537   21538   21548   21554   21566   21567   21568   21548   21548
   21540   21541   21549   21555   21569   21570   21571   21549   21549   21543
   21544   21550   21556   21572   21573   21574   21550   21550   21551   21557
   21558   21559   21552   21560   21561   21562   21553   21563   21564   21565
   21554   21566   21567   21568   21555   21569   21570   21571   21556   21572
   21573   21574   21557   21558   21559   21560   21561   21562   21563   21564
   21565   21566   21567   21568   21569   21570   21571   21572   21573   21574
   21558   21559   21559       0   21561   21562   21562       0   21564   21565
   21565       0   21567   21568   21568       0   21570   21571   21571       0
   21573   21574   21574       0   21576   21577   21578   21579   21580   21581
   21582   21583   21584   21585   21586   21577   21578   21579   21580   21581
   21582   21583   21584   21585   21586   21587   21588   21589   21578   21579
   21580   21581   21582   21579   21583   21584   21585   21586   21587   21588
   21590   21583   21584   21585   21586   21587   21589   21590   21581   21582
   21582       0   21584   21585   21587   21588   21589   21590   21591   21592
   21587   21588   21586   21587   21588   21589   21590   21591   21592   21587
   21589   21588   21589   21590   21591   21592   21593   21594   21595   21596
   21590   21590   21591   21592   21593   21594   21595   21596   21597   21598
   21599   21600   21601   21602   21603   21604   21592   21593   21594   21595
   21596   21597   21598   21599   21600   21605   21606   21607   21593   21594
   21595   21596   21601   21602   21603   21604   21608   21609   21610   21594
   21597   21598   21599   21600   21605   21606   21611   21612   21613   21614
   21597   21598   21599   21600   21605   21607   21611   21596   21601   21602
   21603   21604   21608   21609   21615   21601   21602   21603   21604   21608
   21610   21615   21598   21599   21605   21606   21607   21611   21612   21613
   21614   21616   21617   21618   21619   21620   21621   21605   21606   21600
   21605   21606   21607   21611   21612   21616   21605   21607   21602   21603
   21608   21609   21610   21615   21622   21608   21609   21604   21608   21609
   21610   21615   21622   21608   21610   21606   21607   21611   21612   21613
   21614   21616   21617   21623   21624   21611   21612   21613   21614   21616
   21617   21618   21619   21620   21621   21625   21626   21627   21628   21629
   21630   21631   21632   21611   21609   21610   21615   21622   21633   21634
   21635   21615   21615   21612   21613   21614   21616   21617   21623   21624
   21625   21626   21636   21613   21614   21616   21617   21618   21619   21620
   21621   21623   21624   21625   21626   21637   21614   21617   21618   21619
   21620   21621   21627   21628   21629   21632   21638   21639   21640   21617
   21618   21619   21620   21621   21629   21630   21631   21632   21641   21642
   21643   21622   21633   21634   21635   21617   21623   21624   21625   21636
   21637   21623   21625   21626   21636   21637   21644   21645   21619   21621
   21627   21628   21629   21638   21639   21646   21647   21648   21620   21621
   21627   21628   21629   21632   21639   21640   21642   21643   21648   21621
   21630   21631   21632   21641   21642   21649   21650   21651   21629   21630
   21631   21632   21639   21640   21642   21643   21651   21633   21634   21635
   21624   21625   21626   21636   21637   21644   21645   21625   21636   21626
   21636   21637   21644   21645   21652   21653   21654   21655   21637   21628
   21629   21638   21639   21640   21646   21647   21648   21656   21657   21658
   21659   21638   21639   21632   21638   21639   21640   21648   21631   21641
   21642   21632   21641   21642   21643   21649   21650   21651   21660   21661
   21662   21663   21641   21642   21643   21651   21634   21635   21635       0
   21637   21644   21645   21652   21653   21654   21655   21664   21665   21666
   21667   21668   21669   21670   21671   21639   21646   21647   21648   21656
   21657   21658   21659   21672   21673   21674   21675   21676   21677   21678
   21679   21640   21646   21647   21648   21648   21642   21649   21650   21651
   21660   21661   21662   21663   21680   21681   21682   21683   21684   21685
   21686   21687   21643   21649   21650   21651   21651   21645   21652   21653
   21654   21655   21664   21665   21666   21667   21688   21689   21690   21652
   21653   21654   21655   21668   21669   21670   21671   21691   21692   21693
   21647   21656   21657   21658   21659   21672   21673   21674   21675   21694
   21695   21696   21656   21657   21658   21659   21676   21677   21678   21679
   21697   21698   21699       0   21650   21660   21661   21662   21663   21680
   21681   21682   21683   21700   21701   21702   21660   21661   21662   21663
   21684   21685   21686   21687   21703   21704   21705       0   21653   21664
   21665   21666   21667   21688   21689   21706   21664   21665   21666   21667
   21688   21690   21706   21655   21668   21669   21670   21671   21691   21692
   21707   21668   21669   21670   21671   21691   21693   21707   21657   21672
   21673   21674   21675   21694   21695   21708   21672   21673   21674   21675
   21695   21696   21708   21659   21676   21677   21678   21679   21697   21698
   21709   21676   21677   21678   21679   21697   21699   21709   21661   21680
   21681   21682   21683   21700   21701   21710   21680   21681   21682   21683
   21700   21702   21710   21663   21684   21685   21686   21687   21703   21704
   21711   21684   21685   21686   21687   21703   21705   21711   21665   21666
   21688   21689   21690   21706   21712   21688   21689   21667   21688   21689
   21690   21706   21712   21688   21690   21669   21691   21692   21671   21691
   21692   21693   21707   21713   21671   21691   21693   21691   21692   21693
   21707   21713   21673   21674   21694   21695   21696   21708   21714   21694
   21695   21675   21694   21695   21696   21708   21714   21695   21696   21677
   21678   21697   21698   21699   21709   21715   21697   21698   21679   21697
   21698   21699   21709   21715   21697   21699   21681   21682   21700   21701
   21702   21710   21716   21700   21701   21683   21700   21701   21702   21710
   21716   21700   21702   21685   21686   21703   21704   21705   21711   21717
   21703   21704   21687   21703   21704   21705   21711   21717   21703   21705
   21689   21690   21706   21712   21718   21719   21720   21706   21706   21692
   21693   21707   21713   21721   21722   21723   21707   21707   21695   21708
   21696   21708   21714   21724   21725   21726   21708   21698   21699   21709
   21715   21727   21728   21729   21709   21709   21701   21702   21710   21716
   21730   21731   21732   21710   21710   21704   21705   21711   21717   21733
   21734   21735   21711   21711   21712   21718   21719   21720   21713   21721
   21722   21723   21714   21724   21725   21726   21715   21727   21728   21729
   21716   21730   21731   21732   21717   21733   21734   21735   21718   21719
   21720   21721   21722   21723   21724   21725   21726   21727   21728   21729
   21730   21731   21732   21733   21734   21735   21719   21720   21720       0
   21722   21723   21723       0   21725   21726   21726       0   21728   21729
   21729       0   21731   21732   21732       0   21734   21735   21735       0
   21737   21738   21739   21740   21741   21742   21743   21744   21745   21746
   21747   21738   21739   21740   21741   21742   21743   21744   21745   21746
   21747   21748   21749   21750   21739   21740   21741   21742   21743   21740
   21744   21745   21746   21747   21748   21749   21751   21744   21745   21746
   21747   21748   21750   21751   21742   21743   21743       0   21745   21746
   21748   21749   21750   21751   21752   21753   21748   21749   21747   21748
   21749   21750   21751   21752   21753   21748   21750   21749   21750   21751
   21752   21753   21754   21755   21756   21757   21751   21751   21752   21753
   21754   21755   21756   21757   21758   21759   21760   21761   21762   21763
   21764   21765   21753   21754   21755   21756   21757   21758   21759   21760
   21761   21766   21767   21768   21754   21755   21756   21757   21762   21763
   21764   21765   21769   21770   21771   21755   21758   21759   21760   21761
   21766   21767   21772   21773   21774   21775   21758   21759   21760   21761
   21766   21768   21772   21757   21762   21763   21764   21765   21769   21770
   21776   21762   21763   21764   21765   21769   21771   21776   21759   21760
   21766   21767   21768   21772   21773   21774   21775   21777   21778   21779
   21780   21781   21782   21766   21767   21761   21766   21767   21768   21772
   21773   21777   21766   21768   21763   21764   21769   21770   21771   21776
   21783   21769   21770   21765   21769   21770   21771   21776   21783   21769
   21771   21767   21768   21772   21773   21774   21775   21777   21778   21784
   21785   21772   21773   21774   21775   21777   21778   21779   21780   21781
   21782   21786   21787   21788   21789   21790   21791   21792   21793   21772
   21770   21771   21776   21783   21794   21795   21796   21776   21776   21773
   21774   21775   21777   21778   21784   21785   21786   21787   21797   21774
   21775   21777   21778   21779   21780   21781   21782   21784   21785   21786
   21787   21798   21775   21778   21779   21780   21781   21782   21788   21789
   21790   21793   21799   21800   21801   21778   21779   21780   21781   21782
   21790   21791   21792   21793   21802   21803   21804   21783   21794   21795
   21796   21778   21784   21785   21786   21797   21798   21784   21786   21787
   21797   21798   21805   21806   21780   21782   21788   21789   21790   21799
   21800   21807   21808   21809   21781   21782   21788   21789   21790   21793
   21800   21801   21803   21804   21809   21782   21791   21792   21793   21802
   21803   21810   21811   21812   21790   21791   21792   21793   21800   21801
   21803   21804   21812   21794   21795   21796   21785   21786   21787   21797
   21798   21805   21806   21786   21797   21787   21797   21798   21805   21806
   21813   21814   21815   21816   21798   21789   21790   21799   21800   21801
   21807   21808   21809   21817   21818   21819   21820   21799   21800   21793
   21799   21800   21801   21809   21792   21802   21803   21793   21802   21803
   21804   21810   21811   21812   21821   21822   21823   21824   21802   21803
   21804   21812   21795   21796   21796       0   21798   21805   21806   21813
   21814   21815   21816   21825   21826   21827   21828   21829   21830   21831
   21832   21800   21807   21808   21809   21817   21818   21819   21820   21833
   21834   21835   21836   21837   21838   21839   21840   21801   21807   21808
   21809   21809   21803   21810   21811   21812   21821   21822   21823   21824
   21841   21842   21843   21844   21845   21846   21847   21848   21804   21810
   21811   21812   21812   21806   21813   21814   21815   21816   21825   21826
   21827   21828   21849   21850   21851   21813   21814   21815   21816   21829
   21830   21831   21832   21852   21853   21854   21808   21817   21818   21819
   21820   21833   21834   21835   21836   21855   21856   21857   21817   21818
   21819   21820   21837   21838   21839   21840   21858   21859   21860       0
   21811   21821   21822   21823   21824   21841   21842   21843   21844   21861
   21862   21863   21821   21822   21823   21824   21845   21846   21847   21848
   21864   21865   21866       0   21814   21825   21826   21827   21828   21849
   21850   21867   21825   21826   21827   21828   21849   21851   21867   21816
   21829   21830   21831   21832   21852   21853   21868   21829   21830   21831
   21832   21852   21854   21868   21818   21833   21834   21835   21836   21855
   21856   21869   21833   21834   21835   21836   21856   21857   21869   21820
   21837   21838   21839   21840   21858   21859   21870   21837   21838   21839
   21840   21858   21860   21870   21822   21841   21842   21843   21844   21861
   21862   21871   21841   21842   21843   21844   21861   21863   21871   21824
   21845   21846   21847   21848   21864   21865   21872   21845   21846   21847
   21848   21864   21866   21872   21826   21827   21849   21850   21851   21867
   21873   21849   21850   21828   21849   21850   21851   21867   21873   21849
   21851   21830   21852   21853   21832   21852   21853   21854   21868   21874
   21832   21852   21854   21852   21853   21854   21868   21874   21834   21835
   21855   21856   21857   21869   21875   21855   21856   21836   21855   21856
   21857   21869   21875   21856   21857   21838   21839   21858   21859   21860
   21870   21876   21858   21859   21840   21858   21859   21860   21870   21876
   21858   21860   21842   21843   21861   21862   21863   21871   21877   21861
   21862   21844   21861   21862   21863   21871   21877   21861   21863   21846
   21847   21864   21865   21866   21872   21878   21864   21865   21848   21864
   21865   21866   21872   21878   21864   21866   21850   21851   21867   21873
   21879   21880   21881   21867   21867   21853   21854   21868   21874   21882
   21883   21884   21868   21868   21856   21869   21857   21869   21875   21885
   21886   21887   21869   21859   21860   21870   21876   21888   21889   21890
   21870   21870   21862   21863   21871   21877   21891   21892   21893   21871
   21871   21865   21866   21872   21878   21894   21895   21896   21872   21872
   21873   21879   21880   21881   21874   21882   21883   21884   21875   21885
   21886   21887   21876   21888   21889   21890   21877   21891   21892   21893
   21878   21894   21895   21896   21879   21880   21881   21882   21883   21884
   21885   21886   21887   21888   21889   21890   21891   21892   21893   21894
   21895   21896   21880   21881   21881       0   21883   21884   21884       0
   21886   21887   21887       0   21889   21890   21890       0   21892   21893
   21893       0   21895   21896   21896       0   21898   21899   21900   21901
   21902   21903   21904   21905   21906   21907   21908   21899   21900   21901
   21902   21903   21904   21905   21906   21907   21908   21909   21910   21911
   21900   21901   21902   21903   21904   21901   21905   21906   21907   21908
   21909   21910   21912   21905   21906   21907   21908   21909   21911   21912
   21903   21904   21904       0   21906   21907   21909   21910   21911   21912
   21913   21914   21909   21910   21908   21909   21910   21911   21912   21913
   21914   21909   21911   21910   21911   21912   21913   21914   21915   21916
   21917   21918   21912   21912   21913   21914   21915   21916   21917   21918
   21919   21920   21921   21922   21923   21924   21925   21926   21914   21915
   21916   21917   21918   21919   21920   21921   21922   21927   21928   21929
   21915   21916   21917   21918   21923   21924   21925   21926   21930   21931
   21932   21916   21919   21920   21921   21922   21927   21928   21933   21934
   21935   21936   21919   21920   21921   21922   21927   21929   21933   21918
   21923   21924   21925   21926   21930   21931   21937   21923   21924   21925
   21926   21930   21932   21937   21920   21921   21927   21928   21929   21933
   21934   21935   21936   21938   21939   21940   21941   21942   21943   21927
   21928   21922   21927   21928   21929   21933   21934   21938   21927   21929
   21924   21925   21930   21931   21932   21937   21944   21930   21931   21926
   21930   21931   21932   21937   21944   21930   21932   21928   21929   21933
   21934   21935   21936   21938   21939   21945   21946   21933   21934   21935
   21936   21938   21939   21940   21941   21942   21943   21947   21948   21949
   21950   21951   21952   21953   21954   21933   21931   21932   21937   21944
   21955   21956   21957   21937   21937   21934   21935   21936   21938   21939
   21945   21946   21947   21948   21958   21935   21936   21938   21939   21940
   21941   21942   21943   21945   21946   21947   21948   21959   21936   21939
   21940   21941   21942   21943   21949   21950   21951   21954   21960   21961
   21962   21939   21940   21941   21942   21943   21951   21952   21953   21954
   21963   21964   21965   21944   21955   21956   21957   21939   21945   21946
   21947   21958   21959   21945   21947   21948   21958   21959   21966   21967
   21941   21943   21949   21950   21951   21960   21961   21968   21969   21970
   21942   21943   21949   21950   21951   21954   21961   21962   21964   21965
   21970   21943   21952   21953   21954   21963   21964   21971   21972   21973
   21951   21952   21953   21954   21961   21962   21964   21965   21973   21955
   21956   21957   21946   21947   21948   21958   21959   21966   21967   21947
   21958   21948   21958   21959   21966   21967   21974   21975   21976   21977
   21959   21950   21951   21960   21961   21962   21968   21969   21970   21978
   21979   21980   21981   21960   21961   21954   21960   21961   21962   21970
   21953   21963   21964   21954   21963   21964   21965   21971   21972   21973
   21982   21983   21984   21985   21963   21964   21965   21973   21956   21957
   21957       0   21959   21966   21967   21974   21975   21976   21977   21986
   21987   21988   21989   21990   21991   21992   21993   21961   21968   21969
   21970   21978   21979   21980   21981   21994   21995   21996   21997   21998
   21999   22000   22001   21962   21968   21969   21970   21970   21964   21971
   21972   21973   21982   21983   21984   21985   22002   22003   22004   22005
   22006   22007   22008   22009   21965   21971   21972   21973   21973   21967
   21974   21975   21976   21977   21986   21987   21988   21989   22010   22011
   22012   21974   21975   21976   21977   21990   21991   21992   21993   22013
   22014   22015   21969   21978   21979   21980   21981   21994   21995   21996
   21997   22016   22017   22018   21978   21979   21980   21981   21998   21999
   22000   22001   22019   22020   22021       0   21972   21982   21983   21984
   21985   22002   22003   22004   22005   22022   22023   22024   21982   21983
   21984   21985   22006   22007   22008   22009   22025   22026   22027       0
   21975   21986   21987   21988   21989   22010   22011   22028   21986   21987
   21988   21989   22010   22012   22028   21977   21990   21991   21992   21993
   22013   22014   22029   21990   21991   21992   21993   22013   22015   22029
   21979   21994   21995   21996   21997   22016   22017   22030   21994   21995
   21996   21997   22017   22018   22030   21981   21998   21999   22000   22001
   22019   22020   22031   21998   21999   22000   22001   22019   22021   22031
   21983   22002   22003   22004   22005   22022   22023   22032   22002   22003
   22004   22005   22022   22024   22032   21985   22006   22007   22008   22009
   22025   22026   22033   22006   22007   22008   22009   22025   22027   22033
   21987   21988   22010   22011   22012   22028   22034   22010   22011   21989
   22010   22011   22012   22028   22034   22010   22012   21991   22013   22014
   21993   22013   22014   22015   22029   22035   21993   22013   22015   22013
   22014   22015   22029   22035   21995   21996   22016   22017   22018   22030
   22036   22016   22017   21997   22016   22017   22018   22030   22036   22017
   22018   21999   22000   22019   22020   22021   22031   22037   22019   22020
   22001   22019   22020   22021   22031   22037   22019   22021   22003   22004
   22022   22023   22024   22032   22038   22022   22023   22005   22022   22023
   22024   22032   22038   22022   22024   22007   22008   22025   22026   22027
   22033   22039   22025   22026   22009   22025   22026   22027   22033   22039
   22025   22027   22011   22012   22028   22034   22040   22041   22042   22028
   22028   22014   22015   22029   22035   22043   22044   22045   22029   22029
   22017   22030   22018   22030   22036   22046   22047   22048   22030   22020
   22021   22031   22037   22049   22050   22051   22031   22031   22023   22024
   22032   22038   22052   22053   22054   22032   22032   22026   22027   22033
   22039   22055   22056   22057   22033   22033   22034   22040   22041   22042
   22035   22043   22044   22045   22036   22046   22047   22048   22037   22049
   22050   22051   22038   22052   22053   22054   22039   22055   22056   22057
   22040   22041   22042   22043   22044   22045   22046   22047   22048   22049
   22050   22051   22052   22053   22054   22055   22056   22057   22041   22042
   22042       0   22044   22045   22045       0   22047   22048   22048       0
   22050   22051   22051       0   22053   22054   22054       0   22056   22057
   22057       0   22059   22060   22061   22062   22063   22064   22065   22066
   22067   22068   22069   22060   22061   22062   22063   22064   22065   22066
   22067   22068   22069   22070   22071   22072   22061   22062   22063   22064
   22065   22062   22066   22067   22068   22069   22070   22071   22073   22066
   22067   22068   22069   22070   22072   22073   22064   22065   22065       0
   22067   22068   22070   22071   22072   22073   22074   22075   22070   22071
   22069   22070   22071   22072   22073   22074   22075   22070   22072   22071
   22072   22073   22074   22075   22076   22077   22078   22079   22073   22073
   22074   22075   22076   22077   22078   22079   22080   22081   22082   22083
   22084   22085   22086   22087   22075   22076   22077   22078   22079   22080
   22081   22082   22083   22088   22089   22090   22076   22077   22078   22079
   22084   22085   22086   22087   22091   22092   22093   22077   22080   22081
   22082   22083   22088   22089   22094   22095   22096   22097   22080   22081
   22082   22083   22088   22090   22094   22079   22084   22085   22086   22087
   22091   22092   22098   22084   22085   22086   22087   22091   22093   22098
   22081   22082   22088   22089   22090   22094   22095   22096   22097   22099
   22100   22101   22102   22103   22104   22088   22089   22083   22088   22089
   22090   22094   22095   22099   22088   22090   22085   22086   22091   22092
   22093   22098   22105   22091   22092   22087   22091   22092   22093   22098
   22105   22091   22093   22089   22090   22094   22095   22096   22097   22099
   22100   22106   22107   22094   22095   22096   22097   22099   22100   22101
   22102   22103   22104   22108   22109   22110   22111   22112   22113   22114
   22115   22094   22092   22093   22098   22105   22116   22117   22118   22098
   22098   22095   22096   22097   22099   22100   22106   22107   22108   22109
   22119   22096   22097   22099   22100   22101   22102   22103   22104   22106
   22107   22108   22109   22120   22097   22100   22101   22102   22103   22104
   22110   22111   22112   22115   22121   22122   22123   22100   22101   22102
   22103   22104   22112   22113   22114   22115   22124   22125   22126   22105
   22116   22117   22118   22100   22106   22107   22108   22119   22120   22106
   22108   22109   22119   22120   22127   22128   22102   22104   22110   22111
   22112   22121   22122   22129   22130   22131   22103   22104   22110   22111
   22112   22115   22122   22123   22125   22126   22131   22104   22113   22114
   22115   22124   22125   22132   22133   22134   22112   22113   22114   22115
   22122   22123   22125   22126   22134   22116   22117   22118   22107   22108
   22109   22119   22120   22127   22128   22108   22119   22109   22119   22120
   22127   22128   22135   22136   22137   22138   22120   22111   22112   22121
   22122   22123   22129   22130   22131   22139   22140   22141   22142   22121
   22122   22115   22121   22122   22123   22131   22114   22124   22125   22115
   22124   22125   22126   22132   22133   22134   22143   22144   22145   22146
   22124   22125   22126   22134   22117   22118   22118       0   22120   22127
   22128   22135   22136   22137   22138   22147   22148   22149   22150   22151
   22152   22153   22154   22122   22129   22130   22131   22139   22140   22141
   22142   22155   22156   22157   22158   22159   22160   22161   22162   22123
   22129   22130   22131   22131   22125   22132   22133   22134   22143   22144
   22145   22146   22163   22164   22165   22166   22167   22168   22169   22170
   22126   22132   22133   22134   22134   22128   22135   22136   22137   22138
   22147   22148   22149   22150   22171   22172   22173   22135   22136   22137
   22138   22151   22152   22153   22154   22174   22175   22176   22130   22139
   22140   22141   22142   22155   22156   22157   22158   22177   22178   22179
   22139   22140   22141   22142   22159   22160   22161   22162   22180   22181
   22182       0   22133   22143   22144   22145   22146   22163   22164   22165
   22166   22183   22184   22185   22143   22144   22145   22146   22167   22168
   22169   22170   22186   22187   22188       0   22136   22147   22148   22149
   22150   22171   22172   22189   22147   22148   22149   22150   22171   22173
   22189   22138   22151   22152   22153   22154   22174   22175   22190   22151
   22152   22153   22154   22174   22176   22190   22140   22155   22156   22157
   22158   22177   22178   22191   22155   22156   22157   22158   22178   22179
   22191   22142   22159   22160   22161   22162   22180   22181   22192   22159
   22160   22161   22162   22180   22182   22192   22144   22163   22164   22165
   22166   22183   22184   22193   22163   22164   22165   22166   22183   22185
   22193   22146   22167   22168   22169   22170   22186   22187   22194   22167
   22168   22169   22170   22186   22188   22194   22148   22149   22171   22172
   22173   22189   22195   22171   22172   22150   22171   22172   22173   22189
   22195   22171   22173   22152   22174   22175   22154   22174   22175   22176
   22190   22196   22154   22174   22176   22174   22175   22176   22190   22196
   22156   22157   22177   22178   22179   22191   22197   22177   22178   22158
   22177   22178   22179   22191   22197   22178   22179   22160   22161   22180
   22181   22182   22192   22198   22180   22181   22162   22180   22181   22182
   22192   22198   22180   22182   22164   22165   22183   22184   22185   22193
   22199   22183   22184   22166   22183   22184   22185   22193   22199   22183
   22185   22168   22169   22186   22187   22188   22194   22200   22186   22187
   22170   22186   22187   22188   22194   22200   22186   22188   22172   22173
   22189   22195   22201   22202   22203   22189   22189   22175   22176   22190
   22196   22204   22205   22206   22190   22190   22178   22191   22179   22191
   22197   22207   22208   22209   22191   22181   22182   22192   22198   22210
   22211   22212   22192   22192   22184   22185   22193   22199   22213   22214
   22215   22193   22193   22187   22188   22194   22200   22216   22217   22218
   22194   22194   22195   22201   22202   22203   22196   22204   22205   22206
   22197   22207   22208   22209   22198   22210   22211   22212   22199   22213
   22214   22215   22200   22216   22217   22218   22201   22202   22203   22204
   22205   22206   22207   22208   22209   22210   22211   22212   22213   22214
   22215   22216   22217   22218   22202   22203   22203       0   22205   22206
   22206       0   22208   22209   22209       0   22211   22212   22212       0
   22214   22215   22215       0   22217   22218   22218       0   22220   22221
   22222   22223   22224   22225   22226   22227   22228   22229   22230   22221
   22222   22223   22224   22225   22226   22227   22228   22229   22230   22231
   22232   22233   22222   22223   22224   22225   22226   22223   22227   22228
   22229   22230   22231   22232   22234   22227   22228   22229   22230   22231
   22233   22234   22225   22226   22226       0   22228   22229   22231   22232
   22233   22234   22235   22236   22231   22232   22230   22231   22232   22233
   22234   22235   22236   22231   22233   22232   22233   22234   22235   22236
   22237   22238   22239   22240   22234   22234   22235   22236   22237   22238
   22239   22240   22241   22242   22243   22244   22245   22246   22247   22248
   22236   22237   22238   22239   22240   22241   22242   22243   22244   22249
   22250   22251   22237   22238   22239   22240   22245   22246   22247   22248
   22252   22253   22254   22238   22241   22242   22243   22244   22249   22250
   22255   22256   22257   22258   22241   22242   22243   22244   22249   22251
   22255   22240   22245   22246   22247   22248   22252   22253   22259   22245
   22246   22247   22248   22252   22254   22259   22242   22243   22249   22250
   22251   22255   22256   22257   22258   22260   22261   22262   22263   22264
   22265   22249   22250   22244   22249   22250   22251   22255   22256   22260
   22249   22251   22246   22247   22252   22253   22254   22259   22266   22252
   22253   22248   22252   22253   22254   22259   22266   22252   22254   22250
   22251   22255   22256   22257   22258   22260   22261   22267   22268   22255
   22256   22257   22258   22260   22261   22262   22263   22264   22265   22269
   22270   22271   22272   22273   22274   22275   22276   22255   22253   22254
   22259   22266   22277   22278   22279   22259   22259   22256   22257   22258
   22260   22261   22267   22268   22269   22270   22280   22257   22258   22260
   22261   22262   22263   22264   22265   22267   22268   22269   22270   22281
   22258   22261   22262   22263   22264   22265   22271   22272   22273   22276
   22282   22283   22284   22261   22262   22263   22264   22265   22273   22274
   22275   22276   22285   22286   22287   22266   22277   22278   22279   22261
   22267   22268   22269   22280   22281   22267   22269   22270   22280   22281
   22288   22289   22263   22265   22271   22272   22273   22282   22283   22290
   22291   22292   22264   22265   22271   22272   22273   22276   22283   22284
   22286   22287   22292   22265   22274   22275   22276   22285   22286   22293
   22294   22295   22273   22274   22275   22276   22283   22284   22286   22287
   22295   22277   22278   22279   22268   22269   22270   22280   22281   22288
   22289   22269   22280   22270   22280   22281   22288   22289   22296   22297
   22298   22299   22281   22272   22273   22282   22283   22284   22290   22291
   22292   22300   22301   22302   22303   22282   22283   22276   22282   22283
   22284   22292   22275   22285   22286   22276   22285   22286   22287   22293
   22294   22295   22304   22305   22306   22307   22285   22286   22287   22295
   22278   22279   22279       0   22281   22288   22289   22296   22297   22298
   22299   22308   22309   22310   22311   22312   22313   22314   22315   22283
   22290   22291   22292   22300   22301   22302   22303   22316   22317   22318
   22319   22320   22321   22322   22323   22284   22290   22291   22292   22292
   22286   22293   22294   22295   22304   22305   22306   22307   22324   22325
   22326   22327   22328   22329   22330   22331   22287   22293   22294   22295
   22295   22289   22296   22297   22298   22299   22308   22309   22310   22311
   22332   22333   22334   22296   22297   22298   22299   22312   22313   22314
   22315   22335   22336   22337   22291   22300   22301   22302   22303   22316
   22317   22318   22319   22338   22339   22340   22300   22301   22302   22303
   22320   22321   22322   22323   22341   22342   22343       0   22294   22304
   22305   22306   22307   22324   22325   22326   22327   22344   22345   22346
   22304   22305   22306   22307   22328   22329   22330   22331   22347   22348
   22349       0   22297   22308   22309   22310   22311   22332   22333   22350
   22308   22309   22310   22311   22332   22334   22350   22299   22312   22313
   22314   22315   22335   22336   22351   22312   22313   22314   22315   22335
   22337   22351   22301   22316   22317   22318   22319   22338   22339   22352
   22316   22317   22318   22319   22339   22340   22352   22303   22320   22321
   22322   22323   22341   22342   22353   22320   22321   22322   22323   22341
   22343   22353   22305   22324   22325   22326   22327   22344   22345   22354
   22324   22325   22326   22327   22344   22346   22354   22307   22328   22329
   22330   22331   22347   22348   22355   22328   22329   22330   22331   22347
   22349   22355   22309   22310   22332   22333   22334   22350   22356   22332
   22333   22311   22332   22333   22334   22350   22356   22332   22334   22313
   22335   22336   22315   22335   22336   22337   22351   22357   22315   22335
   22337   22335   22336   22337   22351   22357   22317   22318   22338   22339
   22340   22352   22358   22338   22339   22319   22338   22339   22340   22352
   22358   22339   22340   22321   22322   22341   22342   22343   22353   22359
   22341   22342   22323   22341   22342   22343   22353   22359   22341   22343
   22325   22326   22344   22345   22346   22354   22360   22344   22345   22327
   22344   22345   22346   22354   22360   22344   22346   22329   22330   22347
   22348   22349   22355   22361   22347   22348   22331   22347   22348   22349
   22355   22361   22347   22349   22333   22334   22350   22356   22362   22363
   22364   22350   22350   22336   22337   22351   22357   22365   22366   22367
   22351   22351   22339   22352   22340   22352   22358   22368   22369   22370
   22352   22342   22343   22353   22359   22371   22372   22373   22353   22353
   22345   22346   22354   22360   22374   22375   22376   22354   22354   22348
   22349   22355   22361   22377   22378   22379   22355   22355   22356   22362
   22363   22364   22357   22365   22366   22367   22358   22368   22369   22370
   22359   22371   22372   22373   22360   22374   22375   22376   22361   22377
   22378   22379   22362   22363   22364   22365   22366   22367   22368   22369
   22370   22371   22372   22373   22374   22375   22376   22377   22378   22379
   22363   22364   22364       0   22366   22367   22367       0   22369   22370
   22370       0   22372   22373   22373       0   22375   22376   22376       0
   22378   22379   22379       0   22381   22382   22383   22384   22385   22386
   22387   22388   22389   22390   22391   22382   22383   22384   22385   22386
   22387   22388   22389   22390   22391   22392   22393   22394   22383   22384
   22385   22386   22387   22384   22388   22389   22390   22391   22392   22393
   22395   22388   22389   22390   22391   22392   22394   22395   22386   22387
   22387       0   22389   22390   22392   22393   22394   22395   22396   22397
   22392   22393   22391   22392   22393   22394   22395   22396   22397   22392
   22394   22393   22394   22395   22396   22397   22398   22399   22400   22401
   22395   22395   22396   22397   22398   22399   22400   22401   22402   22403
   22404   22405   22406   22407   22408   22409   22397   22398   22399   22400
   22401   22402   22403   22404   22405   22410   22411   22412   22398   22399
   22400   22401   22406   22407   22408   22409   22413   22414   22415   22399
   22402   22403   22404   22405   22410   22411   22416   22417   22418   22419
   22402   22403   22404   22405   22410   22412   22416   22401   22406   22407
   22408   22409   22413   22414   22420   22406   22407   22408   22409   22413
   22415   22420   22403   22404   22410   22411   22412   22416   22417   22418
   22419   22421   22422   22423   22424   22425   22426   22410   22411   22405
   22410   22411   22412   22416   22417   22421   22410   22412   22407   22408
   22413   22414   22415   22420   22427   22413   22414   22409   22413   22414
   22415   22420   22427   22413   22415   22411   22412   22416   22417   22418
   22419   22421   22422   22428   22429   22416   22417   22418   22419   22421
   22422   22423   22424   22425   22426   22430   22431   22432   22433   22434
   22435   22436   22437   22416   22414   22415   22420   22427   22438   22439
   22440   22420   22420   22417   22418   22419   22421   22422   22428   22429
   22430   22431   22441   22418   22419   22421   22422   22423   22424   22425
   22426   22428   22429   22430   22431   22442   22419   22422   22423   22424
   22425   22426   22432   22433   22434   22437   22443   22444   22445   22422
   22423   22424   22425   22426   22434   22435   22436   22437   22446   22447
   22448   22427   22438   22439   22440   22422   22428   22429   22430   22441
   22442   22428   22430   22431   22441   22442   22449   22450   22424   22426
   22432   22433   22434   22443   22444   22451   22452   22453   22425   22426
   22432   22433   22434   22437   22444   22445   22447   22448   22453   22426
   22435   22436   22437   22446   22447   22454   22455   22456   22434   22435
   22436   22437   22444   22445   22447   22448   22456   22438   22439   22440
   22429   22430   22431   22441   22442   22449   22450   22430   22441   22431
   22441   22442   22449   22450   22457   22458   22459   22460   22442   22433
   22434   22443   22444   22445   22451   22452   22453   22461   22462   22463
   22464   22443   22444   22437   22443   22444   22445   22453   22436   22446
   22447   22437   22446   22447   22448   22454   22455   22456   22465   22466
   22467   22468   22446   22447   22448   22456   22439   22440   22440       0
   22442   22449   22450   22457   22458   22459   22460   22469   22470   22471
   22472   22473   22474   22475   22476   22444   22451   22452   22453   22461
   22462   22463   22464   22477   22478   22479   22480   22481   22482   22483
   22484   22445   22451   22452   22453   22453   22447   22454   22455   22456
   22465   22466   22467   22468   22485   22486   22487   22488   22489   22490
   22491   22492   22448   22454   22455   22456   22456   22450   22457   22458
   22459   22460   22469   22470   22471   22472   22493   22494   22495   22457
   22458   22459   22460   22473   22474   22475   22476   22496   22497   22498
   22452   22461   22462   22463   22464   22477   22478   22479   22480   22499
   22500   22501   22461   22462   22463   22464   22481   22482   22483   22484
   22502   22503   22504       0   22455   22465   22466   22467   22468   22485
   22486   22487   22488   22505   22506   22507   22465   22466   22467   22468
   22489   22490   22491   22492   22508   22509   22510       0   22458   22469
   22470   22471   22472   22493   22494   22511   22469   22470   22471   22472
   22493   22495   22511   22460   22473   22474   22475   22476   22496   22497
   22512   22473   22474   22475   22476   22496   22498   22512   22462   22477
   22478   22479   22480   22499   22500   22513   22477   22478   22479   22480
   22500   22501   22513   22464   22481   22482   22483   22484   22502   22503
   22514   22481   22482   22483   22484   22502   22504   22514   22466   22485
   22486   22487   22488   22505   22506   22515   22485   22486   22487   22488
   22505   22507   22515   22468   22489   22490   22491   22492   22508   22509
   22516   22489   22490   22491   22492   22508   22510   22516   22470   22471
   22493   22494   22495   22511   22517   22493   22494   22472   22493   22494
   22495   22511   22517   22493   22495   22474   22496   22497   22476   22496
   22497   22498   22512   22518   22476   22496   22498   22496   22497   22498
   22512   22518   22478   22479   22499   22500   22501   22513   22519   22499
   22500   22480   22499   22500   22501   22513   22519   22500   22501   22482
   22483   22502   22503   22504   22514   22520   22502   22503   22484   22502
   22503   22504   22514   22520   22502   22504   22486   22487   22505   22506
   22507   22515   22521   22505   22506   22488   22505   22506   22507   22515
   22521   22505   22507   22490   22491   22508   22509   22510   22516   22522
   22508   22509   22492   22508   22509   22510   22516   22522   22508   22510
   22494   22495   22511   22517   22523   22524   22525   22511   22511   22497
   22498   22512   22518   22526   22527   22528   22512   22512   22500   22513
   22501   22513   22519   22529   22530   22531   22513   22503   22504   22514
   22520   22532   22533   22534   22514   22514   22506   22507   22515   22521
   22535   22536   22537   22515   22515   22509   22510   22516   22522   22538
   22539   22540   22516   22516   22517   22523   22524   22525   22518   22526
   22527   22528   22519   22529   22530   22531   22520   22532   22533   22534
   22521   22535   22536   22537   22522   22538   22539   22540   22523   22524
   22525   22526   22527   22528   22529   22530   22531   22532   22533   22534
   22535   22536   22537   22538   22539   22540   22524   22525   22525       0
   22527   22528   22528       0   22530   22531   22531       0   22533   22534
   22534       0   22536   22537   22537       0   22539   22540   22540       0
   22542   22543   22544   22545   22546   22547   22548   22549   22550   22551
   22552   22543   22544   22545   22546   22547   22548   22549   22550   22551
   22552   22553   22554   22555   22544   22545   22546   22547   22548   22545
   22549   22550   22551   22552   22553   22554   22556   22549   22550   22551
   22552   22553   22555   22556   22547   22548   22548       0   22550   22551
   22553   22554   22555   22556   22557   22558   22553   22554   22552   22553
   22554   22555   22556   22557   22558   22553   22555   22554   22555   22556
   22557   22558   22559   22560   22561   22562   22556   22556   22557   22558
   22559   22560   22561   22562   22563   22564   22565   22566   22567   22568
   22569   22570   22558   22559   22560   22561   22562   22563   22564   22565
   22566   22571   22572   22573   22559   22560   22561   22562   22567   22568
   22569   22570   22574   22575   22576   22560   22563   22564   22565   22566
   22571   22572   22577   22578   22579   22580   22563   22564   22565   22566
   22571   22573   22577   22562   22567   22568   22569   22570   22574   22575
   22581   22567   22568   22569   22570   22574   22576   22581   22564   22565
   22571   22572   22573   22577   22578   22579   22580   22582   22583   22584
   22585   22586   22587   22571   22572   22566   22571   22572   22573   22577
   22578   22582   22571   22573   22568   22569   22574   22575   22576   22581
   22588   22574   22575   22570   22574   22575   22576   22581   22588   22574
   22576   22572   22573   22577   22578   22579   22580   22582   22583   22589
   22590   22577   22578   22579   22580   22582   22583   22584   22585   22586
   22587   22591   22592   22593   22594   22595   22596   22597   22598   22577
   22575   22576   22581   22588   22599   22600   22601   22581   22581   22578
   22579   22580   22582   22583   22589   22590   22591   22592   22602   22579
   22580   22582   22583   22584   22585   22586   22587   22589   22590   22591
   22592   22603   22580   22583   22584   22585   22586   22587   22593   22594
   22595   22598   22604   22605   22606   22583   22584   22585   22586   22587
   22595   22596   22597   22598   22607   22608   22609   22588   22599   22600
   22601   22583   22589   22590   22591   22602   22603   22589   22591   22592
   22602   22603   22610   22611   22585   22587   22593   22594   22595   22604
   22605   22612   22613   22614   22586   22587   22593   22594   22595   22598
   22605   22606   22608   22609   22614   22587   22596   22597   22598   22607
   22608   22615   22616   22617   22595   22596   22597   22598   22605   22606
   22608   22609   22617   22599   22600   22601   22590   22591   22592   22602
   22603   22610   22611   22591   22602   22592   22602   22603   22610   22611
   22618   22619   22620   22621   22603   22594   22595   22604   22605   22606
   22612   22613   22614   22622   22623   22624   22625   22604   22605   22598
   22604   22605   22606   22614   22597   22607   22608   22598   22607   22608
   22609   22615   22616   22617   22626   22627   22628   22629   22607   22608
   22609   22617   22600   22601   22601       0   22603   22610   22611   22618
   22619   22620   22621   22630   22631   22632   22633   22634   22635   22636
   22637   22605   22612   22613   22614   22622   22623   22624   22625   22638
   22639   22640   22641   22642   22643   22644   22645   22606   22612   22613
   22614   22614   22608   22615   22616   22617   22626   22627   22628   22629
   22646   22647   22648   22649   22650   22651   22652   22653   22609   22615
   22616   22617   22617   22611   22618   22619   22620   22621   22630   22631
   22632   22633   22654   22655   22656   22618   22619   22620   22621   22634
   22635   22636   22637   22657   22658   22659   22613   22622   22623   22624
   22625   22638   22639   22640   22641   22660   22661   22662   22622   22623
   22624   22625   22642   22643   22644   22645   22663   22664   22665       0
   22616   22626   22627   22628   22629   22646   22647   22648   22649   22666
   22667   22668   22626   22627   22628   22629   22650   22651   22652   22653
   22669   22670   22671       0   22619   22630   22631   22632   22633   22654
   22655   22672   22630   22631   22632   22633   22654   22656   22672   22621
   22634   22635   22636   22637   22657   22658   22673   22634   22635   22636
   22637   22657   22659   22673   22623   22638   22639   22640   22641   22660
   22661   22674   22638   22639   22640   22641   22661   22662   22674   22625
   22642   22643   22644   22645   22663   22664   22675   22642   22643   22644
   22645   22663   22665   22675   22627   22646   22647   22648   22649   22666
   22667   22676   22646   22647   22648   22649   22666   22668   22676   22629
   22650   22651   22652   22653   22669   22670   22677   22650   22651   22652
   22653   22669   22671   22677   22631   22632   22654   22655   22656   22672
   22678   22654   22655   22633   22654   22655   22656   22672   22678   22654
   22656   22635   22657   22658   22637   22657   22658   22659   22673   22679
   22637   22657   22659   22657   22658   22659   22673   22679   22639   22640
   22660   22661   22662   22674   22680   22660   22661   22641   22660   22661
   22662   22674   22680   22661   22662   22643   22644   22663   22664   22665
   22675   22681   22663   22664   22645   22663   22664   22665   22675   22681
   22663   22665   22647   22648   22666   22667   22668   22676   22682   22666
   22667   22649   22666   22667   22668   22676   22682   22666   22668   22651
   22652   22669   22670   22671   22677   22683   22669   22670   22653   22669
   22670   22671   22677   22683   22669   22671   22655   22656   22672   22678
   22684   22685   22686   22672   22672   22658   22659   22673   22679   22687
   22688   22689   22673   22673   22661   22674   22662   22674   22680   22690
   22691   22692   22674   22664   22665   22675   22681   22693   22694   22695
   22675   22675   22667   22668   22676   22682   22696   22697   22698   22676
   22676   22670   22671   22677   22683   22699   22700   22701   22677   22677
   22678   22684   22685   22686   22679   22687   22688   22689   22680   22690
   22691   22692   22681   22693   22694   22695   22682   22696   22697   22698
   22683   22699   22700   22701   22684   22685   22686   22687   22688   22689
   22690   22691   22692   22693   22694   22695   22696   22697   22698   22699
   22700   22701   22685   22686   22686       0   22688   22689   22689       0
   22691   22692   22692       0   22694   22695   22695       0   22697   22698
   22698       0   22700   22701   22701       0   22703   22704   22705   22706
   22707   22708   22709   22710   22711   22712   22713   22704   22705   22706
   22707   22708   22709   22710   22711   22712   22713   22714   22715   22716
   22705   22706   22707   22708   22709   22706   22710   22711   22712   22713
   22714   22715   22717   22710   22711   22712   22713   22714   22716   22717
   22708   22709   22709       0   22711   22712   22714   22715   22716   22717
   22718   22719   22714   22715   22713   22714   22715   22716   22717   22718
   22719   22714   22716   22715   22716   22717   22718   22719   22720   22721
   22722   22723   22717   22717   22718   22719   22720   22721   22722   22723
   22724   22725   22726   22727   22728   22729   22730   22731   22719   22720
   22721   22722   22723   22724   22725   22726   22727   22732   22733   22734
   22720   22721   22722   22723   22728   22729   22730   22731   22735   22736
   22737   22721   22724   22725   22726   22727   22732   22733   22738   22739
   22740   22741   22724   22725   22726   22727   22732   22734   22738   22723
   22728   22729   22730   22731   22735   22736   22742   22728   22729   22730
   22731   22735   22737   22742   22725   22726   22732   22733   22734   22738
   22739   22740   22741   22743   22744   22745   22746   22747   22748   22732
   22733   22727   22732   22733   22734   22738   22739   22743   22732   22734
   22729   22730   22735   22736   22737   22742   22749   22735   22736   22731
   22735   22736   22737   22742   22749   22735   22737   22733   22734   22738
   22739   22740   22741   22743   22744   22750   22751   22738   22739   22740
   22741   22743   22744   22745   22746   22747   22748   22752   22753   22754
   22755   22756   22757   22758   22759   22738   22736   22737   22742   22749
   22760   22761   22762   22742   22742   22739   22740   22741   22743   22744
   22750   22751   22752   22753   22763   22740   22741   22743   22744   22745
   22746   22747   22748   22750   22751   22752   22753   22764   22741   22744
   22745   22746   22747   22748   22754   22755   22756   22759   22765   22766
   22767   22744   22745   22746   22747   22748   22756   22757   22758   22759
   22768   22769   22770   22749   22760   22761   22762   22744   22750   22751
   22752   22763   22764   22750   22752   22753   22763   22764   22771   22772
   22746   22748   22754   22755   22756   22765   22766   22773   22774   22775
   22747   22748   22754   22755   22756   22759   22766   22767   22769   22770
   22775   22748   22757   22758   22759   22768   22769   22776   22777   22778
   22756   22757   22758   22759   22766   22767   22769   22770   22778   22760
   22761   22762   22751   22752   22753   22763   22764   22771   22772   22752
   22763   22753   22763   22764   22771   22772   22779   22780   22781   22782
   22764   22755   22756   22765   22766   22767   22773   22774   22775   22783
   22784   22785   22786   22765   22766   22759   22765   22766   22767   22775
   22758   22768   22769   22759   22768   22769   22770   22776   22777   22778
   22787   22788   22789   22790   22768   22769   22770   22778   22761   22762
   22762       0   22764   22771   22772   22779   22780   22781   22782   22791
   22792   22793   22794   22795   22796   22797   22798   22766   22773   22774
   22775   22783   22784   22785   22786   22799   22800   22801   22802   22803
   22804   22805   22806   22767   22773   22774   22775   22775   22769   22776
   22777   22778   22787   22788   22789   22790   22807   22808   22809   22810
   22811   22812   22813   22814   22770   22776   22777   22778   22778   22772
   22779   22780   22781   22782   22791   22792   22793   22794   22815   22816
   22817   22779   22780   22781   22782   22795   22796   22797   22798   22818
   22819   22820   22774   22783   22784   22785   22786   22799   22800   22801
   22802   22821   22822   22823   22783   22784   22785   22786   22803   22804
   22805   22806   22824   22825   22826       0   22777   22787   22788   22789
   22790   22807   22808   22809   22810   22827   22828   22829   22787   22788
   22789   22790   22811   22812   22813   22814   22830   22831   22832       0
   22780   22791   22792   22793   22794   22815   22816   22833   22791   22792
   22793   22794   22815   22817   22833   22782   22795   22796   22797   22798
   22818   22819   22834   22795   22796   22797   22798   22818   22820   22834
   22784   22799   22800   22801   22802   22821   22822   22835   22799   22800
   22801   22802   22822   22823   22835   22786   22803   22804   22805   22806
   22824   22825   22836   22803   22804   22805   22806   22824   22826   22836
   22788   22807   22808   22809   22810   22827   22828   22837   22807   22808
   22809   22810   22827   22829   22837   22790   22811   22812   22813   22814
   22830   22831   22838   22811   22812   22813   22814   22830   22832   22838
   22792   22793   22815   22816   22817   22833   22839   22815   22816   22794
   22815   22816   22817   22833   22839   22815   22817   22796   22818   22819
   22798   22818   22819   22820   22834   22840   22798   22818   22820   22818
   22819   22820   22834   22840   22800   22801   22821   22822   22823   22835
   22841   22821   22822   22802   22821   22822   22823   22835   22841   22822
   22823   22804   22805   22824   22825   22826   22836   22842   22824   22825
   22806   22824   22825   22826   22836   22842   22824   22826   22808   22809
   22827   22828   22829   22837   22843   22827   22828   22810   22827   22828
   22829   22837   22843   22827   22829   22812   22813   22830   22831   22832
   22838   22844   22830   22831   22814   22830   22831   22832   22838   22844
   22830   22832   22816   22817   22833   22839   22845   22846   22847   22833
   22833   22819   22820   22834   22840   22848   22849   22850   22834   22834
   22822   22835   22823   22835   22841   22851   22852   22853   22835   22825
   22826   22836   22842   22854   22855   22856   22836   22836   22828   22829
   22837   22843   22857   22858   22859   22837   22837   22831   22832   22838
   22844   22860   22861   22862   22838   22838   22839   22845   22846   22847
   22840   22848   22849   22850   22841   22851   22852   22853   22842   22854
   22855   22856   22843   22857   22858   22859   22844   22860   22861   22862
   22845   22846   22847   22848   22849   22850   22851   22852   22853   22854
   22855   22856   22857   22858   22859   22860   22861   22862   22846   22847
   22847       0   22849   22850   22850       0   22852   22853   22853       0
   22855   22856   22856       0   22858   22859   22859       0   22861   22862
   22862       0   22864   22865   22866   22867   22868   22869   22870   22871
   22872   22873   22874   22865   22866   22867   22868   22869   22870   22871
   22872   22873   22874   22875   22876   22877   22866   22867   22868   22869
   22870   22867   22871   22872   22873   22874   22875   22876   22878   22871
   22872   22873   22874   22875   22877   22878   22869   22870   22870       0
   22872   22873   22875   22876   22877   22878   22879   22880   22875   22876
   22874   22875   22876   22877   22878   22879   22880   22875   22877   22876
   22877   22878   22879   22880   22881   22882   22883   22884   22878   22878
   22879   22880   22881   22882   22883   22884   22885   22886   22887   22888
   22889   22890   22891   22892   22880   22881   22882   22883   22884   22885
   22886   22887   22888   22893   22894   22895   22881   22882   22883   22884
   22889   22890   22891   22892   22896   22897   22898   22882   22885   22886
   22887   22888   22893   22894   22899   22900   22901   22902   22885   22886
   22887   22888   22893   22895   22899   22884   22889   22890   22891   22892
   22896   22897   22903   22889   22890   22891   22892   22896   22898   22903
   22886   22887   22893   22894   22895   22899   22900   22901   22902   22904
   22905   22906   22907   22908   22909   22893   22894   22888   22893   22894
   22895   22899   22900   22904   22893   22895   22890   22891   22896   22897
   22898   22903   22910   22896   22897   22892   22896   22897   22898   22903
   22910   22896   22898   22894   22895   22899   22900   22901   22902   22904
   22905   22911   22912   22899   22900   22901   22902   22904   22905   22906
   22907   22908   22909   22913   22914   22915   22916   22917   22918   22919
   22920   22899   22897   22898   22903   22910   22921   22922   22923   22903
   22903   22900   22901   22902   22904   22905   22911   22912   22913   22914
   22924   22901   22902   22904   22905   22906   22907   22908   22909   22911
   22912   22913   22914   22925   22902   22905   22906   22907   22908   22909
   22915   22916   22917   22920   22926   22927   22928   22905   22906   22907
   22908   22909   22917   22918   22919   22920   22929   22930   22931   22910
   22921   22922   22923   22905   22911   22912   22913   22924   22925   22911
   22913   22914   22924   22925   22932   22933   22907   22909   22915   22916
   22917   22926   22927   22934   22935   22936   22908   22909   22915   22916
   22917   22920   22927   22928   22930   22931   22936   22909   22918   22919
   22920   22929   22930   22937   22938   22939   22917   22918   22919   22920
   22927   22928   22930   22931   22939   22921   22922   22923   22912   22913
   22914   22924   22925   22932   22933   22913   22924   22914   22924   22925
   22932   22933   22940   22941   22942   22943   22925   22916   22917   22926
   22927   22928   22934   22935   22936   22944   22945   22946   22947   22926
   22927   22920   22926   22927   22928   22936   22919   22929   22930   22920
   22929   22930   22931   22937   22938   22939   22948   22949   22950   22951
   22929   22930   22931   22939   22922   22923   22923       0   22925   22932
   22933   22940   22941   22942   22943   22952   22953   22954   22955   22956
   22957   22958   22959   22927   22934   22935   22936   22944   22945   22946
   22947   22960   22961   22962   22963   22964   22965   22966   22967   22928
   22934   22935   22936   22936   22930   22937   22938   22939   22948   22949
   22950   22951   22968   22969   22970   22971   22972   22973   22974   22975
   22931   22937   22938   22939   22939   22933   22940   22941   22942   22943
   22952   22953   22954   22955   22976   22977   22978   22940   22941   22942
   22943   22956   22957   22958   22959   22979   22980   22981   22935   22944
   22945   22946   22947   22960   22961   22962   22963   22982   22983   22984
   22944   22945   22946   22947   22964   22965   22966   22967   22985   22986
   22987       0   22938   22948   22949   22950   22951   22968   22969   22970
   22971   22988   22989   22990   22948   22949   22950   22951   22972   22973
   22974   22975   22991   22992   22993       0   22941   22952   22953   22954
   22955   22976   22977   22994   22952   22953   22954   22955   22976   22978
   22994   22943   22956   22957   22958   22959   22979   22980   22995   22956
   22957   22958   22959   22979   22981   22995   22945   22960   22961   22962
   22963   22982   22983   22996   22960   22961   22962   22963   22983   22984
   22996   22947   22964   22965   22966   22967   22985   22986   22997   22964
   22965   22966   22967   22985   22987   22997   22949   22968   22969   22970
   22971   22988   22989   22998   22968   22969   22970   22971   22988   22990
   22998   22951   22972   22973   22974   22975   22991   22992   22999   22972
   22973   22974   22975   22991   22993   22999   22953   22954   22976   22977
   22978   22994   23000   22976   22977   22955   22976   22977   22978   22994
   23000   22976   22978   22957   22979   22980   22959   22979   22980   22981
   22995   23001   22959   22979   22981   22979   22980   22981   22995   23001
   22961   22962   22982   22983   22984   22996   23002   22982   22983   22963
   22982   22983   22984   22996   23002   22983   22984   22965   22966   22985
   22986   22987   22997   23003   22985   22986   22967   22985   22986   22987
   22997   23003   22985   22987   22969   22970   22988   22989   22990   22998
   23004   22988   22989   22971   22988   22989   22990   22998   23004   22988
   22990   22973   22974   22991   22992   22993   22999   23005   22991   22992
   22975   22991   22992   22993   22999   23005   22991   22993   22977   22978
   22994   23000   23006   23007   23008   22994   22994   22980   22981   22995
   23001   23009   23010   23011   22995   22995   22983   22996   22984   22996
   23002   23012   23013   23014   22996   22986   22987   22997   23003   23015
   23016   23017   22997   22997   22989   22990   22998   23004   23018   23019
   23020   22998   22998   22992   22993   22999   23005   23021   23022   23023
   22999   22999   23000   23006   23007   23008   23001   23009   23010   23011
   23002   23012   23013   23014   23003   23015   23016   23017   23004   23018
   23019   23020   23005   23021   23022   23023   23006   23007   23008   23009
   23010   23011   23012   23013   23014   23015   23016   23017   23018   23019
   23020   23021   23022   23023   23007   23008   23008       0   23010   23011
   23011       0   23013   23014   23014       0   23016   23017   23017       0
   23019   23020   23020       0   23022   23023   23023       0   23025   23026
   23027   23028   23029   23030   23031   23032   23033   23034   23035   23026
   23027   23028   23029   23030   23031   23032   23033   23034   23035   23036
   23037   23038   23027   23028   23029   23030   23031   23028   23032   23033
   23034   23035   23036   23037   23039   23032   23033   23034   23035   23036
   23038   23039   23030   23031   23031       0   23033   23034   23036   23037
   23038   23039   23040   23041   23036   23037   23035   23036   23037   23038
   23039   23040   23041   23036   23038   23037   23038   23039   23040   23041
   23042   23043   23044   23045   23039   23039   23040   23041   23042   23043
   23044   23045   23046   23047   23048   23049   23050   23051   23052   23053
   23041   23042   23043   23044   23045   23046   23047   23048   23049   23054
   23055   23056   23042   23043   23044   23045   23050   23051   23052   23053
   23057   23058   23059   23043   23046   23047   23048   23049   23054   23055
   23060   23061   23062   23063   23046   23047   23048   23049   23054   23056
   23060   23045   23050   23051   23052   23053   23057   23058   23064   23050
   23051   23052   23053   23057   23059   23064   23047   23048   23054   23055
   23056   23060   23061   23062   23063   23065   23066   23067   23068   23069
   23070   23054   23055   23049   23054   23055   23056   23060   23061   23065
   23054   23056   23051   23052   23057   23058   23059   23064   23071   23057
   23058   23053   23057   23058   23059   23064   23071   23057   23059   23055
   23056   23060   23061   23062   23063   23065   23066   23072   23073   23060
   23061   23062   23063   23065   23066   23067   23068   23069   23070   23074
   23075   23076   23077   23078   23079   23080   23081   23060   23058   23059
   23064   23071   23082   23083   23084   23064   23064   23061   23062   23063
   23065   23066   23072   23073   23074   23075   23085   23062   23063   23065
   23066   23067   23068   23069   23070   23072   23073   23074   23075   23086
   23063   23066   23067   23068   23069   23070   23076   23077   23078   23081
   23087   23088   23089   23066   23067   23068   23069   23070   23078   23079
   23080   23081   23090   23091   23092   23071   23082   23083   23084   23066
   23072   23073   23074   23085   23086   23072   23074   23075   23085   23086
   23093   23094   23068   23070   23076   23077   23078   23087   23088   23095
   23096   23097   23069   23070   23076   23077   23078   23081   23088   23089
   23091   23092   23097   23070   23079   23080   23081   23090   23091   23098
   23099   23100   23078   23079   23080   23081   23088   23089   23091   23092
   23100   23082   23083   23084   23073   23074   23075   23085   23086   23093
   23094   23074   23085   23075   23085   23086   23093   23094   23101   23102
   23103   23104   23086   23077   23078   23087   23088   23089   23095   23096
   23097   23105   23106   23107   23108   23087   23088   23081   23087   23088
   23089   23097   23080   23090   23091   23081   23090   23091   23092   23098
   23099   23100   23109   23110   23111   23112   23090   23091   23092   23100
   23083   23084   23084       0   23086   23093   23094   23101   23102   23103
   23104   23113   23114   23115   23116   23117   23118   23119   23120   23088
   23095   23096   23097   23105   23106   23107   23108   23121   23122   23123
   23124   23125   23126   23127   23128   23089   23095   23096   23097   23097
   23091   23098   23099   23100   23109   23110   23111   23112   23129   23130
   23131   23132   23133   23134   23135   23136   23092   23098   23099   23100
   23100   23094   23101   23102   23103   23104   23113   23114   23115   23116
   23137   23138   23139   23101   23102   23103   23104   23117   23118   23119
   23120   23140   23141   23142   23096   23105   23106   23107   23108   23121
   23122   23123   23124   23143   23144   23145   23105   23106   23107   23108
   23125   23126   23127   23128   23146   23147   23148       0   23099   23109
   23110   23111   23112   23129   23130   23131   23132   23149   23150   23151
   23109   23110   23111   23112   23133   23134   23135   23136   23152   23153
   23154       0   23102   23113   23114   23115   23116   23137   23138   23155
   23113   23114   23115   23116   23137   23139   23155   23104   23117   23118
   23119   23120   23140   23141   23156   23117   23118   23119   23120   23140
   23142   23156   23106   23121   23122   23123   23124   23143   23144   23157
   23121   23122   23123   23124   23144   23145   23157   23108   23125   23126
   23127   23128   23146   23147   23158   23125   23126   23127   23128   23146
   23148   23158   23110   23129   23130   23131   23132   23149   23150   23159
   23129   23130   23131   23132   23149   23151   23159   23112   23133   23134
   23135   23136   23152   23153   23160   23133   23134   23135   23136   23152
   23154   23160   23114   23115   23137   23138   23139   23155   23161   23137
   23138   23116   23137   23138   23139   23155   23161   23137   23139   23118
   23140   23141   23120   23140   23141   23142   23156   23162   23120   23140
   23142   23140   23141   23142   23156   23162   23122   23123   23143   23144
   23145   23157   23163   23143   23144   23124   23143   23144   23145   23157
   23163   23144   23145   23126   23127   23146   23147   23148   23158   23164
   23146   23147   23128   23146   23147   23148   23158   23164   23146   23148
   23130   23131   23149   23150   23151   23159   23165   23149   23150   23132
   23149   23150   23151   23159   23165   23149   23151   23134   23135   23152
   23153   23154   23160   23166   23152   23153   23136   23152   23153   23154
   23160   23166   23152   23154   23138   23139   23155   23161   23167   23168
   23169   23155   23155   23141   23142   23156   23162   23170   23171   23172
   23156   23156   23144   23157   23145   23157   23163   23173   23174   23175
   23157   23147   23148   23158   23164   23176   23177   23178   23158   23158
   23150   23151   23159   23165   23179   23180   23181   23159   23159   23153
   23154   23160   23166   23182   23183   23184   23160   23160   23161   23167
   23168   23169   23162   23170   23171   23172   23163   23173   23174   23175
   23164   23176   23177   23178   23165   23179   23180   23181   23166   23182
   23183   23184   23167   23168   23169   23170   23171   23172   23173   23174
   23175   23176   23177   23178   23179   23180   23181   23182   23183   23184
   23168   23169   23169       0   23171   23172   23172       0   23174   23175
   23175       0   23177   23178   23178       0   23180   23181   23181       0
   23183   23184   23184       0   23186   23187   23188   23189   23190   23191
   23192   23193   23194   23195   23196   23187   23188   23189   23190   23191
   23192   23193   23194   23195   23196   23197   23198   23199   23188   23189
   23190   23191   23192   23189   23193   23194   23195   23196   23197   23198
   23200   23193   23194   23195   23196   23197   23199   23200   23191   23192
   23192       0   23194   23195   23197   23198   23199   23200   23201   23202
   23197   23198   23196   23197   23198   23199   23200   23201   23202   23197
   23199   23198   23199   23200   23201   23202   23203   23204   23205   23206
   23200   23200   23201   23202   23203   23204   23205   23206   23207   23208
   23209   23210   23211   23212   23213   23214   23202   23203   23204   23205
   23206   23207   23208   23209   23210   23215   23216   23217   23203   23204
   23205   23206   23211   23212   23213   23214   23218   23219   23220   23204
   23207   23208   23209   23210   23215   23216   23221   23222   23223   23224
   23207   23208   23209   23210   23215   23217   23221   23206   23211   23212
   23213   23214   23218   23219   23225   23211   23212   23213   23214   23218
   23220   23225   23208   23209   23215   23216   23217   23221   23222   23223
   23224   23226   23227   23228   23229   23230   23231   23215   23216   23210
   23215   23216   23217   23221   23222   23226   23215   23217   23212   23213
   23218   23219   23220   23225   23232   23218   23219   23214   23218   23219
   23220   23225   23232   23218   23220   23216   23217   23221   23222   23223
   23224   23226   23227   23233   23234   23221   23222   23223   23224   23226
   23227   23228   23229   23230   23231   23235   23236   23237   23238   23239
   23240   23241   23242   23221   23219   23220   23225   23232   23243   23244
   23245   23225   23225   23222   23223   23224   23226   23227   23233   23234
   23235   23236   23246   23223   23224   23226   23227   23228   23229   23230
   23231   23233   23234   23235   23236   23247   23224   23227   23228   23229
   23230   23231   23237   23238   23239   23242   23248   23249   23250   23227
   23228   23229   23230   23231   23239   23240   23241   23242   23251   23252
   23253   23232   23243   23244   23245   23227   23233   23234   23235   23246
   23247   23233   23235   23236   23246   23247   23254   23255   23229   23231
   23237   23238   23239   23248   23249   23256   23257   23258   23230   23231
   23237   23238   23239   23242   23249   23250   23252   23253   23258   23231
   23240   23241   23242   23251   23252   23259   23260   23261   23239   23240
   23241   23242   23249   23250   23252   23253   23261   23243   23244   23245
   23234   23235   23236   23246   23247   23254   23255   23235   23246   23236
   23246   23247   23254   23255   23262   23263   23264   23265   23247   23238
   23239   23248   23249   23250   23256   23257   23258   23266   23267   23268
   23269   23248   23249   23242   23248   23249   23250   23258   23241   23251
   23252   23242   23251   23252   23253   23259   23260   23261   23270   23271
   23272   23273   23251   23252   23253   23261   23244   23245   23245       0
   23247   23254   23255   23262   23263   23264   23265   23274   23275   23276
   23277   23278   23279   23280   23281   23249   23256   23257   23258   23266
   23267   23268   23269   23282   23283   23284   23285   23286   23287   23288
   23289   23250   23256   23257   23258   23258   23252   23259   23260   23261
   23270   23271   23272   23273   23290   23291   23292   23293   23294   23295
   23296   23297   23253   23259   23260   23261   23261   23255   23262   23263
   23264   23265   23274   23275   23276   23277   23298   23299   23300   23262
   23263   23264   23265   23278   23279   23280   23281   23301   23302   23303
   23257   23266   23267   23268   23269   23282   23283   23284   23285   23304
   23305   23306   23266   23267   23268   23269   23286   23287   23288   23289
   23307   23308   23309       0   23260   23270   23271   23272   23273   23290
   23291   23292   23293   23310   23311   23312   23270   23271   23272   23273
   23294   23295   23296   23297   23313   23314   23315       0   23263   23274
   23275   23276   23277   23298   23299   23316   23274   23275   23276   23277
   23298   23300   23316   23265   23278   23279   23280   23281   23301   23302
   23317   23278   23279   23280   23281   23301   23303   23317   23267   23282
   23283   23284   23285   23304   23305   23318   23282   23283   23284   23285
   23305   23306   23318   23269   23286   23287   23288   23289   23307   23308
   23319   23286   23287   23288   23289   23307   23309   23319   23271   23290
   23291   23292   23293   23310   23311   23320   23290   23291   23292   23293
   23310   23312   23320   23273   23294   23295   23296   23297   23313   23314
   23321   23294   23295   23296   23297   23313   23315   23321   23275   23276
   23298   23299   23300   23316   23322   23298   23299   23277   23298   23299
   23300   23316   23322   23298   23300   23279   23301   23302   23281   23301
   23302   23303   23317   23323   23281   23301   23303   23301   23302   23303
   23317   23323   23283   23284   23304   23305   23306   23318   23324   23304
   23305   23285   23304   23305   23306   23318   23324   23305   23306   23287
   23288   23307   23308   23309   23319   23325   23307   23308   23289   23307
   23308   23309   23319   23325   23307   23309   23291   23292   23310   23311
   23312   23320   23326   23310   23311   23293   23310   23311   23312   23320
   23326   23310   23312   23295   23296   23313   23314   23315   23321   23327
   23313   23314   23297   23313   23314   23315   23321   23327   23313   23315
   23299   23300   23316   23322   23328   23329   23330   23316   23316   23302
   23303   23317   23323   23331   23332   23333   23317   23317   23305   23318
   23306   23318   23324   23334   23335   23336   23318   23308   23309   23319
   23325   23337   23338   23339   23319   23319   23311   23312   23320   23326
   23340   23341   23342   23320   23320   23314   23315   23321   23327   23343
   23344   23345   23321   23321   23322   23328   23329   23330   23323   23331
   23332   23333   23324   23334   23335   23336   23325   23337   23338   23339
   23326   23340   23341   23342   23327   23343   23344   23345   23328   23329
   23330   23331   23332   23333   23334   23335   23336   23337   23338   23339
   23340   23341   23342   23343   23344   23345   23329   23330   23330       0
   23332   23333   23333       0   23335   23336   23336       0   23338   23339
   23339       0   23341   23342   23342       0   23344   23345   23345       0
   23347   23348   23349   23350   23351   23352   23353   23354   23355   23356
   23357   23348   23349   23350   23351   23352   23353   23354   23355   23356
   23357   23358   23359   23360   23349   23350   23351   23352   23353   23350
   23354   23355   23356   23357   23358   23359   23361   23354   23355   23356
   23357   23358   23360   23361   23352   23353   23353       0   23355   23356
   23358   23359   23360   23361   23362   23363   23358   23359   23357   23358
   23359   23360   23361   23362   23363   23358   23360   23359   23360   23361
   23362   23363   23364   23365   23366   23367   23361   23361   23362   23363
   23364   23365   23366   23367   23368   23369   23370   23371   23372   23373
   23374   23375   23363   23364   23365   23366   23367   23368   23369   23370
   23371   23376   23377   23378   23364   23365   23366   23367   23372   23373
   23374   23375   23379   23380   23381   23365   23368   23369   23370   23371
   23376   23377   23382   23383   23384   23385   23368   23369   23370   23371
   23376   23378   23382   23367   23372   23373   23374   23375   23379   23380
   23386   23372   23373   23374   23375   23379   23381   23386   23369   23370
   23376   23377   23378   23382   23383   23384   23385   23387   23388   23389
   23390   23391   23392   23376   23377   23371   23376   23377   23378   23382
   23383   23387   23376   23378   23373   23374   23379   23380   23381   23386
   23393   23379   23380   23375   23379   23380   23381   23386   23393   23379
   23381   23377   23378   23382   23383   23384   23385   23387   23388   23394
   23395   23382   23383   23384   23385   23387   23388   23389   23390   23391
   23392   23396   23397   23398   23399   23400   23401   23402   23403   23382
   23380   23381   23386   23393   23404   23405   23406   23386   23386   23383
   23384   23385   23387   23388   23394   23395   23396   23397   23407   23384
   23385   23387   23388   23389   23390   23391   23392   23394   23395   23396
   23397   23408   23385   23388   23389   23390   23391   23392   23398   23399
   23400   23403   23409   23410   23411   23388   23389   23390   23391   23392
   23400   23401   23402   23403   23412   23413   23414   23393   23404   23405
   23406   23388   23394   23395   23396   23407   23408   23394   23396   23397
   23407   23408   23415   23416   23390   23392   23398   23399   23400   23409
   23410   23417   23418   23419   23391   23392   23398   23399   23400   23403
   23410   23411   23413   23414   23419   23392   23401   23402   23403   23412
   23413   23420   23421   23422   23400   23401   23402   23403   23410   23411
   23413   23414   23422   23404   23405   23406   23395   23396   23397   23407
   23408   23415   23416   23396   23407   23397   23407   23408   23415   23416
   23423   23424   23425   23426   23408   23399   23400   23409   23410   23411
   23417   23418   23419   23427   23428   23429   23430   23409   23410   23403
   23409   23410   23411   23419   23402   23412   23413   23403   23412   23413
   23414   23420   23421   23422   23431   23432   23433   23434   23412   23413
   23414   23422   23405   23406   23406       0   23408   23415   23416   23423
   23424   23425   23426   23435   23436   23437   23438   23439   23440   23441
   23442   23410   23417   23418   23419   23427   23428   23429   23430   23443
   23444   23445   23446   23447   23448   23449   23450   23411   23417   23418
   23419   23419   23413   23420   23421   23422   23431   23432   23433   23434
   23451   23452   23453   23454   23455   23456   23457   23458   23414   23420
   23421   23422   23422   23416   23423   23424   23425   23426   23435   23436
   23437   23438   23459   23460   23461   23423   23424   23425   23426   23439
   23440   23441   23442   23462   23463   23464   23418   23427   23428   23429
   23430   23443   23444   23445   23446   23465   23466   23467   23427   23428
   23429   23430   23447   23448   23449   23450   23468   23469   23470       0
   23421   23431   23432   23433   23434   23451   23452   23453   23454   23471
   23472   23473   23431   23432   23433   23434   23455   23456   23457   23458
   23474   23475   23476       0   23424   23435   23436   23437   23438   23459
   23460   23477   23435   23436   23437   23438   23459   23461   23477   23426
   23439   23440   23441   23442   23462   23463   23478   23439   23440   23441
   23442   23462   23464   23478   23428   23443   23444   23445   23446   23465
   23466   23479   23443   23444   23445   23446   23466   23467   23479   23430
   23447   23448   23449   23450   23468   23469   23480   23447   23448   23449
   23450   23468   23470   23480   23432   23451   23452   23453   23454   23471
   23472   23481   23451   23452   23453   23454   23471   23473   23481   23434
   23455   23456   23457   23458   23474   23475   23482   23455   23456   23457
   23458   23474   23476   23482   23436   23437   23459   23460   23461   23477
   23483   23459   23460   23438   23459   23460   23461   23477   23483   23459
   23461   23440   23462   23463   23442   23462   23463   23464   23478   23484
   23442   23462   23464   23462   23463   23464   23478   23484   23444   23445
   23465   23466   23467   23479   23485   23465   23466   23446   23465   23466
   23467   23479   23485   23466   23467   23448   23449   23468   23469   23470
   23480   23486   23468   23469   23450   23468   23469   23470   23480   23486
   23468   23470   23452   23453   23471   23472   23473   23481   23487   23471
   23472   23454   23471   23472   23473   23481   23487   23471   23473   23456
   23457   23474   23475   23476   23482   23488   23474   23475   23458   23474
   23475   23476   23482   23488   23474   23476   23460   23461   23477   23483
   23489   23490   23491   23477   23477   23463   23464   23478   23484   23492
   23493   23494   23478   23478   23466   23479   23467   23479   23485   23495
   23496   23497   23479   23469   23470   23480   23486   23498   23499   23500
   23480   23480   23472   23473   23481   23487   23501   23502   23503   23481
   23481   23475   23476   23482   23488   23504   23505   23506   23482   23482
   23483   23489   23490   23491   23484   23492   23493   23494   23485   23495
   23496   23497   23486   23498   23499   23500   23487   23501   23502   23503
   23488   23504   23505   23506   23489   23490   23491   23492   23493   23494
   23495   23496   23497   23498   23499   23500   23501   23502   23503   23504
   23505   23506   23490   23491   23491       0   23493   23494   23494       0
   23496   23497   23497       0   23499   23500   23500       0   23502   23503
   23503       0   23505   23506   23506       0   23508   23509   23510   23511
   23512   23513   23514   23515   23516   23517   23518   23509   23510   23511
   23512   23513   23514   23515   23516   23517   23518   23519   23520   23521
   23510   23511   23512   23513   23514   23511   23515   23516   23517   23518
   23519   23520   23522   23515   23516   23517   23518   23519   23521   23522
   23513   23514   23514       0   23516   23517   23519   23520   23521   23522
   23523   23524   23519   23520   23518   23519   23520   23521   23522   23523
   23524   23519   23521   23520   23521   23522   23523   23524   23525   23526
   23527   23528   23522   23522   23523   23524   23525   23526   23527   23528
   23529   23530   23531   23532   23533   23534   23535   23536   23524   23525
   23526   23527   23528   23529   23530   23531   23532   23537   23538   23539
   23525   23526   23527   23528   23533   23534   23535   23536   23540   23541
   23542   23526   23529   23530   23531   23532   23537   23538   23543   23544
   23545   23546   23529   23530   23531   23532   23537   23539   23543   23528
   23533   23534   23535   23536   23540   23541   23547   23533   23534   23535
   23536   23540   23542   23547   23530   23531   23537   23538   23539   23543
   23544   23545   23546   23548   23549   23550   23551   23552   23553   23537
   23538   23532   23537   23538   23539   23543   23544   23548   23537   23539
   23534   23535   23540   23541   23542   23547   23554   23540   23541   23536
   23540   23541   23542   23547   23554   23540   23542   23538   23539   23543
   23544   23545   23546   23548   23549   23555   23556   23543   23544   23545
   23546   23548   23549   23550   23551   23552   23553   23557   23558   23559
   23560   23561   23562   23563   23564   23543   23541   23542   23547   23554
   23565   23566   23567   23547   23547   23544   23545   23546   23548   23549
   23555   23556   23557   23558   23568   23545   23546   23548   23549   23550
   23551   23552   23553   23555   23556   23557   23558   23569   23546   23549
   23550   23551   23552   23553   23559   23560   23561   23564   23570   23571
   23572   23549   23550   23551   23552   23553   23561   23562   23563   23564
   23573   23574   23575   23554   23565   23566   23567   23549   23555   23556
   23557   23568   23569   23555   23557   23558   23568   23569   23576   23577
   23551   23553   23559   23560   23561   23570   23571   23578   23579   23580
   23552   23553   23559   23560   23561   23564   23571   23572   23574   23575
   23580   23553   23562   23563   23564   23573   23574   23581   23582   23583
   23561   23562   23563   23564   23571   23572   23574   23575   23583   23565
   23566   23567   23556   23557   23558   23568   23569   23576   23577   23557
   23568   23558   23568   23569   23576   23577   23584   23585   23586   23587
   23569   23560   23561   23570   23571   23572   23578   23579   23580   23588
   23589   23590   23591   23570   23571   23564   23570   23571   23572   23580
   23563   23573   23574   23564   23573   23574   23575   23581   23582   23583
   23592   23593   23594   23595   23573   23574   23575   23583   23566   23567
   23567       0   23569   23576   23577   23584   23585   23586   23587   23596
   23597   23598   23599   23600   23601   23602   23603   23571   23578   23579
   23580   23588   23589   23590   23591   23604   23605   23606   23607   23608
   23609   23610   23611   23572   23578   23579   23580   23580   23574   23581
   23582   23583   23592   23593   23594   23595   23612   23613   23614   23615
   23616   23617   23618   23619   23575   23581   23582   23583   23583   23577
   23584   23585   23586   23587   23596   23597   23598   23599   23620   23621
   23622   23584   23585   23586   23587   23600   23601   23602   23603   23623
   23624   23625   23579   23588   23589   23590   23591   23604   23605   23606
   23607   23626   23627   23628   23588   23589   23590   23591   23608   23609
   23610   23611   23629   23630   23631       0   23582   23592   23593   23594
   23595   23612   23613   23614   23615   23632   23633   23634   23592   23593
   23594   23595   23616   23617   23618   23619   23635   23636   23637       0
   23585   23596   23597   23598   23599   23620   23621   23638   23596   23597
   23598   23599   23620   23622   23638   23587   23600   23601   23602   23603
   23623   23624   23639   23600   23601   23602   23603   23623   23625   23639
   23589   23604   23605   23606   23607   23626   23627   23640   23604   23605
   23606   23607   23627   23628   23640   23591   23608   23609   23610   23611
   23629   23630   23641   23608   23609   23610   23611   23629   23631   23641
   23593   23612   23613   23614   23615   23632   23633   23642   23612   23613
   23614   23615   23632   23634   23642   23595   23616   23617   23618   23619
   23635   23636   23643   23616   23617   23618   23619   23635   23637   23643
   23597   23598   23620   23621   23622   23638   23644   23620   23621   23599
   23620   23621   23622   23638   23644   23620   23622   23601   23623   23624
   23603   23623   23624   23625   23639   23645   23603   23623   23625   23623
   23624   23625   23639   23645   23605   23606   23626   23627   23628   23640
   23646   23626   23627   23607   23626   23627   23628   23640   23646   23627
   23628   23609   23610   23629   23630   23631   23641   23647   23629   23630
   23611   23629   23630   23631   23641   23647   23629   23631   23613   23614
   23632   23633   23634   23642   23648   23632   23633   23615   23632   23633
   23634   23642   23648   23632   23634   23617   23618   23635   23636   23637
   23643   23649   23635   23636   23619   23635   23636   23637   23643   23649
   23635   23637   23621   23622   23638   23644   23650   23651   23652   23638
   23638   23624   23625   23639   23645   23653   23654   23655   23639   23639
   23627   23640   23628   23640   23646   23656   23657   23658   23640   23630
   23631   23641   23647   23659   23660   23661   23641   23641   23633   23634
   23642   23648   23662   23663   23664   23642   23642   23636   23637   23643
   23649   23665   23666   23667   23643   23643   23644   23650   23651   23652
   23645   23653   23654   23655   23646   23656   23657   23658   23647   23659
   23660   23661   23648   23662   23663   23664   23649   23665   23666   23667
   23650   23651   23652   23653   23654   23655   23656   23657   23658   23659
   23660   23661   23662   23663   23664   23665   23666   23667   23651   23652
   23652       0   23654   23655   23655       0   23657   23658   23658       0
   23660   23661   23661       0   23663   23664   23664       0   23666   23667
   23667       0   23669   23670   23671   23672   23673   23674   23675   23676
   23677   23678   23679   23670   23671   23672   23673   23674   23675   23676
   23677   23678   23679   23680   23681   23682   23671   23672   23673   23674
   23675   23672   23676   23677   23678   23679   23680   23681   23683   23676
   23677   23678   23679   23680   23682   23683   23674   23675   23675       0
   23677   23678   23680   23681   23682   23683   23684   23685   23680   23681
   23679   23680   23681   23682   23683   23684   23685   23680   23682   23681
   23682   23683   23684   23685   23686   23687   23688   23689   23683   23683
   23684   23685   23686   23687   23688   23689   23690   23691   23692   23693
   23694   23695   23696   23697   23685   23686   23687   23688   23689   23690
   23691   23692   23693   23698   23699   23700   23686   23687   23688   23689
   23694   23695   23696   23697   23701   23702   23703   23687   23690   23691
   23692   23693   23698   23699   23704   23705   23706   23707   23690   23691
   23692   23693   23698   23700   23704   23689   23694   23695   23696   23697
   23701   23702   23708   23694   23695   23696   23697   23701   23703   23708
   23691   23692   23698   23699   23700   23704   23705   23706   23707   23709
   23710   23711   23712   23713   23714   23698   23699   23693   23698   23699
   23700   23704   23705   23709   23698   23700   23695   23696   23701   23702
   23703   23708   23715   23701   23702   23697   23701   23702   23703   23708
   23715   23701   23703   23699   23700   23704   23705   23706   23707   23709
   23710   23716   23717   23704   23705   23706   23707   23709   23710   23711
   23712   23713   23714   23718   23719   23720   23721   23722   23723   23724
   23725   23704   23702   23703   23708   23715   23726   23727   23728   23708
   23708   23705   23706   23707   23709   23710   23716   23717   23718   23719
   23729   23706   23707   23709   23710   23711   23712   23713   23714   23716
   23717   23718   23719   23730   23707   23710   23711   23712   23713   23714
   23720   23721   23722   23725   23731   23732   23733   23710   23711   23712
   23713   23714   23722   23723   23724   23725   23734   23735   23736   23715
   23726   23727   23728   23710   23716   23717   23718   23729   23730   23716
   23718   23719   23729   23730   23737   23738   23712   23714   23720   23721
   23722   23731   23732   23739   23740   23741   23713   23714   23720   23721
   23722   23725   23732   23733   23735   23736   23741   23714   23723   23724
   23725   23734   23735   23742   23743   23744   23722   23723   23724   23725
   23732   23733   23735   23736   23744   23726   23727   23728   23717   23718
   23719   23729   23730   23737   23738   23718   23729   23719   23729   23730
   23737   23738   23745   23746   23747   23748   23730   23721   23722   23731
   23732   23733   23739   23740   23741   23749   23750   23751   23752   23731
   23732   23725   23731   23732   23733   23741   23724   23734   23735   23725
   23734   23735   23736   23742   23743   23744   23753   23754   23755   23756
   23734   23735   23736   23744   23727   23728   23728       0   23730   23737
   23738   23745   23746   23747   23748   23757   23758   23759   23760   23761
   23762   23763   23764   23732   23739   23740   23741   23749   23750   23751
   23752   23765   23766   23767   23768   23769   23770   23771   23772   23733
   23739   23740   23741   23741   23735   23742   23743   23744   23753   23754
   23755   23756   23773   23774   23775   23776   23777   23778   23779   23780
   23736   23742   23743   23744   23744   23738   23745   23746   23747   23748
   23757   23758   23759   23760   23781   23782   23783   23745   23746   23747
   23748   23761   23762   23763   23764   23784   23785   23786   23740   23749
   23750   23751   23752   23765   23766   23767   23768   23787   23788   23789
   23749   23750   23751   23752   23769   23770   23771   23772   23790   23791
   23792       0   23743   23753   23754   23755   23756   23773   23774   23775
   23776   23793   23794   23795   23753   23754   23755   23756   23777   23778
   23779   23780   23796   23797   23798       0   23746   23757   23758   23759
   23760   23781   23782   23799   23757   23758   23759   23760   23781   23783
   23799   23748   23761   23762   23763   23764   23784   23785   23800   23761
   23762   23763   23764   23784   23786   23800   23750   23765   23766   23767
   23768   23787   23788   23801   23765   23766   23767   23768   23788   23789
   23801   23752   23769   23770   23771   23772   23790   23791   23802   23769
   23770   23771   23772   23790   23792   23802   23754   23773   23774   23775
   23776   23793   23794   23803   23773   23774   23775   23776   23793   23795
   23803   23756   23777   23778   23779   23780   23796   23797   23804   23777
   23778   23779   23780   23796   23798   23804   23758   23759   23781   23782
   23783   23799   23805   23781   23782   23760   23781   23782   23783   23799
   23805   23781   23783   23762   23784   23785   23764   23784   23785   23786
   23800   23806   23764   23784   23786   23784   23785   23786   23800   23806
   23766   23767   23787   23788   23789   23801   23807   23787   23788   23768
   23787   23788   23789   23801   23807   23788   23789   23770   23771   23790
   23791   23792   23802   23808   23790   23791   23772   23790   23791   23792
   23802   23808   23790   23792   23774   23775   23793   23794   23795   23803
   23809   23793   23794   23776   23793   23794   23795   23803   23809   23793
   23795   23778   23779   23796   23797   23798   23804   23810   23796   23797
   23780   23796   23797   23798   23804   23810   23796   23798   23782   23783
   23799   23805   23811   23812   23813   23799   23799   23785   23786   23800
   23806   23814   23815   23816   23800   23800   23788   23801   23789   23801
   23807   23817   23818   23819   23801   23791   23792   23802   23808   23820
   23821   23822   23802   23802   23794   23795   23803   23809   23823   23824
   23825   23803   23803   23797   23798   23804   23810   23826   23827   23828
   23804   23804   23805   23811   23812   23813   23806   23814   23815   23816
   23807   23817   23818   23819   23808   23820   23821   23822   23809   23823
   23824   23825   23810   23826   23827   23828   23811   23812   23813   23814
   23815   23816   23817   23818   23819   23820   23821   23822   23823   23824
   23825   23826   23827   23828   23812   23813   23813       0   23815   23816
   23816       0   23818   23819   23819       0   23821   23822   23822       0
   23824   23825   23825       0   23827   23828   23828       0   23830   23831
   23832   23833   23834   23835   23836   23837   23838   23839   23840   23831
   23832   23833   23834   23835   23836   23837   23838   23839   23840   23841
   23842   23843   23832   23833   23834   23835   23836   23833   23837   23838
   23839   23840   23841   23842   23844   23837   23838   23839   23840   23841
   23843   23844   23835   23836   23836       0   23838   23839   23841   23842
   23843   23844   23845   23846   23841   23842   23840   23841   23842   23843
   23844   23845   23846   23841   23843   23842   23843   23844   23845   23846
   23847   23848   23849   23850   23844   23844   23845   23846   23847   23848
   23849   23850   23851   23852   23853   23854   23855   23856   23857   23858
   23846   23847   23848   23849   23850   23851   23852   23853   23854   23859
   23860   23861   23847   23848   23849   23850   23855   23856   23857   23858
   23862   23863   23864   23848   23851   23852   23853   23854   23859   23860
   23865   23866   23867   23868   23851   23852   23853   23854   23859   23861
   23865   23850   23855   23856   23857   23858   23862   23863   23869   23855
   23856   23857   23858   23862   23864   23869   23852   23853   23859   23860
   23861   23865   23866   23867   23868   23870   23871   23872   23873   23874
   23875   23859   23860   23854   23859   23860   23861   23865   23866   23870
   23859   23861   23856   23857   23862   23863   23864   23869   23876   23862
   23863   23858   23862   23863   23864   23869   23876   23862   23864   23860
   23861   23865   23866   23867   23868   23870   23871   23877   23878   23865
   23866   23867   23868   23870   23871   23872   23873   23874   23875   23879
   23880   23881   23882   23883   23884   23885   23886   23865   23863   23864
   23869   23876   23887   23888   23889   23869   23869   23866   23867   23868
   23870   23871   23877   23878   23879   23880   23890   23867   23868   23870
   23871   23872   23873   23874   23875   23877   23878   23879   23880   23891
   23868   23871   23872   23873   23874   23875   23881   23882   23883   23886
   23892   23893   23894   23871   23872   23873   23874   23875   23883   23884
   23885   23886   23895   23896   23897   23876   23887   23888   23889   23871
   23877   23878   23879   23890   23891   23877   23879   23880   23890   23891
   23898   23899   23873   23875   23881   23882   23883   23892   23893   23900
   23901   23902   23874   23875   23881   23882   23883   23886   23893   23894
   23896   23897   23902   23875   23884   23885   23886   23895   23896   23903
   23904   23905   23883   23884   23885   23886   23893   23894   23896   23897
   23905   23887   23888   23889   23878   23879   23880   23890   23891   23898
   23899   23879   23890   23880   23890   23891   23898   23899   23906   23907
   23908   23909   23891   23882   23883   23892   23893   23894   23900   23901
   23902   23910   23911   23912   23913   23892   23893   23886   23892   23893
   23894   23902   23885   23895   23896   23886   23895   23896   23897   23903
   23904   23905   23914   23915   23916   23917   23895   23896   23897   23905
   23888   23889   23889       0   23891   23898   23899   23906   23907   23908
   23909   23918   23919   23920   23921   23922   23923   23924   23925   23893
   23900   23901   23902   23910   23911   23912   23913   23926   23927   23928
   23929   23930   23931   23932   23933   23894   23900   23901   23902   23902
   23896   23903   23904   23905   23914   23915   23916   23917   23934   23935
   23936   23937   23938   23939   23940   23941   23897   23903   23904   23905
   23905   23899   23906   23907   23908   23909   23918   23919   23920   23921
   23942   23943   23944   23906   23907   23908   23909   23922   23923   23924
   23925   23945   23946   23947   23901   23910   23911   23912   23913   23926
   23927   23928   23929   23948   23949   23950   23910   23911   23912   23913
   23930   23931   23932   23933   23951   23952   23953       0   23904   23914
   23915   23916   23917   23934   23935   23936   23937   23954   23955   23956
   23914   23915   23916   23917   23938   23939   23940   23941   23957   23958
   23959       0   23907   23918   23919   23920   23921   23942   23943   23960
   23918   23919   23920   23921   23942   23944   23960   23909   23922   23923
   23924   23925   23945   23946   23961   23922   23923   23924   23925   23945
   23947   23961   23911   23926   23927   23928   23929   23948   23949   23962
   23926   23927   23928   23929   23949   23950   23962   23913   23930   23931
   23932   23933   23951   23952   23963   23930   23931   23932   23933   23951
   23953   23963   23915   23934   23935   23936   23937   23954   23955   23964
   23934   23935   23936   23937   23954   23956   23964   23917   23938   23939
   23940   23941   23957   23958   23965   23938   23939   23940   23941   23957
   23959   23965   23919   23920   23942   23943   23944   23960   23966   23942
   23943   23921   23942   23943   23944   23960   23966   23942   23944   23923
   23945   23946   23925   23945   23946   23947   23961   23967   23925   23945
   23947   23945   23946   23947   23961   23967   23927   23928   23948   23949
   23950   23962   23968   23948   23949   23929   23948   23949   23950   23962
   23968   23949   23950   23931   23932   23951   23952   23953   23963   23969
   23951   23952   23933   23951   23952   23953   23963   23969   23951   23953
   23935   23936   23954   23955   23956   23964   23970   23954   23955   23937
   23954   23955   23956   23964   23970   23954   23956   23939   23940   23957
   23958   23959   23965   23971   23957   23958   23941   23957   23958   23959
   23965   23971   23957   23959   23943   23944   23960   23966   23972   23973
   23974   23960   23960   23946   23947   23961   23967   23975   23976   23977
   23961   23961   23949   23962   23950   23962   23968   23978   23979   23980
   23962   23952   23953   23963   23969   23981   23982   23983   23963   23963
   23955   23956   23964   23970   23984   23985   23986   23964   23964   23958
   23959   23965   23971   23987   23988   23989   23965   23965   23966   23972
   23973   23974   23967   23975   23976   23977   23968   23978   23979   23980
   23969   23981   23982   23983   23970   23984   23985   23986   23971   23987
   23988   23989   23972   23973   23974   23975   23976   23977   23978   23979
   23980   23981   23982   23983   23984   23985   23986   23987   23988   23989
   23973   23974   23974       0   23976   23977   23977       0   23979   23980
   23980       0   23982   23983   23983       0   23985   23986   23986       0
   23988   23989   23989       0   23991   23992   23993   23994   23995   23996
   23997   23998   23999   24000   24001   23992   23993   23994   23995   23996
   23997   23998   23999   24000   24001   24002   24003   24004   23993   23994
   23995   23996   23997   23994   23998   23999   24000   24001   24002   24003
   24005   23998   23999   24000   24001   24002   24004   24005   23996   23997
   23997       0   23999   24000   24002   24003   24004   24005   24006   24007
   24002   24003   24001   24002   24003   24004   24005   24006   24007   24002
   24004   24003   24004   24005   24006   24007   24008   24009   24010   24011
   24005   24005   24006   24007   24008   24009   24010   24011   24012   24013
   24014   24015   24016   24017   24018   24019   24007   24008   24009   24010
   24011   24012   24013   24014   24015   24020   24021   24022   24008   24009
   24010   24011   24016   24017   24018   24019   24023   24024   24025   24009
   24012   24013   24014   24015   24020   24021   24026   24027   24028   24029
   24012   24013   24014   24015   24020   24022   24026   24011   24016   24017
   24018   24019   24023   24024   24030   24016   24017   24018   24019   24023
   24025   24030   24013   24014   24020   24021   24022   24026   24027   24028
   24029   24031   24032   24033   24034   24035   24036   24020   24021   24015
   24020   24021   24022   24026   24027   24031   24020   24022   24017   24018
   24023   24024   24025   24030   24037   24023   24024   24019   24023   24024
   24025   24030   24037   24023   24025   24021   24022   24026   24027   24028
   24029   24031   24032   24038   24039   24026   24027   24028   24029   24031
   24032   24033   24034   24035   24036   24040   24041   24042   24043   24044
   24045   24046   24047   24026   24024   24025   24030   24037   24048   24049
   24050   24030   24030   24027   24028   24029   24031   24032   24038   24039
   24040   24041   24051   24028   24029   24031   24032   24033   24034   24035
   24036   24038   24039   24040   24041   24052   24029   24032   24033   24034
   24035   24036   24042   24043   24044   24047   24053   24054   24055   24032
   24033   24034   24035   24036   24044   24045   24046   24047   24056   24057
   24058   24037   24048   24049   24050   24032   24038   24039   24040   24051
   24052   24038   24040   24041   24051   24052   24059   24060   24034   24036
   24042   24043   24044   24053   24054   24061   24062   24063   24035   24036
   24042   24043   24044   24047   24054   24055   24057   24058   24063   24036
   24045   24046   24047   24056   24057   24064   24065   24066   24044   24045
   24046   24047   24054   24055   24057   24058   24066   24048   24049   24050
   24039   24040   24041   24051   24052   24059   24060   24040   24051   24041
   24051   24052   24059   24060   24067   24068   24069   24070   24052   24043
   24044   24053   24054   24055   24061   24062   24063   24071   24072   24073
   24074   24053   24054   24047   24053   24054   24055   24063   24046   24056
   24057   24047   24056   24057   24058   24064   24065   24066   24075   24076
   24077   24078   24056   24057   24058   24066   24049   24050   24050       0
   24052   24059   24060   24067   24068   24069   24070   24079   24080   24081
   24082   24083   24084   24085   24086   24054   24061   24062   24063   24071
   24072   24073   24074   24087   24088   24089   24090   24091   24092   24093
   24094   24055   24061   24062   24063   24063   24057   24064   24065   24066
   24075   24076   24077   24078   24095   24096   24097   24098   24099   24100
   24101   24102   24058   24064   24065   24066   24066   24060   24067   24068
   24069   24070   24079   24080   24081   24082   24103   24104   24105   24067
   24068   24069   24070   24083   24084   24085   24086   24106   24107   24108
   24062   24071   24072   24073   24074   24087   24088   24089   24090   24109
   24110   24111   24071   24072   24073   24074   24091   24092   24093   24094
   24112   24113   24114       0   24065   24075   24076   24077   24078   24095
   24096   24097   24098   24115   24116   24117   24075   24076   24077   24078
   24099   24100   24101   24102   24118   24119   24120       0   24068   24079
   24080   24081   24082   24103   24104   24121   24079   24080   24081   24082
   24103   24105   24121   24070   24083   24084   24085   24086   24106   24107
   24122   24083   24084   24085   24086   24106   24108   24122   24072   24087
   24088   24089   24090   24109   24110   24123   24087   24088   24089   24090
   24110   24111   24123   24074   24091   24092   24093   24094   24112   24113
   24124   24091   24092   24093   24094   24112   24114   24124   24076   24095
   24096   24097   24098   24115   24116   24125   24095   24096   24097   24098
   24115   24117   24125   24078   24099   24100   24101   24102   24118   24119
   24126   24099   24100   24101   24102   24118   24120   24126   24080   24081
   24103   24104   24105   24121   24127   24103   24104   24082   24103   24104
   24105   24121   24127   24103   24105   24084   24106   24107   24086   24106
   24107   24108   24122   24128   24086   24106   24108   24106   24107   24108
   24122   24128   24088   24089   24109   24110   24111   24123   24129   24109
   24110   24090   24109   24110   24111   24123   24129   24110   24111   24092
   24093   24112   24113   24114   24124   24130   24112   24113   24094   24112
   24113   24114   24124   24130   24112   24114   24096   24097   24115   24116
   24117   24125   24131   24115   24116   24098   24115   24116   24117   24125
   24131   24115   24117   24100   24101   24118   24119   24120   24126   24132
   24118   24119   24102   24118   24119   24120   24126   24132   24118   24120
   24104   24105   24121   24127   24133   24134   24135   24121   24121   24107
   24108   24122   24128   24136   24137   24138   24122   24122   24110   24123
   24111   24123   24129   24139   24140   24141   24123   24113   24114   24124
   24130   24142   24143   24144   24124   24124   24116   24117   24125   24131
   24145   24146   24147   24125   24125   24119   24120   24126   24132   24148
   24149   24150   24126   24126   24127   24133   24134   24135   24128   24136
   24137   24138   24129   24139   24140   24141   24130   24142   24143   24144
   24131   24145   24146   24147   24132   24148   24149   24150   24133   24134
   24135   24136   24137   24138   24139   24140   24141   24142   24143   24144
   24145   24146   24147   24148   24149   24150   24134   24135   24135       0
   24137   24138   24138       0   24140   24141   24141       0   24143   24144
   24144       0   24146   24147   24147       0   24149   24150   24150       0
%FLAG HBOND_ACOEF                                                               
%FORMAT(5E16.8)                                                                 

%FLAG HBOND_BCOEF                                                               
%FORMAT(5E16.8)                                                                 

%FLAG HBCUT                                                                     
%FORMAT(5E16.8)                                                                 

%FLAG AMBER_ATOM_TYPE                                                           
%FORMAT(20a4)                                                                   
os  ca  c3  ca  ca  h1  h1  h1  ca  ha  ca  ha  ca  ha  ha  nh  ca  ca  ca  ca  
ca  ca  ca  ha  ca  ha  ca  ha  ca  ha  cp  c5  ha  ca  ha  ha  cp  ca  ca  ca  
os  ca  ca  ca  cp  ca  cp  c3  ca  ha  ca  ha  ca  ha  ca  ha  ca  ca  h1  h1  
h1  ha  nh  nh  ca  ha  nh  ca  ha  ca  ca  ca  ca  ha  ca  ca  ha  ca  ca  ca  
ca  ca  ca  ca  ca  ca  ca  ca  ca  ca  ha  ca  ha  ha  ca  ha  ca  ca  ha  ca  
ha  ca  ha  ca  ha  ca  ha  ca  ha  ca  ha  ca  ha  ca  ha  ha  ca  ha  ha  ha  
ca  ha  ca  ha  ha  ca  ha  ha  ca  ha  ha  os  os  os  os  os  os  c3  c3  c3  
c3  c3  c3  h1  h1  h1  h1  h1  h1  h1  h1  h1  h1  h1  h1  h1  h1  h1  h1  h1  
h1  os  ca  c3  ca  ca  h1  h1  h1  ca  ha  ca  ha  ca  ha  ha  nh  ca  ca  ca  
ca  ca  ca  ca  ha  ca  ha  ca  ha  ca  ha  cp  c5  ha  ca  ha  ha  cp  ca  ca  
ca  os  ca  ca  ca  cp  ca  cp  c3  ca  ha  ca  ha  ca  ha  ca  ha  ca  ca  h1  
h1  h1  ha  nh  nh  ca  ha  nh  ca  ha  ca  ca  ca  ca  ha  ca  ca  ha  ca  ca  
ca  ca  ca  ca  ca  ca  ca  ca  ca  ca  ca  ha  ca  ha  ha  ca  ha  ca  ca  ha  
ca  ha  ca  ha  ca  ha  ca  ha  ca  ha  ca  ha  ca  ha  ca  ha  ha  ca  ha  ha  
ha  ca  ha  ca  ha  ha  ca  ha  ha  ca  ha  ha  os  os  os  os  os  os  c3  c3  
c3  c3  c3  c3  h1  h1  h1  h1  h1  h1  h1  h1  h1  h1  h1  h1  h1  h1  h1  h1  
h1  h1  os  ca  c3  ca  ca  h1  h1  h1  ca  ha  ca  ha  ca  ha  ha  nh  ca  ca  
ca  ca  ca  ca  ca  ha  ca  ha  ca  ha  ca  ha  cp  c5  ha  ca  ha  ha  cp  ca  
ca  ca  os  ca  ca  ca  cp  ca  cp  c3  ca  ha  ca  ha  ca  ha  ca  ha  ca  ca  
h1  h1  h1  ha  nh  nh  ca  ha  nh  ca  ha  ca  ca  ca  ca  ha  ca  ca  ha  ca  
ca  ca  ca  ca  ca  ca  ca  ca  ca  ca  ca  ca  ha  ca  ha  ha  ca  ha  ca  ca  
ha  ca  ha  ca  ha  ca  ha  ca  ha  ca  ha  ca  ha  ca  ha  ca  ha  ha  ca  ha  
ha  ha  ca  ha  ca  ha  ha  ca  ha  ha  ca  ha  ha  os  os  os  os  os  os  c3  
c3  c3  c3  c3  c3  h1  h1  h1  h1  h1  h1  h1  h1  h1  h1  h1  h1  h1  h1  h1  
h1  h1  h1  os  ca  c3  ca  ca  h1  h1  h1  ca  ha  ca  ha  ca  ha  ha  nh  ca  
ca  ca  ca  ca  ca  ca  ha  ca  ha  ca  ha  ca  ha  cp  c5  ha  ca  ha  ha  cp  
ca  ca  ca  os  ca  ca  ca  cp  ca  cp  c3  ca  ha  ca  ha  ca  ha  ca  ha  ca  
ca  h1  h1  h1  ha  nh  nh  ca  ha  nh  ca  ha  ca  ca  ca  ca  ha  ca  ca  ha  
ca  ca  ca  ca  ca  ca  ca  ca  ca  ca  ca  ca  ca  ha  ca  ha  ha  ca  ha  ca  
ca  ha  ca  ha  ca  ha  ca  ha  ca  ha  ca  ha  ca  ha  ca  ha  ca  ha  ha  ca  
ha  ha  ha  ca  ha  ca  ha  ha  ca  ha  ha  ca  ha  ha  os  os  os  os  os  os  
c3  c3  c3  c3  c3  c3  h1  h1  h1  h1  h1  h1  h1  h1  h1  h1  h1  h1  h1  h1  
h1  h1  h1  h1  os  ca  c3  ca  ca  h1  h1  h1  ca  ha  ca  ha  ca  ha  ha  nh  
ca  ca  ca  ca  ca  ca  ca  ha  ca  ha  ca  ha  ca  ha  cp  c5  ha  ca  ha  ha  
cp  ca  ca  ca  os  ca  ca  ca  cp  ca  cp  c3  ca  ha  ca  ha  ca  ha  ca  ha  
ca  ca  h1  h1  h1  ha  nh  nh  ca  ha  nh  ca  ha  ca  ca  ca  ca  ha  ca  ca  
ha  ca  ca  ca  ca  ca  ca  ca  ca  ca  ca  ca  ca  ca  ha  ca  ha  ha  ca  ha  
ca  ca  ha  ca  ha  ca  ha  ca  ha  ca  ha  ca  ha  ca  ha  ca  ha  ca  ha  ha  
ca  ha  ha  ha  ca  ha  ca  ha  ha  ca  ha  ha  ca  ha  ha  os  os  os  os  os  
os  c3  c3  c3  c3  c3  c3  h1  h1  h1  h1  h1  h1  h1  h1  h1  h1  h1  h1  h1  
h1  h1  h1  h1  h1  os  ca  c3  ca  ca  h1  h1  h1  ca  ha  ca  ha  ca  ha  ha  
nh  ca  ca  ca  ca  ca  ca  ca  ha  ca  ha  ca  ha  ca  ha  cp  c5  ha  ca  ha  
ha  cp  ca  ca  ca  os  ca  ca  ca  cp  ca  cp  c3  ca  ha  ca  ha  ca  ha  ca  
ha  ca  ca  h1  h1  h1  ha  nh  nh  ca  ha  nh  ca  ha  ca  ca  ca  ca  ha  ca  
ca  ha  ca  ca  ca  ca  ca  ca  ca  ca  ca  ca  ca  ca  ca  ha  ca  ha  ha  ca  
ha  ca  ca  ha  ca  ha  ca  ha  ca  ha  ca  ha  ca  ha  ca  ha  ca  ha  ca  ha  
ha  ca  ha  ha  ha  ca  ha  ca  ha  ha  ca  ha  ha  ca  ha  ha  os  os  os  os  
os  os  c3  c3  c3  c3  c3  c3  h1  h1  h1  h1  h1  h1  h1  h1  h1  h1  h1  h1  
h1  h1  h1  h1  h1  h1  os  ca  c3  ca  ca  h1  h1  h1  ca  ha  ca  ha  ca  ha  
ha  nh  ca  ca  ca  ca  ca  ca  ca  ha  ca  ha  ca  ha  ca  ha  cp  c5  ha  ca  
ha  ha  cp  ca  ca  ca  os  ca  ca  ca  cp  ca  cp  c3  ca  ha  ca  ha  ca  ha  
ca  ha  ca  ca  h1  h1  h1  ha  nh  nh  ca  ha  nh  ca  ha  ca  ca  ca  ca  ha  
ca  ca  ha  ca  ca  ca  ca  ca  ca  ca  ca  ca  ca  ca  ca  ca  ha  ca  ha  ha  
ca  ha  ca  ca  ha  ca  ha  ca  ha  ca  ha  ca  ha  ca  ha  ca  ha  ca  ha  ca  
ha  ha  ca  ha  ha  ha  ca  ha  ca  ha  ha  ca  ha  ha  ca  ha  ha  os  os  os  
os  os  os  c3  c3  c3  c3  c3  c3  h1  h1  h1  h1  h1  h1  h1  h1  h1  h1  h1  
h1  h1  h1  h1  h1  h1  h1  os  ca  c3  ca  ca  h1  h1  h1  ca  ha  ca  ha  ca  
ha  ha  nh  ca  ca  ca  ca  ca  ca  ca  ha  ca  ha  ca  ha  ca  ha  cp  c5  ha  
ca  ha  ha  cp  ca  ca  ca  os  ca  ca  ca  cp  ca  cp  c3  ca  ha  ca  ha  ca  
ha  ca  ha  ca  ca  h1  h1  h1  ha  nh  nh  ca  ha  nh  ca  ha  ca  ca  ca  ca  
ha  ca  ca  ha  ca  ca  ca  ca  ca  ca  ca  ca  ca  ca  ca  ca  ca  ha  ca  ha  
ha  ca  ha  ca  ca  ha  ca  ha  ca  ha  ca  ha  ca  ha  ca  ha  ca  ha  ca  ha  
ca  ha  ha  ca  ha  ha  ha  ca  ha  ca  ha  ha  ca  ha  ha  ca  ha  ha  os  os  
os  os  os  os  c3  c3  c3  c3  c3  c3  h1  h1  h1  h1  h1  h1  h1  h1  h1  h1  
h1  h1  h1  h1  h1  h1  h1  h1  os  ca  c3  ca  ca  h1  h1  h1  ca  ha  ca  ha  
ca  ha  ha  nh  ca  ca  ca  ca  ca  ca  ca  ha  ca  ha  ca  ha  ca  ha  cp  c5  
ha  ca  ha  ha  cp  ca  ca  ca  os  ca  ca  ca  cp  ca  cp  c3  ca  ha  ca  ha  
ca  ha  ca  ha  ca  ca  h1  h1  h1  ha  nh  nh  ca  ha  nh  ca  ha  ca  ca  ca  
ca  ha  ca  ca  ha  ca  ca  ca  ca  ca  ca  ca  ca  ca  ca  ca  ca  ca  ha  ca  
ha  ha  ca  ha  ca  ca  ha  ca  ha  ca  ha  ca  ha  ca  ha  ca  ha  ca  ha  ca  
ha  ca  ha  ha  ca  ha  ha  ha  ca  ha  ca  ha  ha  ca  ha  ha  ca  ha  ha  os  
os  os  os  os  os  c3  c3  c3  c3  c3  c3  h1  h1  h1  h1  h1  h1  h1  h1  h1  
h1  h1  h1  h1  h1  h1  h1  h1  h1  os  ca  c3  ca  ca  h1  h1  h1  ca  ha  ca  
ha  ca  ha  ha  nh  ca  ca  ca  ca  ca  ca  ca  ha  ca  ha  ca  ha  ca  ha  cp  
c5  ha  ca  ha  ha  cp  ca  ca  ca  os  ca  ca  ca  cp  ca  cp  c3  ca  ha  ca  
ha  ca  ha  ca  ha  ca  ca  h1  h1  h1  ha  nh  nh  ca  ha  nh  ca  ha  ca  ca  
ca  ca  ha  ca  ca  ha  ca  ca  ca  ca  ca  ca  ca  ca  ca  ca  ca  ca  ca  ha  
ca  ha  ha  ca  ha  ca  ca  ha  ca  ha  ca  ha  ca  ha  ca  ha  ca  ha  ca  ha  
ca  ha  ca  ha  ha  ca  ha  ha  ha  ca  ha  ca  ha  ha  ca  ha  ha  ca  ha  ha  
os  os  os  os  os  os  c3  c3  c3  c3  c3  c3  h1  h1  h1  h1  h1  h1  h1  h1  
h1  h1  h1  h1  h1  h1  h1  h1  h1  h1  os  ca  c3  ca  ca  h1  h1  h1  ca  ha  
ca  ha  ca  ha  ha  nh  ca  ca  ca  ca  ca  ca  ca  ha  ca  ha  ca  ha  ca  ha  
cp  c5  ha  ca  ha  ha  cp  ca  ca  ca  os  ca  ca  ca  cp  ca  cp  c3  ca  ha  
ca  ha  ca  ha  ca  ha  ca  ca  h1  h1  h1  ha  nh  nh  ca  ha  nh  ca  ha  ca  
ca  ca  ca  ha  ca  ca  ha  ca  ca  ca  ca  ca  ca  ca  ca  ca  ca  ca  ca  ca  
ha  ca  ha  ha  ca  ha  ca  ca  ha  ca  ha  ca  ha  ca  ha  ca  ha  ca  ha  ca  
ha  ca  ha  ca  ha  ha  ca  ha  ha  ha  ca  ha  ca  ha  ha  ca  ha  ha  ca  ha  
ha  os  os  os  os  os  os  c3  c3  c3  c3  c3  c3  h1  h1  h1  h1  h1  h1  h1  
h1  h1  h1  h1  h1  h1  h1  h1  h1  h1  h1  os  ca  c3  ca  ca  h1  h1  h1  ca  
ha  ca  ha  ca  ha  ha  nh  ca  ca  ca  ca  ca  ca  ca  ha  ca  ha  ca  ha  ca  
ha  cp  c5  ha  ca  ha  ha  cp  ca  ca  ca  os  ca  ca  ca  cp  ca  cp  c3  ca  
ha  ca  ha  ca  ha  ca  ha  ca  ca  h1  h1  h1  ha  nh  nh  ca  ha  nh  ca  ha  
ca  ca  ca  ca  ha  ca  ca  ha  ca  ca  ca  ca  ca  ca  ca  ca  ca  ca  ca  ca  
ca  ha  ca  ha  ha  ca  ha  ca  ca  ha  ca  ha  ca  ha  ca  ha  ca  ha  ca  ha  
ca  ha  ca  ha  ca  ha  ha  ca  ha  ha  ha  ca  ha  ca  ha  ha  ca  ha  ha  ca  
ha  ha  os  os  os  os  os  os  c3  c3  c3  c3  c3  c3  h1  h1  h1  h1  h1  h1  
h1  h1  h1  h1  h1  h1  h1  h1  h1  h1  h1  h1  os  ca  c3  ca  ca  h1  h1  h1  
ca  ha  ca  ha  ca  ha  ha  nh  ca  ca  ca  ca  ca  ca  ca  ha  ca  ha  ca  ha  
ca  ha  cp  c5  ha  ca  ha  ha  cp  ca  ca  ca  os  ca  ca  ca  cp  ca  cp  c3  
ca  ha  ca  ha  ca  ha  ca  ha  ca  ca  h1  h1  h1  ha  nh  nh  ca  ha  nh  ca  
ha  ca  ca  ca  ca  ha  ca  ca  ha  ca  ca  ca  ca  ca  ca  ca  ca  ca  ca  ca  
ca  ca  ha  ca  ha  ha  ca  ha  ca  ca  ha  ca  ha  ca  ha  ca  ha  ca  ha  ca  
ha  ca  ha  ca  ha  ca  ha  ha  ca  ha  ha  ha  ca  ha  ca  ha  ha  ca  ha  ha  
ca  ha  ha  os  os  os  os  os  os  c3  c3  c3  c3  c3  c3  h1  h1  h1  h1  h1  
h1  h1  h1  h1  h1  h1  h1  h1  h1  h1  h1  h1  h1  os  ca  c3  ca  ca  h1  h1  
h1  ca  ha  ca  ha  ca  ha  ha  nh  ca  ca  ca  ca  ca  ca  ca  ha  ca  ha  ca  
ha  ca  ha  cp  c5  ha  ca  ha  ha  cp  ca  ca  ca  os  ca  ca  ca  cp  ca  cp  
c3  ca  ha  ca  ha  ca  ha  ca  ha  ca  ca  h1  h1  h1  ha  nh  nh  ca  ha  nh  
ca  ha  ca  ca  ca  ca  ha  ca  ca  ha  ca  ca  ca  ca  ca  ca  ca  ca  ca  ca  
ca  ca  ca  ha  ca  ha  ha  ca  ha  ca  ca  ha  ca  ha  ca  ha  ca  ha  ca  ha  
ca  ha  ca  ha  ca  ha  ca  ha  ha  ca  ha  ha  ha  ca  ha  ca  ha  ha  ca  ha  
ha  ca  ha  ha  os  os  os  os  os  os  c3  c3  c3  c3  c3  c3  h1  h1  h1  h1  
h1  h1  h1  h1  h1  h1  h1  h1  h1  h1  h1  h1  h1  h1  os  ca  c3  ca  ca  h1  
h1  h1  ca  ha  ca  ha  ca  ha  ha  nh  ca  ca  ca  ca  ca  ca  ca  ha  ca  ha  
ca  ha  ca  ha  cp  c5  ha  ca  ha  ha  cp  ca  ca  ca  os  ca  ca  ca  cp  ca  
cp  c3  ca  ha  ca  ha  ca  ha  ca  ha  ca  ca  h1  h1  h1  ha  nh  nh  ca  ha  
nh  ca  ha  ca  ca  ca  ca  ha  ca  ca  ha  ca  ca  ca  ca  ca  ca  ca  ca  ca  
ca  ca  ca  ca  ha  ca  ha  ha  ca  ha  ca  ca  ha  ca  ha  ca  ha  ca  ha  ca  
ha  ca  ha  ca  ha  ca  ha  ca  ha  ha  ca  ha  ha  ha  ca  ha  ca  ha  ha  ca  
ha  ha  ca  ha  ha  os  os  os  os  os  os  c3  c3  c3  c3  c3  c3  h1  h1  h1  
h1  h1  h1  h1  h1  h1  h1  h1  h1  h1  h1  h1  h1  h1  h1  os  ca  c3  ca  ca  
h1  h1  h1  ca  ha  ca  ha  ca  ha  ha  nh  ca  ca  ca  ca  ca  ca  ca  ha  ca  
ha  ca  ha  ca  ha  cp  c5  ha  ca  ha  ha  cp  ca  ca  ca  os  ca  ca  ca  cp  
ca  cp  c3  ca  ha  ca  ha  ca  ha  ca  ha  ca  ca  h1  h1  h1  ha  nh  nh  ca  
ha  nh  ca  ha  ca  ca  ca  ca  ha  ca  ca  ha  ca  ca  ca  ca  ca  ca  ca  ca  
ca  ca  ca  ca  ca  ha  ca  ha  ha  ca  ha  ca  ca  ha  ca  ha  ca  ha  ca  ha  
ca  ha  ca  ha  ca  ha  ca  ha  ca  ha  ha  ca  ha  ha  ha  ca  ha  ca  ha  ha  
ca  ha  ha  ca  ha  ha  os  os  os  os  os  os  c3  c3  c3  c3  c3  c3  h1  h1  
h1  h1  h1  h1  h1  h1  h1  h1  h1  h1  h1  h1  h1  h1  h1  h1  os  ca  c3  ca  
ca  h1  h1  h1  ca  ha  ca  ha  ca  ha  ha  nh  ca  ca  ca  ca  ca  ca  ca  ha  
ca  ha  ca  ha  ca  ha  cp  c5  ha  ca  ha  ha  cp  ca  ca  ca  os  ca  ca  ca  
cp  ca  cp  c3  ca  ha  ca  ha  ca  ha  ca  ha  ca  ca  h1  h1  h1  ha  nh  nh  
ca  ha  nh  ca  ha  ca  ca  ca  ca  ha  ca  ca  ha  ca  ca  ca  ca  ca  ca  ca  
ca  ca  ca  ca  ca  ca  ha  ca  ha  ha  ca  ha  ca  ca  ha  ca  ha  ca  ha  ca  
ha  ca  ha  ca  ha  ca  ha  ca  ha  ca  ha  ha  ca  ha  ha  ha  ca  ha  ca  ha  
ha  ca  ha  ha  ca  ha  ha  os  os  os  os  os  os  c3  c3  c3  c3  c3  c3  h1  
h1  h1  h1  h1  h1  h1  h1  h1  h1  h1  h1  h1  h1  h1  h1  h1  h1  os  ca  c3  
ca  ca  h1  h1  h1  ca  ha  ca  ha  ca  ha  ha  nh  ca  ca  ca  ca  ca  ca  ca  
ha  ca  ha  ca  ha  ca  ha  cp  c5  ha  ca  ha  ha  cp  ca  ca  ca  os  ca  ca  
ca  cp  ca  cp  c3  ca  ha  ca  ha  ca  ha  ca  ha  ca  ca  h1  h1  h1  ha  nh  
nh  ca  ha  nh  ca  ha  ca  ca  ca  ca  ha  ca  ca  ha  ca  ca  ca  ca  ca  ca  
ca  ca  ca  ca  ca  ca  ca  ha  ca  ha  ha  ca  ha  ca  ca  ha  ca  ha  ca  ha  
ca  ha  ca  ha  ca  ha  ca  ha  ca  ha  ca  ha  ha  ca  ha  ha  ha  ca  ha  ca  
ha  ha  ca  ha  ha  ca  ha  ha  os  os  os  os  os  os  c3  c3  c3  c3  c3  c3  
h1  h1  h1  h1  h1  h1  h1  h1  h1  h1  h1  h1  h1  h1  h1  h1  h1  h1  os  ca  
c3  ca  ca  h1  h1  h1  ca  ha  ca  ha  ca  ha  ha  nh  ca  ca  ca  ca  ca  ca  
ca  ha  ca  ha  ca  ha  ca  ha  cp  c5  ha  ca  ha  ha  cp  ca  ca  ca  os  ca  
ca  ca  cp  ca  cp  c3  ca  ha  ca  ha  ca  ha  ca  ha  ca  ca  h1  h1  h1  ha  
nh  nh  ca  ha  nh  ca  ha  ca  ca  ca  ca  ha  ca  ca  ha  ca  ca  ca  ca  ca  
ca  ca  ca  ca  ca  ca  ca  ca  ha  ca  ha  ha  ca  ha  ca  ca  ha  ca  ha  ca  
ha  ca  ha  ca  ha  ca  ha  ca  ha  ca  ha  ca  ha  ha  ca  ha  ha  ha  ca  ha  
ca  ha  ha  ca  ha  ha  ca  ha  ha  os  os  os  os  os  os  c3  c3  c3  c3  c3  
c3  h1  h1  h1  h1  h1  h1  h1  h1  h1  h1  h1  h1  h1  h1  h1  h1  h1  h1  os  
ca  c3  ca  ca  h1  h1  h1  ca  ha  ca  ha  ca  ha  ha  nh  ca  ca  ca  ca  ca  
ca  ca  ha  ca  ha  ca  ha  ca  ha  cp  c5  ha  ca  ha  ha  cp  ca  ca  ca  os  
ca  ca  ca  cp  ca  cp  c3  ca  ha  ca  ha  ca  ha  ca  ha  ca  ca  h1  h1  h1  
ha  nh  nh  ca  ha  nh  ca  ha  ca  ca  ca  ca  ha  ca  ca  ha  ca  ca  ca  ca  
ca  ca  ca  ca  ca  ca  ca  ca  ca  ha  ca  ha  ha  ca  ha  ca  ca  ha  ca  ha  
ca  ha  ca  ha  ca  ha  ca  ha  ca  ha  ca  ha  ca  ha  ha  ca  ha  ha  ha  ca  
ha  ca  ha  ha  ca  ha  ha  ca  ha  ha  os  os  os  os  os  os  c3  c3  c3  c3  
c3  c3  h1  h1  h1  h1  h1  h1  h1  h1  h1  h1  h1  h1  h1  h1  h1  h1  h1  h1  
os  ca  c3  ca  ca  h1  h1  h1  ca  ha  ca  ha  ca  ha  ha  nh  ca  ca  ca  ca  
ca  ca  ca  ha  ca  ha  ca  ha  ca  ha  cp  c5  ha  ca  ha  ha  cp  ca  ca  ca  
os  ca  ca  ca  cp  ca  cp  c3  ca  ha  ca  ha  ca  ha  ca  ha  ca  ca  h1  h1  
h1  ha  nh  nh  ca  ha  nh  ca  ha  ca  ca  ca  ca  ha  ca  ca  ha  ca  ca  ca  
ca  ca  ca  ca  ca  ca  ca  ca  ca  ca  ha  ca  ha  ha  ca  ha  ca  ca  ha  ca  
ha  ca  ha  ca  ha  ca  ha  ca  ha  ca  ha  ca  ha  ca  ha  ha  ca  ha  ha  ha  
ca  ha  ca  ha  ha  ca  ha  ha  ca  ha  ha  os  os  os  os  os  os  c3  c3  c3  
c3  c3  c3  h1  h1  h1  h1  h1  h1  h1  h1  h1  h1  h1  h1  h1  h1  h1  h1  h1  
h1  os  ca  c3  ca  ca  h1  h1  h1  ca  ha  ca  ha  ca  ha  ha  nh  ca  ca  ca  
ca  ca  ca  ca  ha  ca  ha  ca  ha  ca  ha  cp  c5  ha  ca  ha  ha  cp  ca  ca  
ca  os  ca  ca  ca  cp  ca  cp  c3  ca  ha  ca  ha  ca  ha  ca  ha  ca  ca  h1  
h1  h1  ha  nh  nh  ca  ha  nh  ca  ha  ca  ca  ca  ca  ha  ca  ca  ha  ca  ca  
ca  ca  ca  ca  ca  ca  ca  ca  ca  ca  ca  ha  ca  ha  ha  ca  ha  ca  ca  ha  
ca  ha  ca  ha  ca  ha  ca  ha  ca  ha  ca  ha  ca  ha  ca  ha  ha  ca  ha  ha  
ha  ca  ha  ca  ha  ha  ca  ha  ha  ca  ha  ha  os  os  os  os  os  os  c3  c3  
c3  c3  c3  c3  h1  h1  h1  h1  h1  h1  h1  h1  h1  h1  h1  h1  h1  h1  h1  h1  
h1  h1  os  ca  c3  ca  ca  h1  h1  h1  ca  ha  ca  ha  ca  ha  ha  nh  ca  ca  
ca  ca  ca  ca  ca  ha  ca  ha  ca  ha  ca  ha  cp  c5  ha  ca  ha  ha  cp  ca  
ca  ca  os  ca  ca  ca  cp  ca  cp  c3  ca  ha  ca  ha  ca  ha  ca  ha  ca  ca  
h1  h1  h1  ha  nh  nh  ca  ha  nh  ca  ha  ca  ca  ca  ca  ha  ca  ca  ha  ca  
ca  ca  ca  ca  ca  ca  ca  ca  ca  ca  ca  ca  ha  ca  ha  ha  ca  ha  ca  ca  
ha  ca  ha  ca  ha  ca  ha  ca  ha  ca  ha  ca  ha  ca  ha  ca  ha  ha  ca  ha  
ha  ha  ca  ha  ca  ha  ha  ca  ha  ha  ca  ha  ha  os  os  os  os  os  os  c3  
c3  c3  c3  c3  c3  h1  h1  h1  h1  h1  h1  h1  h1  h1  h1  h1  h1  h1  h1  h1  
h1  h1  h1  os  ca  c3  ca  ca  h1  h1  h1  ca  ha  ca  ha  ca  ha  ha  nh  ca  
ca  ca  ca  ca  ca  ca  ha  ca  ha  ca  ha  ca  ha  cp  c5  ha  ca  ha  ha  cp  
ca  ca  ca  os  ca  ca  ca  cp  ca  cp  c3  ca  ha  ca  ha  ca  ha  ca  ha  ca  
ca  h1  h1  h1  ha  nh  nh  ca  ha  nh  ca  ha  ca  ca  ca  ca  ha  ca  ca  ha  
ca  ca  ca  ca  ca  ca  ca  ca  ca  ca  ca  ca  ca  ha  ca  ha  ha  ca  ha  ca  
ca  ha  ca  ha  ca  ha  ca  ha  ca  ha  ca  ha  ca  ha  ca  ha  ca  ha  ha  ca  
ha  ha  ha  ca  ha  ca  ha  ha  ca  ha  ha  ca  ha  ha  os  os  os  os  os  os  
c3  c3  c3  c3  c3  c3  h1  h1  h1  h1  h1  h1  h1  h1  h1  h1  h1  h1  h1  h1  
h1  h1  h1  h1  os  ca  c3  ca  ca  h1  h1  h1  ca  ha  ca  ha  ca  ha  ha  nh  
ca  ca  ca  ca  ca  ca  ca  ha  ca  ha  ca  ha  ca  ha  cp  c5  ha  ca  ha  ha  
cp  ca  ca  ca  os  ca  ca  ca  cp  ca  cp  c3  ca  ha  ca  ha  ca  ha  ca  ha  
ca  ca  h1  h1  h1  ha  nh  nh  ca  ha  nh  ca  ha  ca  ca  ca  ca  ha  ca  ca  
ha  ca  ca  ca  ca  ca  ca  ca  ca  ca  ca  ca  ca  ca  ha  ca  ha  ha  ca  ha  
ca  ca  ha  ca  ha  ca  ha  ca  ha  ca  ha  ca  ha  ca  ha  ca  ha  ca  ha  ha  
ca  ha  ha  ha  ca  ha  ca  ha  ha  ca  ha  ha  ca  ha  ha  os  os  os  os  os  
os  c3  c3  c3  c3  c3  c3  h1  h1  h1  h1  h1  h1  h1  h1  h1  h1  h1  h1  h1  
h1  h1  h1  h1  h1  os  ca  c3  ca  ca  h1  h1  h1  ca  ha  ca  ha  ca  ha  ha  
nh  ca  ca  ca  ca  ca  ca  ca  ha  ca  ha  ca  ha  ca  ha  cp  c5  ha  ca  ha  
ha  cp  ca  ca  ca  os  ca  ca  ca  cp  ca  cp  c3  ca  ha  ca  ha  ca  ha  ca  
ha  ca  ca  h1  h1  h1  ha  nh  nh  ca  ha  nh  ca  ha  ca  ca  ca  ca  ha  ca  
ca  ha  ca  ca  ca  ca  ca  ca  ca  ca  ca  ca  ca  ca  ca  ha  ca  ha  ha  ca  
ha  ca  ca  ha  ca  ha  ca  ha  ca  ha  ca  ha  ca  ha  ca  ha  ca  ha  ca  ha  
ha  ca  ha  ha  ha  ca  ha  ca  ha  ha  ca  ha  ha  ca  ha  ha  os  os  os  os  
os  os  c3  c3  c3  c3  c3  c3  h1  h1  h1  h1  h1  h1  h1  h1  h1  h1  h1  h1  
h1  h1  h1  h1  h1  h1  os  ca  c3  ca  ca  h1  h1  h1  ca  ha  ca  ha  ca  ha  
ha  nh  ca  ca  ca  ca  ca  ca  ca  ha  ca  ha  ca  ha  ca  ha  cp  c5  ha  ca  
ha  ha  cp  ca  ca  ca  os  ca  ca  ca  cp  ca  cp  c3  ca  ha  ca  ha  ca  ha  
ca  ha  ca  ca  h1  h1  h1  ha  nh  nh  ca  ha  nh  ca  ha  ca  ca  ca  ca  ha  
ca  ca  ha  ca  ca  ca  ca  ca  ca  ca  ca  ca  ca  ca  ca  ca  ha  ca  ha  ha  
ca  ha  ca  ca  ha  ca  ha  ca  ha  ca  ha  ca  ha  ca  ha  ca  ha  ca  ha  ca  
ha  ha  ca  ha  ha  ha  ca  ha  ca  ha  ha  ca  ha  ha  ca  ha  ha  os  os  os  
os  os  os  c3  c3  c3  c3  c3  c3  h1  h1  h1  h1  h1  h1  h1  h1  h1  h1  h1  
h1  h1  h1  h1  h1  h1  h1  os  ca  c3  ca  ca  h1  h1  h1  ca  ha  ca  ha  ca  
ha  ha  nh  ca  ca  ca  ca  ca  ca  ca  ha  ca  ha  ca  ha  ca  ha  cp  c5  ha  
ca  ha  ha  cp  ca  ca  ca  os  ca  ca  ca  cp  ca  cp  c3  ca  ha  ca  ha  ca  
ha  ca  ha  ca  ca  h1  h1  h1  ha  nh  nh  ca  ha  nh  ca  ha  ca  ca  ca  ca  
ha  ca  ca  ha  ca  ca  ca  ca  ca  ca  ca  ca  ca  ca  ca  ca  ca  ha  ca  ha  
ha  ca  ha  ca  ca  ha  ca  ha  ca  ha  ca  ha  ca  ha  ca  ha  ca  ha  ca  ha  
ca  ha  ha  ca  ha  ha  ha  ca  ha  ca  ha  ha  ca  ha  ha  ca  ha  ha  os  os  
os  os  os  os  c3  c3  c3  c3  c3  c3  h1  h1  h1  h1  h1  h1  h1  h1  h1  h1  
h1  h1  h1  h1  h1  h1  h1  h1  os  ca  c3  ca  ca  h1  h1  h1  ca  ha  ca  ha  
ca  ha  ha  nh  ca  ca  ca  ca  ca  ca  ca  ha  ca  ha  ca  ha  ca  ha  cp  c5  
ha  ca  ha  ha  cp  ca  ca  ca  os  ca  ca  ca  cp  ca  cp  c3  ca  ha  ca  ha  
ca  ha  ca  ha  ca  ca  h1  h1  h1  ha  nh  nh  ca  ha  nh  ca  ha  ca  ca  ca  
ca  ha  ca  ca  ha  ca  ca  ca  ca  ca  ca  ca  ca  ca  ca  ca  ca  ca  ha  ca  
ha  ha  ca  ha  ca  ca  ha  ca  ha  ca  ha  ca  ha  ca  ha  ca  ha  ca  ha  ca  
ha  ca  ha  ha  ca  ha  ha  ha  ca  ha  ca  ha  ha  ca  ha  ha  ca  ha  ha  os  
os  os  os  os  os  c3  c3  c3  c3  c3  c3  h1  h1  h1  h1  h1  h1  h1  h1  h1  
h1  h1  h1  h1  h1  h1  h1  h1  h1  os  ca  c3  ca  ca  h1  h1  h1  ca  ha  ca  
ha  ca  ha  ha  nh  ca  ca  ca  ca  ca  ca  ca  ha  ca  ha  ca  ha  ca  ha  cp  
c5  ha  ca  ha  ha  cp  ca  ca  ca  os  ca  ca  ca  cp  ca  cp  c3  ca  ha  ca  
ha  ca  ha  ca  ha  ca  ca  h1  h1  h1  ha  nh  nh  ca  ha  nh  ca  ha  ca  ca  
ca  ca  ha  ca  ca  ha  ca  ca  ca  ca  ca  ca  ca  ca  ca  ca  ca  ca  ca  ha  
ca  ha  ha  ca  ha  ca  ca  ha  ca  ha  ca  ha  ca  ha  ca  ha  ca  ha  ca  ha  
ca  ha  ca  ha  ha  ca  ha  ha  ha  ca  ha  ca  ha  ha  ca  ha  ha  ca  ha  ha  
os  os  os  os  os  os  c3  c3  c3  c3  c3  c3  h1  h1  h1  h1  h1  h1  h1  h1  
h1  h1  h1  h1  h1  h1  h1  h1  h1  h1  os  ca  c3  ca  ca  h1  h1  h1  ca  ha  
ca  ha  ca  ha  ha  nh  ca  ca  ca  ca  ca  ca  ca  ha  ca  ha  ca  ha  ca  ha  
cp  c5  ha  ca  ha  ha  cp  ca  ca  ca  os  ca  ca  ca  cp  ca  cp  c3  ca  ha  
ca  ha  ca  ha  ca  ha  ca  ca  h1  h1  h1  ha  nh  nh  ca  ha  nh  ca  ha  ca  
ca  ca  ca  ha  ca  ca  ha  ca  ca  ca  ca  ca  ca  ca  ca  ca  ca  ca  ca  ca  
ha  ca  ha  ha  ca  ha  ca  ca  ha  ca  ha  ca  ha  ca  ha  ca  ha  ca  ha  ca  
ha  ca  ha  ca  ha  ha  ca  ha  ha  ha  ca  ha  ca  ha  ha  ca  ha  ha  ca  ha  
ha  os  os  os  os  os  os  c3  c3  c3  c3  c3  c3  h1  h1  h1  h1  h1  h1  h1  
h1  h1  h1  h1  h1  h1  h1  h1  h1  h1  h1  os  ca  c3  ca  ca  h1  h1  h1  ca  
ha  ca  ha  ca  ha  ha  nh  ca  ca  ca  ca  ca  ca  ca  ha  ca  ha  ca  ha  ca  
ha  cp  c5  ha  ca  ha  ha  cp  ca  ca  ca  os  ca  ca  ca  cp  ca  cp  c3  ca  
ha  ca  ha  ca  ha  ca  ha  ca  ca  h1  h1  h1  ha  nh  nh  ca  ha  nh  ca  ha  
ca  ca  ca  ca  ha  ca  ca  ha  ca  ca  ca  ca  ca  ca  ca  ca  ca  ca  ca  ca  
ca  ha  ca  ha  ha  ca  ha  ca  ca  ha  ca  ha  ca  ha  ca  ha  ca  ha  ca  ha  
ca  ha  ca  ha  ca  ha  ha  ca  ha  ha  ha  ca  ha  ca  ha  ha  ca  ha  ha  ca  
ha  ha  os  os  os  os  os  os  c3  c3  c3  c3  c3  c3  h1  h1  h1  h1  h1  h1  
h1  h1  h1  h1  h1  h1  h1  h1  h1  h1  h1  h1  os  ca  c3  ca  ca  h1  h1  h1  
ca  ha  ca  ha  ca  ha  ha  nh  ca  ca  ca  ca  ca  ca  ca  ha  ca  ha  ca  ha  
ca  ha  cp  c5  ha  ca  ha  ha  cp  ca  ca  ca  os  ca  ca  ca  cp  ca  cp  c3  
ca  ha  ca  ha  ca  ha  ca  ha  ca  ca  h1  h1  h1  ha  nh  nh  ca  ha  nh  ca  
ha  ca  ca  ca  ca  ha  ca  ca  ha  ca  ca  ca  ca  ca  ca  ca  ca  ca  ca  ca  
ca  ca  ha  ca  ha  ha  ca  ha  ca  ca  ha  ca  ha  ca  ha  ca  ha  ca  ha  ca  
ha  ca  ha  ca  ha  ca  ha  ha  ca  ha  ha  ha  ca  ha  ca  ha  ha  ca  ha  ha  
ca  ha  ha  os  os  os  os  os  os  c3  c3  c3  c3  c3  c3  h1  h1  h1  h1  h1  
h1  h1  h1  h1  h1  h1  h1  h1  h1  h1  h1  h1  h1  os  ca  c3  ca  ca  h1  h1  
h1  ca  ha  ca  ha  ca  ha  ha  nh  ca  ca  ca  ca  ca  ca  ca  ha  ca  ha  ca  
ha  ca  ha  cp  c5  ha  ca  ha  ha  cp  ca  ca  ca  os  ca  ca  ca  cp  ca  cp  
c3  ca  ha  ca  ha  ca  ha  ca  ha  ca  ca  h1  h1  h1  ha  nh  nh  ca  ha  nh  
ca  ha  ca  ca  ca  ca  ha  ca  ca  ha  ca  ca  ca  ca  ca  ca  ca  ca  ca  ca  
ca  ca  ca  ha  ca  ha  ha  ca  ha  ca  ca  ha  ca  ha  ca  ha  ca  ha  ca  ha  
ca  ha  ca  ha  ca  ha  ca  ha  ha  ca  ha  ha  ha  ca  ha  ca  ha  ha  ca  ha  
ha  ca  ha  ha  os  os  os  os  os  os  c3  c3  c3  c3  c3  c3  h1  h1  h1  h1  
h1  h1  h1  h1  h1  h1  h1  h1  h1  h1  h1  h1  h1  h1  os  ca  c3  ca  ca  h1  
h1  h1  ca  ha  ca  ha  ca  ha  ha  nh  ca  ca  ca  ca  ca  ca  ca  ha  ca  ha  
ca  ha  ca  ha  cp  c5  ha  ca  ha  ha  cp  ca  ca  ca  os  ca  ca  ca  cp  ca  
cp  c3  ca  ha  ca  ha  ca  ha  ca  ha  ca  ca  h1  h1  h1  ha  nh  nh  ca  ha  
nh  ca  ha  ca  ca  ca  ca  ha  ca  ca  ha  ca  ca  ca  ca  ca  ca  ca  ca  ca  
ca  ca  ca  ca  ha  ca  ha  ha  ca  ha  ca  ca  ha  ca  ha  ca  ha  ca  ha  ca  
ha  ca  ha  ca  ha  ca  ha  ca  ha  ha  ca  ha  ha  ha  ca  ha  ca  ha  ha  ca  
ha  ha  ca  ha  ha  os  os  os  os  os  os  c3  c3  c3  c3  c3  c3  h1  h1  h1  
h1  h1  h1  h1  h1  h1  h1  h1  h1  h1  h1  h1  h1  h1  h1  os  ca  c3  ca  ca  
h1  h1  h1  ca  ha  ca  ha  ca  ha  ha  nh  ca  ca  ca  ca  ca  ca  ca  ha  ca  
ha  ca  ha  ca  ha  cp  c5  ha  ca  ha  ha  cp  ca  ca  ca  os  ca  ca  ca  cp  
ca  cp  c3  ca  ha  ca  ha  ca  ha  ca  ha  ca  ca  h1  h1  h1  ha  nh  nh  ca  
ha  nh  ca  ha  ca  ca  ca  ca  ha  ca  ca  ha  ca  ca  ca  ca  ca  ca  ca  ca  
ca  ca  ca  ca  ca  ha  ca  ha  ha  ca  ha  ca  ca  ha  ca  ha  ca  ha  ca  ha  
ca  ha  ca  ha  ca  ha  ca  ha  ca  ha  ha  ca  ha  ha  ha  ca  ha  ca  ha  ha  
ca  ha  ha  ca  ha  ha  os  os  os  os  os  os  c3  c3  c3  c3  c3  c3  h1  h1  
h1  h1  h1  h1  h1  h1  h1  h1  h1  h1  h1  h1  h1  h1  h1  h1  os  ca  c3  ca  
ca  h1  h1  h1  ca  ha  ca  ha  ca  ha  ha  nh  ca  ca  ca  ca  ca  ca  ca  ha  
ca  ha  ca  ha  ca  ha  cp  c5  ha  ca  ha  ha  cp  ca  ca  ca  os  ca  ca  ca  
cp  ca  cp  c3  ca  ha  ca  ha  ca  ha  ca  ha  ca  ca  h1  h1  h1  ha  nh  nh  
ca  ha  nh  ca  ha  ca  ca  ca  ca  ha  ca  ca  ha  ca  ca  ca  ca  ca  ca  ca  
ca  ca  ca  ca  ca  ca  ha  ca  ha  ha  ca  ha  ca  ca  ha  ca  ha  ca  ha  ca  
ha  ca  ha  ca  ha  ca  ha  ca  ha  ca  ha  ha  ca  ha  ha  ha  ca  ha  ca  ha  
ha  ca  ha  ha  ca  ha  ha  os  os  os  os  os  os  c3  c3  c3  c3  c3  c3  h1  
h1  h1  h1  h1  h1  h1  h1  h1  h1  h1  h1  h1  h1  h1  h1  h1  h1  os  ca  c3  
ca  ca  h1  h1  h1  ca  ha  ca  ha  ca  ha  ha  nh  ca  ca  ca  ca  ca  ca  ca  
ha  ca  ha  ca  ha  ca  ha  cp  c5  ha  ca  ha  ha  cp  ca  ca  ca  os  ca  ca  
ca  cp  ca  cp  c3  ca  ha  ca  ha  ca  ha  ca  ha  ca  ca  h1  h1  h1  ha  nh  
nh  ca  ha  nh  ca  ha  ca  ca  ca  ca  ha  ca  ca  ha  ca  ca  ca  ca  ca  ca  
ca  ca  ca  ca  ca  ca  ca  ha  ca  ha  ha  ca  ha  ca  ca  ha  ca  ha  ca  ha  
ca  ha  ca  ha  ca  ha  ca  ha  ca  ha  ca  ha  ha  ca  ha  ha  ha  ca  ha  ca  
ha  ha  ca  ha  ha  ca  ha  ha  os  os  os  os  os  os  c3  c3  c3  c3  c3  c3  
h1  h1  h1  h1  h1  h1  h1  h1  h1  h1  h1  h1  h1  h1  h1  h1  h1  h1  os  ca  
c3  ca  ca  h1  h1  h1  ca  ha  ca  ha  ca  ha  ha  nh  ca  ca  ca  ca  ca  ca  
ca  ha  ca  ha  ca  ha  ca  ha  cp  c5  ha  ca  ha  ha  cp  ca  ca  ca  os  ca  
ca  ca  cp  ca  cp  c3  ca  ha  ca  ha  ca  ha  ca  ha  ca  ca  h1  h1  h1  ha  
nh  nh  ca  ha  nh  ca  ha  ca  ca  ca  ca  ha  ca  ca  ha  ca  ca  ca  ca  ca  
ca  ca  ca  ca  ca  ca  ca  ca  ha  ca  ha  ha  ca  ha  ca  ca  ha  ca  ha  ca  
ha  ca  ha  ca  ha  ca  ha  ca  ha  ca  ha  ca  ha  ha  ca  ha  ha  ha  ca  ha  
ca  ha  ha  ca  ha  ha  ca  ha  ha  os  os  os  os  os  os  c3  c3  c3  c3  c3  
c3  h1  h1  h1  h1  h1  h1  h1  h1  h1  h1  h1  h1  h1  h1  h1  h1  h1  h1  os  
ca  c3  ca  ca  h1  h1  h1  ca  ha  ca  ha  ca  ha  ha  nh  ca  ca  ca  ca  ca  
ca  ca  ha  ca  ha  ca  ha  ca  ha  cp  c5  ha  ca  ha  ha  cp  ca  ca  ca  os  
ca  ca  ca  cp  ca  cp  c3  ca  ha  ca  ha  ca  ha  ca  ha  ca  ca  h1  h1  h1  
ha  nh  nh  ca  ha  nh  ca  ha  ca  ca  ca  ca  ha  ca  ca  ha  ca  ca  ca  ca  
ca  ca  ca  ca  ca  ca  ca  ca  ca  ha  ca  ha  ha  ca  ha  ca  ca  ha  ca  ha  
ca  ha  ca  ha  ca  ha  ca  ha  ca  ha  ca  ha  ca  ha  ha  ca  ha  ha  ha  ca  
ha  ca  ha  ha  ca  ha  ha  ca  ha  ha  os  os  os  os  os  os  c3  c3  c3  c3  
c3  c3  h1  h1  h1  h1  h1  h1  h1  h1  h1  h1  h1  h1  h1  h1  h1  h1  h1  h1  
os  ca  c3  ca  ca  h1  h1  h1  ca  ha  ca  ha  ca  ha  ha  nh  ca  ca  ca  ca  
ca  ca  ca  ha  ca  ha  ca  ha  ca  ha  cp  c5  ha  ca  ha  ha  cp  ca  ca  ca  
os  ca  ca  ca  cp  ca  cp  c3  ca  ha  ca  ha  ca  ha  ca  ha  ca  ca  h1  h1  
h1  ha  nh  nh  ca  ha  nh  ca  ha  ca  ca  ca  ca  ha  ca  ca  ha  ca  ca  ca  
ca  ca  ca  ca  ca  ca  ca  ca  ca  ca  ha  ca  ha  ha  ca  ha  ca  ca  ha  ca  
ha  ca  ha  ca  ha  ca  ha  ca  ha  ca  ha  ca  ha  ca  ha  ha  ca  ha  ha  ha  
ca  ha  ca  ha  ha  ca  ha  ha  ca  ha  ha  os  os  os  os  os  os  c3  c3  c3  
c3  c3  c3  h1  h1  h1  h1  h1  h1  h1  h1  h1  h1  h1  h1  h1  h1  h1  h1  h1  
h1  os  ca  c3  ca  ca  h1  h1  h1  ca  ha  ca  ha  ca  ha  ha  nh  ca  ca  ca  
ca  ca  ca  ca  ha  ca  ha  ca  ha  ca  ha  cp  c5  ha  ca  ha  ha  cp  ca  ca  
ca  os  ca  ca  ca  cp  ca  cp  c3  ca  ha  ca  ha  ca  ha  ca  ha  ca  ca  h1  
h1  h1  ha  nh  nh  ca  ha  nh  ca  ha  ca  ca  ca  ca  ha  ca  ca  ha  ca  ca  
ca  ca  ca  ca  ca  ca  ca  ca  ca  ca  ca  ha  ca  ha  ha  ca  ha  ca  ca  ha  
ca  ha  ca  ha  ca  ha  ca  ha  ca  ha  ca  ha  ca  ha  ca  ha  ha  ca  ha  ha  
ha  ca  ha  ca  ha  ha  ca  ha  ha  ca  ha  ha  os  os  os  os  os  os  c3  c3  
c3  c3  c3  c3  h1  h1  h1  h1  h1  h1  h1  h1  h1  h1  h1  h1  h1  h1  h1  h1  
h1  h1  os  ca  c3  ca  ca  h1  h1  h1  ca  ha  ca  ha  ca  ha  ha  nh  ca  ca  
ca  ca  ca  ca  ca  ha  ca  ha  ca  ha  ca  ha  cp  c5  ha  ca  ha  ha  cp  ca  
ca  ca  os  ca  ca  ca  cp  ca  cp  c3  ca  ha  ca  ha  ca  ha  ca  ha  ca  ca  
h1  h1  h1  ha  nh  nh  ca  ha  nh  ca  ha  ca  ca  ca  ca  ha  ca  ca  ha  ca  
ca  ca  ca  ca  ca  ca  ca  ca  ca  ca  ca  ca  ha  ca  ha  ha  ca  ha  ca  ca  
ha  ca  ha  ca  ha  ca  ha  ca  ha  ca  ha  ca  ha  ca  ha  ca  ha  ha  ca  ha  
ha  ha  ca  ha  ca  ha  ha  ca  ha  ha  ca  ha  ha  os  os  os  os  os  os  c3  
c3  c3  c3  c3  c3  h1  h1  h1  h1  h1  h1  h1  h1  h1  h1  h1  h1  h1  h1  h1  
h1  h1  h1  os  ca  c3  ca  ca  h1  h1  h1  ca  ha  ca  ha  ca  ha  ha  nh  ca  
ca  ca  ca  ca  ca  ca  ha  ca  ha  ca  ha  ca  ha  cp  c5  ha  ca  ha  ha  cp  
ca  ca  ca  os  ca  ca  ca  cp  ca  cp  c3  ca  ha  ca  ha  ca  ha  ca  ha  ca  
ca  h1  h1  h1  ha  nh  nh  ca  ha  nh  ca  ha  ca  ca  ca  ca  ha  ca  ca  ha  
ca  ca  ca  ca  ca  ca  ca  ca  ca  ca  ca  ca  ca  ha  ca  ha  ha  ca  ha  ca  
ca  ha  ca  ha  ca  ha  ca  ha  ca  ha  ca  ha  ca  ha  ca  ha  ca  ha  ha  ca  
ha  ha  ha  ca  ha  ca  ha  ha  ca  ha  ha  ca  ha  ha  os  os  os  os  os  os  
c3  c3  c3  c3  c3  c3  h1  h1  h1  h1  h1  h1  h1  h1  h1  h1  h1  h1  h1  h1  
h1  h1  h1  h1  os  ca  c3  ca  ca  h1  h1  h1  ca  ha  ca  ha  ca  ha  ha  nh  
ca  ca  ca  ca  ca  ca  ca  ha  ca  ha  ca  ha  ca  ha  cp  c5  ha  ca  ha  ha  
cp  ca  ca  ca  os  ca  ca  ca  cp  ca  cp  c3  ca  ha  ca  ha  ca  ha  ca  ha  
ca  ca  h1  h1  h1  ha  nh  nh  ca  ha  nh  ca  ha  ca  ca  ca  ca  ha  ca  ca  
ha  ca  ca  ca  ca  ca  ca  ca  ca  ca  ca  ca  ca  ca  ha  ca  ha  ha  ca  ha  
ca  ca  ha  ca  ha  ca  ha  ca  ha  ca  ha  ca  ha  ca  ha  ca  ha  ca  ha  ha  
ca  ha  ha  ha  ca  ha  ca  ha  ha  ca  ha  ha  ca  ha  ha  os  os  os  os  os  
os  c3  c3  c3  c3  c3  c3  h1  h1  h1  h1  h1  h1  h1  h1  h1  h1  h1  h1  h1  
h1  h1  h1  h1  h1  os  ca  c3  ca  ca  h1  h1  h1  ca  ha  ca  ha  ca  ha  ha  
nh  ca  ca  ca  ca  ca  ca  ca  ha  ca  ha  ca  ha  ca  ha  cp  c5  ha  ca  ha  
ha  cp  ca  ca  ca  os  ca  ca  ca  cp  ca  cp  c3  ca  ha  ca  ha  ca  ha  ca  
ha  ca  ca  h1  h1  h1  ha  nh  nh  ca  ha  nh  ca  ha  ca  ca  ca  ca  ha  ca  
ca  ha  ca  ca  ca  ca  ca  ca  ca  ca  ca  ca  ca  ca  ca  ha  ca  ha  ha  ca  
ha  ca  ca  ha  ca  ha  ca  ha  ca  ha  ca  ha  ca  ha  ca  ha  ca  ha  ca  ha  
ha  ca  ha  ha  ha  ca  ha  ca  ha  ha  ca  ha  ha  ca  ha  ha  os  os  os  os  
os  os  c3  c3  c3  c3  c3  c3  h1  h1  h1  h1  h1  h1  h1  h1  h1  h1  h1  h1  
h1  h1  h1  h1  h1  h1  os  ca  c3  ca  ca  h1  h1  h1  ca  ha  ca  ha  ca  ha  
ha  nh  ca  ca  ca  ca  ca  ca  ca  ha  ca  ha  ca  ha  ca  ha  cp  c5  ha  ca  
ha  ha  cp  ca  ca  ca  os  ca  ca  ca  cp  ca  cp  c3  ca  ha  ca  ha  ca  ha  
ca  ha  ca  ca  h1  h1  h1  ha  nh  nh  ca  ha  nh  ca  ha  ca  ca  ca  ca  ha  
ca  ca  ha  ca  ca  ca  ca  ca  ca  ca  ca  ca  ca  ca  ca  ca  ha  ca  ha  ha  
ca  ha  ca  ca  ha  ca  ha  ca  ha  ca  ha  ca  ha  ca  ha  ca  ha  ca  ha  ca  
ha  ha  ca  ha  ha  ha  ca  ha  ca  ha  ha  ca  ha  ha  ca  ha  ha  os  os  os  
os  os  os  c3  c3  c3  c3  c3  c3  h1  h1  h1  h1  h1  h1  h1  h1  h1  h1  h1  
h1  h1  h1  h1  h1  h1  h1  os  ca  c3  ca  ca  h1  h1  h1  ca  ha  ca  ha  ca  
ha  ha  nh  ca  ca  ca  ca  ca  ca  ca  ha  ca  ha  ca  ha  ca  ha  cp  c5  ha  
ca  ha  ha  cp  ca  ca  ca  os  ca  ca  ca  cp  ca  cp  c3  ca  ha  ca  ha  ca  
ha  ca  ha  ca  ca  h1  h1  h1  ha  nh  nh  ca  ha  nh  ca  ha  ca  ca  ca  ca  
ha  ca  ca  ha  ca  ca  ca  ca  ca  ca  ca  ca  ca  ca  ca  ca  ca  ha  ca  ha  
ha  ca  ha  ca  ca  ha  ca  ha  ca  ha  ca  ha  ca  ha  ca  ha  ca  ha  ca  ha  
ca  ha  ha  ca  ha  ha  ha  ca  ha  ca  ha  ha  ca  ha  ha  ca  ha  ha  os  os  
os  os  os  os  c3  c3  c3  c3  c3  c3  h1  h1  h1  h1  h1  h1  h1  h1  h1  h1  
h1  h1  h1  h1  h1  h1  h1  h1  os  ca  c3  ca  ca  h1  h1  h1  ca  ha  ca  ha  
ca  ha  ha  nh  ca  ca  ca  ca  ca  ca  ca  ha  ca  ha  ca  ha  ca  ha  cp  c5  
ha  ca  ha  ha  cp  ca  ca  ca  os  ca  ca  ca  cp  ca  cp  c3  ca  ha  ca  ha  
ca  ha  ca  ha  ca  ca  h1  h1  h1  ha  nh  nh  ca  ha  nh  ca  ha  ca  ca  ca  
ca  ha  ca  ca  ha  ca  ca  ca  ca  ca  ca  ca  ca  ca  ca  ca  ca  ca  ha  ca  
ha  ha  ca  ha  ca  ca  ha  ca  ha  ca  ha  ca  ha  ca  ha  ca  ha  ca  ha  ca  
ha  ca  ha  ha  ca  ha  ha  ha  ca  ha  ca  ha  ha  ca  ha  ha  ca  ha  ha  os  
os  os  os  os  os  c3  c3  c3  c3  c3  c3  h1  h1  h1  h1  h1  h1  h1  h1  h1  
h1  h1  h1  h1  h1  h1  h1  h1  h1  os  ca  c3  ca  ca  h1  h1  h1  ca  ha  ca  
ha  ca  ha  ha  nh  ca  ca  ca  ca  ca  ca  ca  ha  ca  ha  ca  ha  ca  ha  cp  
c5  ha  ca  ha  ha  cp  ca  ca  ca  os  ca  ca  ca  cp  ca  cp  c3  ca  ha  ca  
ha  ca  ha  ca  ha  ca  ca  h1  h1  h1  ha  nh  nh  ca  ha  nh  ca  ha  ca  ca  
ca  ca  ha  ca  ca  ha  ca  ca  ca  ca  ca  ca  ca  ca  ca  ca  ca  ca  ca  ha  
ca  ha  ha  ca  ha  ca  ca  ha  ca  ha  ca  ha  ca  ha  ca  ha  ca  ha  ca  ha  
ca  ha  ca  ha  ha  ca  ha  ha  ha  ca  ha  ca  ha  ha  ca  ha  ha  ca  ha  ha  
os  os  os  os  os  os  c3  c3  c3  c3  c3  c3  h1  h1  h1  h1  h1  h1  h1  h1  
h1  h1  h1  h1  h1  h1  h1  h1  h1  h1  os  ca  c3  ca  ca  h1  h1  h1  ca  ha  
ca  ha  ca  ha  ha  nh  ca  ca  ca  ca  ca  ca  ca  ha  ca  ha  ca  ha  ca  ha  
cp  c5  ha  ca  ha  ha  cp  ca  ca  ca  os  ca  ca  ca  cp  ca  cp  c3  ca  ha  
ca  ha  ca  ha  ca  ha  ca  ca  h1  h1  h1  ha  nh  nh  ca  ha  nh  ca  ha  ca  
ca  ca  ca  ha  ca  ca  ha  ca  ca  ca  ca  ca  ca  ca  ca  ca  ca  ca  ca  ca  
ha  ca  ha  ha  ca  ha  ca  ca  ha  ca  ha  ca  ha  ca  ha  ca  ha  ca  ha  ca  
ha  ca  ha  ca  ha  ha  ca  ha  ha  ha  ca  ha  ca  ha  ha  ca  ha  ha  ca  ha  
ha  os  os  os  os  os  os  c3  c3  c3  c3  c3  c3  h1  h1  h1  h1  h1  h1  h1  
h1  h1  h1  h1  h1  h1  h1  h1  h1  h1  h1  os  ca  c3  ca  ca  h1  h1  h1  ca  
ha  ca  ha  ca  ha  ha  nh  ca  ca  ca  ca  ca  ca  ca  ha  ca  ha  ca  ha  ca  
ha  cp  c5  ha  ca  ha  ha  cp  ca  ca  ca  os  ca  ca  ca  cp  ca  cp  c3  ca  
ha  ca  ha  ca  ha  ca  ha  ca  ca  h1  h1  h1  ha  nh  nh  ca  ha  nh  ca  ha  
ca  ca  ca  ca  ha  ca  ca  ha  ca  ca  ca  ca  ca  ca  ca  ca  ca  ca  ca  ca  
ca  ha  ca  ha  ha  ca  ha  ca  ca  ha  ca  ha  ca  ha  ca  ha  ca  ha  ca  ha  
ca  ha  ca  ha  ca  ha  ha  ca  ha  ha  ha  ca  ha  ca  ha  ha  ca  ha  ha  ca  
ha  ha  os  os  os  os  os  os  c3  c3  c3  c3  c3  c3  h1  h1  h1  h1  h1  h1  
h1  h1  h1  h1  h1  h1  h1  h1  h1  h1  h1  h1  os  ca  c3  ca  ca  h1  h1  h1  
ca  ha  ca  ha  ca  ha  ha  nh  ca  ca  ca  ca  ca  ca  ca  ha  ca  ha  ca  ha  
ca  ha  cp  c5  ha  ca  ha  ha  cp  ca  ca  ca  os  ca  ca  ca  cp  ca  cp  c3  
ca  ha  ca  ha  ca  ha  ca  ha  ca  ca  h1  h1  h1  ha  nh  nh  ca  ha  nh  ca  
ha  ca  ca  ca  ca  ha  ca  ca  ha  ca  ca  ca  ca  ca  ca  ca  ca  ca  ca  ca  
ca  ca  ha  ca  ha  ha  ca  ha  ca  ca  ha  ca  ha  ca  ha  ca  ha  ca  ha  ca  
ha  ca  ha  ca  ha  ca  ha  ha  ca  ha  ha  ha  ca  ha  ca  ha  ha  ca  ha  ha  
ca  ha  ha  os  os  os  os  os  os  c3  c3  c3  c3  c3  c3  h1  h1  h1  h1  h1  
h1  h1  h1  h1  h1  h1  h1  h1  h1  h1  h1  h1  h1  os  ca  c3  ca  ca  h1  h1  
h1  ca  ha  ca  ha  ca  ha  ha  nh  ca  ca  ca  ca  ca  ca  ca  ha  ca  ha  ca  
ha  ca  ha  cp  c5  ha  ca  ha  ha  cp  ca  ca  ca  os  ca  ca  ca  cp  ca  cp  
c3  ca  ha  ca  ha  ca  ha  ca  ha  ca  ca  h1  h1  h1  ha  nh  nh  ca  ha  nh  
ca  ha  ca  ca  ca  ca  ha  ca  ca  ha  ca  ca  ca  ca  ca  ca  ca  ca  ca  ca  
ca  ca  ca  ha  ca  ha  ha  ca  ha  ca  ca  ha  ca  ha  ca  ha  ca  ha  ca  ha  
ca  ha  ca  ha  ca  ha  ca  ha  ha  ca  ha  ha  ha  ca  ha  ca  ha  ha  ca  ha  
ha  ca  ha  ha  os  os  os  os  os  os  c3  c3  c3  c3  c3  c3  h1  h1  h1  h1  
h1  h1  h1  h1  h1  h1  h1  h1  h1  h1  h1  h1  h1  h1  os  ca  c3  ca  ca  h1  
h1  h1  ca  ha  ca  ha  ca  ha  ha  nh  ca  ca  ca  ca  ca  ca  ca  ha  ca  ha  
ca  ha  ca  ha  cp  c5  ha  ca  ha  ha  cp  ca  ca  ca  os  ca  ca  ca  cp  ca  
cp  c3  ca  ha  ca  ha  ca  ha  ca  ha  ca  ca  h1  h1  h1  ha  nh  nh  ca  ha  
nh  ca  ha  ca  ca  ca  ca  ha  ca  ca  ha  ca  ca  ca  ca  ca  ca  ca  ca  ca  
ca  ca  ca  ca  ha  ca  ha  ha  ca  ha  ca  ca  ha  ca  ha  ca  ha  ca  ha  ca  
ha  ca  ha  ca  ha  ca  ha  ca  ha  ha  ca  ha  ha  ha  ca  ha  ca  ha  ha  ca  
ha  ha  ca  ha  ha  os  os  os  os  os  os  c3  c3  c3  c3  c3  c3  h1  h1  h1  
h1  h1  h1  h1  h1  h1  h1  h1  h1  h1  h1  h1  h1  h1  h1  os  ca  c3  ca  ca  
h1  h1  h1  ca  ha  ca  ha  ca  ha  ha  nh  ca  ca  ca  ca  ca  ca  ca  ha  ca  
ha  ca  ha  ca  ha  cp  c5  ha  ca  ha  ha  cp  ca  ca  ca  os  ca  ca  ca  cp  
ca  cp  c3  ca  ha  ca  ha  ca  ha  ca  ha  ca  ca  h1  h1  h1  ha  nh  nh  ca  
ha  nh  ca  ha  ca  ca  ca  ca  ha  ca  ca  ha  ca  ca  ca  ca  ca  ca  ca  ca  
ca  ca  ca  ca  ca  ha  ca  ha  ha  ca  ha  ca  ca  ha  ca  ha  ca  ha  ca  ha  
ca  ha  ca  ha  ca  ha  ca  ha  ca  ha  ha  ca  ha  ha  ha  ca  ha  ca  ha  ha  
ca  ha  ha  ca  ha  ha  os  os  os  os  os  os  c3  c3  c3  c3  c3  c3  h1  h1  
h1  h1  h1  h1  h1  h1  h1  h1  h1  h1  h1  h1  h1  h1  h1  h1  os  ca  c3  ca  
ca  h1  h1  h1  ca  ha  ca  ha  ca  ha  ha  nh  ca  ca  ca  ca  ca  ca  ca  ha  
ca  ha  ca  ha  ca  ha  cp  c5  ha  ca  ha  ha  cp  ca  ca  ca  os  ca  ca  ca  
cp  ca  cp  c3  ca  ha  ca  ha  ca  ha  ca  ha  ca  ca  h1  h1  h1  ha  nh  nh  
ca  ha  nh  ca  ha  ca  ca  ca  ca  ha  ca  ca  ha  ca  ca  ca  ca  ca  ca  ca  
ca  ca  ca  ca  ca  ca  ha  ca  ha  ha  ca  ha  ca  ca  ha  ca  ha  ca  ha  ca  
ha  ca  ha  ca  ha  ca  ha  ca  ha  ca  ha  ha  ca  ha  ha  ha  ca  ha  ca  ha  
ha  ca  ha  ha  ca  ha  ha  os  os  os  os  os  os  c3  c3  c3  c3  c3  c3  h1  
h1  h1  h1  h1  h1  h1  h1  h1  h1  h1  h1  h1  h1  h1  h1  h1  h1  os  ca  c3  
ca  ca  h1  h1  h1  ca  ha  ca  ha  ca  ha  ha  nh  ca  ca  ca  ca  ca  ca  ca  
ha  ca  ha  ca  ha  ca  ha  cp  c5  ha  ca  ha  ha  cp  ca  ca  ca  os  ca  ca  
ca  cp  ca  cp  c3  ca  ha  ca  ha  ca  ha  ca  ha  ca  ca  h1  h1  h1  ha  nh  
nh  ca  ha  nh  ca  ha  ca  ca  ca  ca  ha  ca  ca  ha  ca  ca  ca  ca  ca  ca  
ca  ca  ca  ca  ca  ca  ca  ha  ca  ha  ha  ca  ha  ca  ca  ha  ca  ha  ca  ha  
ca  ha  ca  ha  ca  ha  ca  ha  ca  ha  ca  ha  ha  ca  ha  ha  ha  ca  ha  ca  
ha  ha  ca  ha  ha  ca  ha  ha  os  os  os  os  os  os  c3  c3  c3  c3  c3  c3  
h1  h1  h1  h1  h1  h1  h1  h1  h1  h1  h1  h1  h1  h1  h1  h1  h1  h1  os  ca  
c3  ca  ca  h1  h1  h1  ca  ha  ca  ha  ca  ha  ha  nh  ca  ca  ca  ca  ca  ca  
ca  ha  ca  ha  ca  ha  ca  ha  cp  c5  ha  ca  ha  ha  cp  ca  ca  ca  os  ca  
ca  ca  cp  ca  cp  c3  ca  ha  ca  ha  ca  ha  ca  ha  ca  ca  h1  h1  h1  ha  
nh  nh  ca  ha  nh  ca  ha  ca  ca  ca  ca  ha  ca  ca  ha  ca  ca  ca  ca  ca  
ca  ca  ca  ca  ca  ca  ca  ca  ha  ca  ha  ha  ca  ha  ca  ca  ha  ca  ha  ca  
ha  ca  ha  ca  ha  ca  ha  ca  ha  ca  ha  ca  ha  ha  ca  ha  ha  ha  ca  ha  
ca  ha  ha  ca  ha  ha  ca  ha  ha  os  os  os  os  os  os  c3  c3  c3  c3  c3  
c3  h1  h1  h1  h1  h1  h1  h1  h1  h1  h1  h1  h1  h1  h1  h1  h1  h1  h1  os  
ca  c3  ca  ca  h1  h1  h1  ca  ha  ca  ha  ca  ha  ha  nh  ca  ca  ca  ca  ca  
ca  ca  ha  ca  ha  ca  ha  ca  ha  cp  c5  ha  ca  ha  ha  cp  ca  ca  ca  os  
ca  ca  ca  cp  ca  cp  c3  ca  ha  ca  ha  ca  ha  ca  ha  ca  ca  h1  h1  h1  
ha  nh  nh  ca  ha  nh  ca  ha  ca  ca  ca  ca  ha  ca  ca  ha  ca  ca  ca  ca  
ca  ca  ca  ca  ca  ca  ca  ca  ca  ha  ca  ha  ha  ca  ha  ca  ca  ha  ca  ha  
ca  ha  ca  ha  ca  ha  ca  ha  ca  ha  ca  ha  ca  ha  ha  ca  ha  ha  ha  ca  
ha  ca  ha  ha  ca  ha  ha  ca  ha  ha  os  os  os  os  os  os  c3  c3  c3  c3  
c3  c3  h1  h1  h1  h1  h1  h1  h1  h1  h1  h1  h1  h1  h1  h1  h1  h1  h1  h1  
os  ca  c3  ca  ca  h1  h1  h1  ca  ha  ca  ha  ca  ha  ha  nh  ca  ca  ca  ca  
ca  ca  ca  ha  ca  ha  ca  ha  ca  ha  cp  c5  ha  ca  ha  ha  cp  ca  ca  ca  
os  ca  ca  ca  cp  ca  cp  c3  ca  ha  ca  ha  ca  ha  ca  ha  ca  ca  h1  h1  
h1  ha  nh  nh  ca  ha  nh  ca  ha  ca  ca  ca  ca  ha  ca  ca  ha  ca  ca  ca  
ca  ca  ca  ca  ca  ca  ca  ca  ca  ca  ha  ca  ha  ha  ca  ha  ca  ca  ha  ca  
ha  ca  ha  ca  ha  ca  ha  ca  ha  ca  ha  ca  ha  ca  ha  ha  ca  ha  ha  ha  
ca  ha  ca  ha  ha  ca  ha  ha  ca  ha  ha  os  os  os  os  os  os  c3  c3  c3  
c3  c3  c3  h1  h1  h1  h1  h1  h1  h1  h1  h1  h1  h1  h1  h1  h1  h1  h1  h1  
h1  os  ca  c3  ca  ca  h1  h1  h1  ca  ha  ca  ha  ca  ha  ha  nh  ca  ca  ca  
ca  ca  ca  ca  ha  ca  ha  ca  ha  ca  ha  cp  c5  ha  ca  ha  ha  cp  ca  ca  
ca  os  ca  ca  ca  cp  ca  cp  c3  ca  ha  ca  ha  ca  ha  ca  ha  ca  ca  h1  
h1  h1  ha  nh  nh  ca  ha  nh  ca  ha  ca  ca  ca  ca  ha  ca  ca  ha  ca  ca  
ca  ca  ca  ca  ca  ca  ca  ca  ca  ca  ca  ha  ca  ha  ha  ca  ha  ca  ca  ha  
ca  ha  ca  ha  ca  ha  ca  ha  ca  ha  ca  ha  ca  ha  ca  ha  ha  ca  ha  ha  
ha  ca  ha  ca  ha  ha  ca  ha  ha  ca  ha  ha  os  os  os  os  os  os  c3  c3  
c3  c3  c3  c3  h1  h1  h1  h1  h1  h1  h1  h1  h1  h1  h1  h1  h1  h1  h1  h1  
h1  h1  os  ca  c3  ca  ca  h1  h1  h1  ca  ha  ca  ha  ca  ha  ha  nh  ca  ca  
ca  ca  ca  ca  ca  ha  ca  ha  ca  ha  ca  ha  cp  c5  ha  ca  ha  ha  cp  ca  
ca  ca  os  ca  ca  ca  cp  ca  cp  c3  ca  ha  ca  ha  ca  ha  ca  ha  ca  ca  
h1  h1  h1  ha  nh  nh  ca  ha  nh  ca  ha  ca  ca  ca  ca  ha  ca  ca  ha  ca  
ca  ca  ca  ca  ca  ca  ca  ca  ca  ca  ca  ca  ha  ca  ha  ha  ca  ha  ca  ca  
ha  ca  ha  ca  ha  ca  ha  ca  ha  ca  ha  ca  ha  ca  ha  ca  ha  ha  ca  ha  
ha  ha  ca  ha  ca  ha  ha  ca  ha  ha  ca  ha  ha  os  os  os  os  os  os  c3  
c3  c3  c3  c3  c3  h1  h1  h1  h1  h1  h1  h1  h1  h1  h1  h1  h1  h1  h1  h1  
h1  h1  h1  os  ca  c3  ca  ca  h1  h1  h1  ca  ha  ca  ha  ca  ha  ha  nh  ca  
ca  ca  ca  ca  ca  ca  ha  ca  ha  ca  ha  ca  ha  cp  c5  ha  ca  ha  ha  cp  
ca  ca  ca  os  ca  ca  ca  cp  ca  cp  c3  ca  ha  ca  ha  ca  ha  ca  ha  ca  
ca  h1  h1  h1  ha  nh  nh  ca  ha  nh  ca  ha  ca  ca  ca  ca  ha  ca  ca  ha  
ca  ca  ca  ca  ca  ca  ca  ca  ca  ca  ca  ca  ca  ha  ca  ha  ha  ca  ha  ca  
ca  ha  ca  ha  ca  ha  ca  ha  ca  ha  ca  ha  ca  ha  ca  ha  ca  ha  ha  ca  
ha  ha  ha  ca  ha  ca  ha  ha  ca  ha  ha  ca  ha  ha  os  os  os  os  os  os  
c3  c3  c3  c3  c3  c3  h1  h1  h1  h1  h1  h1  h1  h1  h1  h1  h1  h1  h1  h1  
h1  h1  h1  h1  os  ca  c3  ca  ca  h1  h1  h1  ca  ha  ca  ha  ca  ha  ha  nh  
ca  ca  ca  ca  ca  ca  ca  ha  ca  ha  ca  ha  ca  ha  cp  c5  ha  ca  ha  ha  
cp  ca  ca  ca  os  ca  ca  ca  cp  ca  cp  c3  ca  ha  ca  ha  ca  ha  ca  ha  
ca  ca  h1  h1  h1  ha  nh  nh  ca  ha  nh  ca  ha  ca  ca  ca  ca  ha  ca  ca  
ha  ca  ca  ca  ca  ca  ca  ca  ca  ca  ca  ca  ca  ca  ha  ca  ha  ha  ca  ha  
ca  ca  ha  ca  ha  ca  ha  ca  ha  ca  ha  ca  ha  ca  ha  ca  ha  ca  ha  ha  
ca  ha  ha  ha  ca  ha  ca  ha  ha  ca  ha  ha  ca  ha  ha  os  os  os  os  os  
os  c3  c3  c3  c3  c3  c3  h1  h1  h1  h1  h1  h1  h1  h1  h1  h1  h1  h1  h1  
h1  h1  h1  h1  h1  os  ca  c3  ca  ca  h1  h1  h1  ca  ha  ca  ha  ca  ha  ha  
nh  ca  ca  ca  ca  ca  ca  ca  ha  ca  ha  ca  ha  ca  ha  cp  c5  ha  ca  ha  
ha  cp  ca  ca  ca  os  ca  ca  ca  cp  ca  cp  c3  ca  ha  ca  ha  ca  ha  ca  
ha  ca  ca  h1  h1  h1  ha  nh  nh  ca  ha  nh  ca  ha  ca  ca  ca  ca  ha  ca  
ca  ha  ca  ca  ca  ca  ca  ca  ca  ca  ca  ca  ca  ca  ca  ha  ca  ha  ha  ca  
ha  ca  ca  ha  ca  ha  ca  ha  ca  ha  ca  ha  ca  ha  ca  ha  ca  ha  ca  ha  
ha  ca  ha  ha  ha  ca  ha  ca  ha  ha  ca  ha  ha  ca  ha  ha  os  os  os  os  
os  os  c3  c3  c3  c3  c3  c3  h1  h1  h1  h1  h1  h1  h1  h1  h1  h1  h1  h1  
h1  h1  h1  h1  h1  h1  os  ca  c3  ca  ca  h1  h1  h1  ca  ha  ca  ha  ca  ha  
ha  nh  ca  ca  ca  ca  ca  ca  ca  ha  ca  ha  ca  ha  ca  ha  cp  c5  ha  ca  
ha  ha  cp  ca  ca  ca  os  ca  ca  ca  cp  ca  cp  c3  ca  ha  ca  ha  ca  ha  
ca  ha  ca  ca  h1  h1  h1  ha  nh  nh  ca  ha  nh  ca  ha  ca  ca  ca  ca  ha  
ca  ca  ha  ca  ca  ca  ca  ca  ca  ca  ca  ca  ca  ca  ca  ca  ha  ca  ha  ha  
ca  ha  ca  ca  ha  ca  ha  ca  ha  ca  ha  ca  ha  ca  ha  ca  ha  ca  ha  ca  
ha  ha  ca  ha  ha  ha  ca  ha  ca  ha  ha  ca  ha  ha  ca  ha  ha  os  os  os  
os  os  os  c3  c3  c3  c3  c3  c3  h1  h1  h1  h1  h1  h1  h1  h1  h1  h1  h1  
h1  h1  h1  h1  h1  h1  h1  os  ca  c3  ca  ca  h1  h1  h1  ca  ha  ca  ha  ca  
ha  ha  nh  ca  ca  ca  ca  ca  ca  ca  ha  ca  ha  ca  ha  ca  ha  cp  c5  ha  
ca  ha  ha  cp  ca  ca  ca  os  ca  ca  ca  cp  ca  cp  c3  ca  ha  ca  ha  ca  
ha  ca  ha  ca  ca  h1  h1  h1  ha  nh  nh  ca  ha  nh  ca  ha  ca  ca  ca  ca  
ha  ca  ca  ha  ca  ca  ca  ca  ca  ca  ca  ca  ca  ca  ca  ca  ca  ha  ca  ha  
ha  ca  ha  ca  ca  ha  ca  ha  ca  ha  ca  ha  ca  ha  ca  ha  ca  ha  ca  ha  
ca  ha  ha  ca  ha  ha  ha  ca  ha  ca  ha  ha  ca  ha  ha  ca  ha  ha  os  os  
os  os  os  os  c3  c3  c3  c3  c3  c3  h1  h1  h1  h1  h1  h1  h1  h1  h1  h1  
h1  h1  h1  h1  h1  h1  h1  h1  os  ca  c3  ca  ca  h1  h1  h1  ca  ha  ca  ha  
ca  ha  ha  nh  ca  ca  ca  ca  ca  ca  ca  ha  ca  ha  ca  ha  ca  ha  cp  c5  
ha  ca  ha  ha  cp  ca  ca  ca  os  ca  ca  ca  cp  ca  cp  c3  ca  ha  ca  ha  
ca  ha  ca  ha  ca  ca  h1  h1  h1  ha  nh  nh  ca  ha  nh  ca  ha  ca  ca  ca  
ca  ha  ca  ca  ha  ca  ca  ca  ca  ca  ca  ca  ca  ca  ca  ca  ca  ca  ha  ca  
ha  ha  ca  ha  ca  ca  ha  ca  ha  ca  ha  ca  ha  ca  ha  ca  ha  ca  ha  ca  
ha  ca  ha  ha  ca  ha  ha  ha  ca  ha  ca  ha  ha  ca  ha  ha  ca  ha  ha  os  
os  os  os  os  os  c3  c3  c3  c3  c3  c3  h1  h1  h1  h1  h1  h1  h1  h1  h1  
h1  h1  h1  h1  h1  h1  h1  h1  h1  os  ca  c3  ca  ca  h1  h1  h1  ca  ha  ca  
ha  ca  ha  ha  nh  ca  ca  ca  ca  ca  ca  ca  ha  ca  ha  ca  ha  ca  ha  cp  
c5  ha  ca  ha  ha  cp  ca  ca  ca  os  ca  ca  ca  cp  ca  cp  c3  ca  ha  ca  
ha  ca  ha  ca  ha  ca  ca  h1  h1  h1  ha  nh  nh  ca  ha  nh  ca  ha  ca  ca  
ca  ca  ha  ca  ca  ha  ca  ca  ca  ca  ca  ca  ca  ca  ca  ca  ca  ca  ca  ha  
ca  ha  ha  ca  ha  ca  ca  ha  ca  ha  ca  ha  ca  ha  ca  ha  ca  ha  ca  ha  
ca  ha  ca  ha  ha  ca  ha  ha  ha  ca  ha  ca  ha  ha  ca  ha  ha  ca  ha  ha  
os  os  os  os  os  os  c3  c3  c3  c3  c3  c3  h1  h1  h1  h1  h1  h1  h1  h1  
h1  h1  h1  h1  h1  h1  h1  h1  h1  h1  os  ca  c3  ca  ca  h1  h1  h1  ca  ha  
ca  ha  ca  ha  ha  nh  ca  ca  ca  ca  ca  ca  ca  ha  ca  ha  ca  ha  ca  ha  
cp  c5  ha  ca  ha  ha  cp  ca  ca  ca  os  ca  ca  ca  cp  ca  cp  c3  ca  ha  
ca  ha  ca  ha  ca  ha  ca  ca  h1  h1  h1  ha  nh  nh  ca  ha  nh  ca  ha  ca  
ca  ca  ca  ha  ca  ca  ha  ca  ca  ca  ca  ca  ca  ca  ca  ca  ca  ca  ca  ca  
ha  ca  ha  ha  ca  ha  ca  ca  ha  ca  ha  ca  ha  ca  ha  ca  ha  ca  ha  ca  
ha  ca  ha  ca  ha  ha  ca  ha  ha  ha  ca  ha  ca  ha  ha  ca  ha  ha  ca  ha  
ha  os  os  os  os  os  os  c3  c3  c3  c3  c3  c3  h1  h1  h1  h1  h1  h1  h1  
h1  h1  h1  h1  h1  h1  h1  h1  h1  h1  h1  os  ca  c3  ca  ca  h1  h1  h1  ca  
ha  ca  ha  ca  ha  ha  nh  ca  ca  ca  ca  ca  ca  ca  ha  ca  ha  ca  ha  ca  
ha  cp  c5  ha  ca  ha  ha  cp  ca  ca  ca  os  ca  ca  ca  cp  ca  cp  c3  ca  
ha  ca  ha  ca  ha  ca  ha  ca  ca  h1  h1  h1  ha  nh  nh  ca  ha  nh  ca  ha  
ca  ca  ca  ca  ha  ca  ca  ha  ca  ca  ca  ca  ca  ca  ca  ca  ca  ca  ca  ca  
ca  ha  ca  ha  ha  ca  ha  ca  ca  ha  ca  ha  ca  ha  ca  ha  ca  ha  ca  ha  
ca  ha  ca  ha  ca  ha  ha  ca  ha  ha  ha  ca  ha  ca  ha  ha  ca  ha  ha  ca  
ha  ha  os  os  os  os  os  os  c3  c3  c3  c3  c3  c3  h1  h1  h1  h1  h1  h1  
h1  h1  h1  h1  h1  h1  h1  h1  h1  h1  h1  h1  os  ca  c3  ca  ca  h1  h1  h1  
ca  ha  ca  ha  ca  ha  ha  nh  ca  ca  ca  ca  ca  ca  ca  ha  ca  ha  ca  ha  
ca  ha  cp  c5  ha  ca  ha  ha  cp  ca  ca  ca  os  ca  ca  ca  cp  ca  cp  c3  
ca  ha  ca  ha  ca  ha  ca  ha  ca  ca  h1  h1  h1  ha  nh  nh  ca  ha  nh  ca  
ha  ca  ca  ca  ca  ha  ca  ca  ha  ca  ca  ca  ca  ca  ca  ca  ca  ca  ca  ca  
ca  ca  ha  ca  ha  ha  ca  ha  ca  ca  ha  ca  ha  ca  ha  ca  ha  ca  ha  ca  
ha  ca  ha  ca  ha  ca  ha  ha  ca  ha  ha  ha  ca  ha  ca  ha  ha  ca  ha  ha  
ca  ha  ha  os  os  os  os  os  os  c3  c3  c3  c3  c3  c3  h1  h1  h1  h1  h1  
h1  h1  h1  h1  h1  h1  h1  h1  h1  h1  h1  h1  h1  os  ca  c3  ca  ca  h1  h1  
h1  ca  ha  ca  ha  ca  ha  ha  nh  ca  ca  ca  ca  ca  ca  ca  ha  ca  ha  ca  
ha  ca  ha  cp  c5  ha  ca  ha  ha  cp  ca  ca  ca  os  ca  ca  ca  cp  ca  cp  
c3  ca  ha  ca  ha  ca  ha  ca  ha  ca  ca  h1  h1  h1  ha  nh  nh  ca  ha  nh  
ca  ha  ca  ca  ca  ca  ha  ca  ca  ha  ca  ca  ca  ca  ca  ca  ca  ca  ca  ca  
ca  ca  ca  ha  ca  ha  ha  ca  ha  ca  ca  ha  ca  ha  ca  ha  ca  ha  ca  ha  
ca  ha  ca  ha  ca  ha  ca  ha  ha  ca  ha  ha  ha  ca  ha  ca  ha  ha  ca  ha  
ha  ca  ha  ha  os  os  os  os  os  os  c3  c3  c3  c3  c3  c3  h1  h1  h1  h1  
h1  h1  h1  h1  h1  h1  h1  h1  h1  h1  h1  h1  h1  h1  os  ca  c3  ca  ca  h1  
h1  h1  ca  ha  ca  ha  ca  ha  ha  nh  ca  ca  ca  ca  ca  ca  ca  ha  ca  ha  
ca  ha  ca  ha  cp  c5  ha  ca  ha  ha  cp  ca  ca  ca  os  ca  ca  ca  cp  ca  
cp  c3  ca  ha  ca  ha  ca  ha  ca  ha  ca  ca  h1  h1  h1  ha  nh  nh  ca  ha  
nh  ca  ha  ca  ca  ca  ca  ha  ca  ca  ha  ca  ca  ca  ca  ca  ca  ca  ca  ca  
ca  ca  ca  ca  ha  ca  ha  ha  ca  ha  ca  ca  ha  ca  ha  ca  ha  ca  ha  ca  
ha  ca  ha  ca  ha  ca  ha  ca  ha  ha  ca  ha  ha  ha  ca  ha  ca  ha  ha  ca  
ha  ha  ca  ha  ha  os  os  os  os  os  os  c3  c3  c3  c3  c3  c3  h1  h1  h1  
h1  h1  h1  h1  h1  h1  h1  h1  h1  h1  h1  h1  h1  h1  h1  os  ca  c3  ca  ca  
h1  h1  h1  ca  ha  ca  ha  ca  ha  ha  nh  ca  ca  ca  ca  ca  ca  ca  ha  ca  
ha  ca  ha  ca  ha  cp  c5  ha  ca  ha  ha  cp  ca  ca  ca  os  ca  ca  ca  cp  
ca  cp  c3  ca  ha  ca  ha  ca  ha  ca  ha  ca  ca  h1  h1  h1  ha  nh  nh  ca  
ha  nh  ca  ha  ca  ca  ca  ca  ha  ca  ca  ha  ca  ca  ca  ca  ca  ca  ca  ca  
ca  ca  ca  ca  ca  ha  ca  ha  ha  ca  ha  ca  ca  ha  ca  ha  ca  ha  ca  ha  
ca  ha  ca  ha  ca  ha  ca  ha  ca  ha  ha  ca  ha  ha  ha  ca  ha  ca  ha  ha  
ca  ha  ha  ca  ha  ha  os  os  os  os  os  os  c3  c3  c3  c3  c3  c3  h1  h1  
h1  h1  h1  h1  h1  h1  h1  h1  h1  h1  h1  h1  h1  h1  h1  h1  os  ca  c3  ca  
ca  h1  h1  h1  ca  ha  ca  ha  ca  ha  ha  nh  ca  ca  ca  ca  ca  ca  ca  ha  
ca  ha  ca  ha  ca  ha  cp  c5  ha  ca  ha  ha  cp  ca  ca  ca  os  ca  ca  ca  
cp  ca  cp  c3  ca  ha  ca  ha  ca  ha  ca  ha  ca  ca  h1  h1  h1  ha  nh  nh  
ca  ha  nh  ca  ha  ca  ca  ca  ca  ha  ca  ca  ha  ca  ca  ca  ca  ca  ca  ca  
ca  ca  ca  ca  ca  ca  ha  ca  ha  ha  ca  ha  ca  ca  ha  ca  ha  ca  ha  ca  
ha  ca  ha  ca  ha  ca  ha  ca  ha  ca  ha  ha  ca  ha  ha  ha  ca  ha  ca  ha  
ha  ca  ha  ha  ca  ha  ha  os  os  os  os  os  os  c3  c3  c3  c3  c3  c3  h1  
h1  h1  h1  h1  h1  h1  h1  h1  h1  h1  h1  h1  h1  h1  h1  h1  h1  os  ca  c3  
ca  ca  h1  h1  h1  ca  ha  ca  ha  ca  ha  ha  nh  ca  ca  ca  ca  ca  ca  ca  
ha  ca  ha  ca  ha  ca  ha  cp  c5  ha  ca  ha  ha  cp  ca  ca  ca  os  ca  ca  
ca  cp  ca  cp  c3  ca  ha  ca  ha  ca  ha  ca  ha  ca  ca  h1  h1  h1  ha  nh  
nh  ca  ha  nh  ca  ha  ca  ca  ca  ca  ha  ca  ca  ha  ca  ca  ca  ca  ca  ca  
ca  ca  ca  ca  ca  ca  ca  ha  ca  ha  ha  ca  ha  ca  ca  ha  ca  ha  ca  ha  
ca  ha  ca  ha  ca  ha  ca  ha  ca  ha  ca  ha  ha  ca  ha  ha  ha  ca  ha  ca  
ha  ha  ca  ha  ha  ca  ha  ha  os  os  os  os  os  os  c3  c3  c3  c3  c3  c3  
h1  h1  h1  h1  h1  h1  h1  h1  h1  h1  h1  h1  h1  h1  h1  h1  h1  h1  os  ca  
c3  ca  ca  h1  h1  h1  ca  ha  ca  ha  ca  ha  ha  nh  ca  ca  ca  ca  ca  ca  
ca  ha  ca  ha  ca  ha  ca  ha  cp  c5  ha  ca  ha  ha  cp  ca  ca  ca  os  ca  
ca  ca  cp  ca  cp  c3  ca  ha  ca  ha  ca  ha  ca  ha  ca  ca  h1  h1  h1  ha  
nh  nh  ca  ha  nh  ca  ha  ca  ca  ca  ca  ha  ca  ca  ha  ca  ca  ca  ca  ca  
ca  ca  ca  ca  ca  ca  ca  ca  ha  ca  ha  ha  ca  ha  ca  ca  ha  ca  ha  ca  
ha  ca  ha  ca  ha  ca  ha  ca  ha  ca  ha  ca  ha  ha  ca  ha  ha  ha  ca  ha  
ca  ha  ha  ca  ha  ha  ca  ha  ha  os  os  os  os  os  os  c3  c3  c3  c3  c3  
c3  h1  h1  h1  h1  h1  h1  h1  h1  h1  h1  h1  h1  h1  h1  h1  h1  h1  h1  os  
ca  c3  ca  ca  h1  h1  h1  ca  ha  ca  ha  ca  ha  ha  nh  ca  ca  ca  ca  ca  
ca  ca  ha  ca  ha  ca  ha  ca  ha  cp  c5  ha  ca  ha  ha  cp  ca  ca  ca  os  
ca  ca  ca  cp  ca  cp  c3  ca  ha  ca  ha  ca  ha  ca  ha  ca  ca  h1  h1  h1  
ha  nh  nh  ca  ha  nh  ca  ha  ca  ca  ca  ca  ha  ca  ca  ha  ca  ca  ca  ca  
ca  ca  ca  ca  ca  ca  ca  ca  ca  ha  ca  ha  ha  ca  ha  ca  ca  ha  ca  ha  
ca  ha  ca  ha  ca  ha  ca  ha  ca  ha  ca  ha  ca  ha  ha  ca  ha  ha  ha  ca  
ha  ca  ha  ha  ca  ha  ha  ca  ha  ha  os  os  os  os  os  os  c3  c3  c3  c3  
c3  c3  h1  h1  h1  h1  h1  h1  h1  h1  h1  h1  h1  h1  h1  h1  h1  h1  h1  h1  
os  ca  c3  ca  ca  h1  h1  h1  ca  ha  ca  ha  ca  ha  ha  nh  ca  ca  ca  ca  
ca  ca  ca  ha  ca  ha  ca  ha  ca  ha  cp  c5  ha  ca  ha  ha  cp  ca  ca  ca  
os  ca  ca  ca  cp  ca  cp  c3  ca  ha  ca  ha  ca  ha  ca  ha  ca  ca  h1  h1  
h1  ha  nh  nh  ca  ha  nh  ca  ha  ca  ca  ca  ca  ha  ca  ca  ha  ca  ca  ca  
ca  ca  ca  ca  ca  ca  ca  ca  ca  ca  ha  ca  ha  ha  ca  ha  ca  ca  ha  ca  
ha  ca  ha  ca  ha  ca  ha  ca  ha  ca  ha  ca  ha  ca  ha  ha  ca  ha  ha  ha  
ca  ha  ca  ha  ha  ca  ha  ha  ca  ha  ha  os  os  os  os  os  os  c3  c3  c3  
c3  c3  c3  h1  h1  h1  h1  h1  h1  h1  h1  h1  h1  h1  h1  h1  h1  h1  h1  h1  
h1  os  ca  c3  ca  ca  h1  h1  h1  ca  ha  ca  ha  ca  ha  ha  nh  ca  ca  ca  
ca  ca  ca  ca  ha  ca  ha  ca  ha  ca  ha  cp  c5  ha  ca  ha  ha  cp  ca  ca  
ca  os  ca  ca  ca  cp  ca  cp  c3  ca  ha  ca  ha  ca  ha  ca  ha  ca  ca  h1  
h1  h1  ha  nh  nh  ca  ha  nh  ca  ha  ca  ca  ca  ca  ha  ca  ca  ha  ca  ca  
ca  ca  ca  ca  ca  ca  ca  ca  ca  ca  ca  ha  ca  ha  ha  ca  ha  ca  ca  ha  
ca  ha  ca  ha  ca  ha  ca  ha  ca  ha  ca  ha  ca  ha  ca  ha  ha  ca  ha  ha  
ha  ca  ha  ca  ha  ha  ca  ha  ha  ca  ha  ha  os  os  os  os  os  os  c3  c3  
c3  c3  c3  c3  h1  h1  h1  h1  h1  h1  h1  h1  h1  h1  h1  h1  h1  h1  h1  h1  
h1  h1  os  ca  c3  ca  ca  h1  h1  h1  ca  ha  ca  ha  ca  ha  ha  nh  ca  ca  
ca  ca  ca  ca  ca  ha  ca  ha  ca  ha  ca  ha  cp  c5  ha  ca  ha  ha  cp  ca  
ca  ca  os  ca  ca  ca  cp  ca  cp  c3  ca  ha  ca  ha  ca  ha  ca  ha  ca  ca  
h1  h1  h1  ha  nh  nh  ca  ha  nh  ca  ha  ca  ca  ca  ca  ha  ca  ca  ha  ca  
ca  ca  ca  ca  ca  ca  ca  ca  ca  ca  ca  ca  ha  ca  ha  ha  ca  ha  ca  ca  
ha  ca  ha  ca  ha  ca  ha  ca  ha  ca  ha  ca  ha  ca  ha  ca  ha  ha  ca  ha  
ha  ha  ca  ha  ca  ha  ha  ca  ha  ha  ca  ha  ha  os  os  os  os  os  os  c3  
c3  c3  c3  c3  c3  h1  h1  h1  h1  h1  h1  h1  h1  h1  h1  h1  h1  h1  h1  h1  
h1  h1  h1  os  ca  c3  ca  ca  h1  h1  h1  ca  ha  ca  ha  ca  ha  ha  nh  ca  
ca  ca  ca  ca  ca  ca  ha  ca  ha  ca  ha  ca  ha  cp  c5  ha  ca  ha  ha  cp  
ca  ca  ca  os  ca  ca  ca  cp  ca  cp  c3  ca  ha  ca  ha  ca  ha  ca  ha  ca  
ca  h1  h1  h1  ha  nh  nh  ca  ha  nh  ca  ha  ca  ca  ca  ca  ha  ca  ca  ha  
ca  ca  ca  ca  ca  ca  ca  ca  ca  ca  ca  ca  ca  ha  ca  ha  ha  ca  ha  ca  
ca  ha  ca  ha  ca  ha  ca  ha  ca  ha  ca  ha  ca  ha  ca  ha  ca  ha  ha  ca  
ha  ha  ha  ca  ha  ca  ha  ha  ca  ha  ha  ca  ha  ha  os  os  os  os  os  os  
c3  c3  c3  c3  c3  c3  h1  h1  h1  h1  h1  h1  h1  h1  h1  h1  h1  h1  h1  h1  
h1  h1  h1  h1  os  ca  c3  ca  ca  h1  h1  h1  ca  ha  ca  ha  ca  ha  ha  nh  
ca  ca  ca  ca  ca  ca  ca  ha  ca  ha  ca  ha  ca  ha  cp  c5  ha  ca  ha  ha  
cp  ca  ca  ca  os  ca  ca  ca  cp  ca  cp  c3  ca  ha  ca  ha  ca  ha  ca  ha  
ca  ca  h1  h1  h1  ha  nh  nh  ca  ha  nh  ca  ha  ca  ca  ca  ca  ha  ca  ca  
ha  ca  ca  ca  ca  ca  ca  ca  ca  ca  ca  ca  ca  ca  ha  ca  ha  ha  ca  ha  
ca  ca  ha  ca  ha  ca  ha  ca  ha  ca  ha  ca  ha  ca  ha  ca  ha  ca  ha  ha  
ca  ha  ha  ha  ca  ha  ca  ha  ha  ca  ha  ha  ca  ha  ha  os  os  os  os  os  
os  c3  c3  c3  c3  c3  c3  h1  h1  h1  h1  h1  h1  h1  h1  h1  h1  h1  h1  h1  
h1  h1  h1  h1  h1  os  ca  c3  ca  ca  h1  h1  h1  ca  ha  ca  ha  ca  ha  ha  
nh  ca  ca  ca  ca  ca  ca  ca  ha  ca  ha  ca  ha  ca  ha  cp  c5  ha  ca  ha  
ha  cp  ca  ca  ca  os  ca  ca  ca  cp  ca  cp  c3  ca  ha  ca  ha  ca  ha  ca  
ha  ca  ca  h1  h1  h1  ha  nh  nh  ca  ha  nh  ca  ha  ca  ca  ca  ca  ha  ca  
ca  ha  ca  ca  ca  ca  ca  ca  ca  ca  ca  ca  ca  ca  ca  ha  ca  ha  ha  ca  
ha  ca  ca  ha  ca  ha  ca  ha  ca  ha  ca  ha  ca  ha  ca  ha  ca  ha  ca  ha  
ha  ca  ha  ha  ha  ca  ha  ca  ha  ha  ca  ha  ha  ca  ha  ha  os  os  os  os  
os  os  c3  c3  c3  c3  c3  c3  h1  h1  h1  h1  h1  h1  h1  h1  h1  h1  h1  h1  
h1  h1  h1  h1  h1  h1  os  ca  c3  ca  ca  h1  h1  h1  ca  ha  ca  ha  ca  ha  
ha  nh  ca  ca  ca  ca  ca  ca  ca  ha  ca  ha  ca  ha  ca  ha  cp  c5  ha  ca  
ha  ha  cp  ca  ca  ca  os  ca  ca  ca  cp  ca  cp  c3  ca  ha  ca  ha  ca  ha  
ca  ha  ca  ca  h1  h1  h1  ha  nh  nh  ca  ha  nh  ca  ha  ca  ca  ca  ca  ha  
ca  ca  ha  ca  ca  ca  ca  ca  ca  ca  ca  ca  ca  ca  ca  ca  ha  ca  ha  ha  
ca  ha  ca  ca  ha  ca  ha  ca  ha  ca  ha  ca  ha  ca  ha  ca  ha  ca  ha  ca  
ha  ha  ca  ha  ha  ha  ca  ha  ca  ha  ha  ca  ha  ha  ca  ha  ha  os  os  os  
os  os  os  c3  c3  c3  c3  c3  c3  h1  h1  h1  h1  h1  h1  h1  h1  h1  h1  h1  
h1  h1  h1  h1  h1  h1  h1  os  ca  c3  ca  ca  h1  h1  h1  ca  ha  ca  ha  ca  
ha  ha  nh  ca  ca  ca  ca  ca  ca  ca  ha  ca  ha  ca  ha  ca  ha  cp  c5  ha  
ca  ha  ha  cp  ca  ca  ca  os  ca  ca  ca  cp  ca  cp  c3  ca  ha  ca  ha  ca  
ha  ca  ha  ca  ca  h1  h1  h1  ha  nh  nh  ca  ha  nh  ca  ha  ca  ca  ca  ca  
ha  ca  ca  ha  ca  ca  ca  ca  ca  ca  ca  ca  ca  ca  ca  ca  ca  ha  ca  ha  
ha  ca  ha  ca  ca  ha  ca  ha  ca  ha  ca  ha  ca  ha  ca  ha  ca  ha  ca  ha  
ca  ha  ha  ca  ha  ha  ha  ca  ha  ca  ha  ha  ca  ha  ha  ca  ha  ha  os  os  
os  os  os  os  c3  c3  c3  c3  c3  c3  h1  h1  h1  h1  h1  h1  h1  h1  h1  h1  
h1  h1  h1  h1  h1  h1  h1  h1  os  ca  c3  ca  ca  h1  h1  h1  ca  ha  ca  ha  
ca  ha  ha  nh  ca  ca  ca  ca  ca  ca  ca  ha  ca  ha  ca  ha  ca  ha  cp  c5  
ha  ca  ha  ha  cp  ca  ca  ca  os  ca  ca  ca  cp  ca  cp  c3  ca  ha  ca  ha  
ca  ha  ca  ha  ca  ca  h1  h1  h1  ha  nh  nh  ca  ha  nh  ca  ha  ca  ca  ca  
ca  ha  ca  ca  ha  ca  ca  ca  ca  ca  ca  ca  ca  ca  ca  ca  ca  ca  ha  ca  
ha  ha  ca  ha  ca  ca  ha  ca  ha  ca  ha  ca  ha  ca  ha  ca  ha  ca  ha  ca  
ha  ca  ha  ha  ca  ha  ha  ha  ca  ha  ca  ha  ha  ca  ha  ha  ca  ha  ha  os  
os  os  os  os  os  c3  c3  c3  c3  c3  c3  h1  h1  h1  h1  h1  h1  h1  h1  h1  
h1  h1  h1  h1  h1  h1  h1  h1  h1  os  ca  c3  ca  ca  h1  h1  h1  ca  ha  ca  
ha  ca  ha  ha  nh  ca  ca  ca  ca  ca  ca  ca  ha  ca  ha  ca  ha  ca  ha  cp  
c5  ha  ca  ha  ha  cp  ca  ca  ca  os  ca  ca  ca  cp  ca  cp  c3  ca  ha  ca  
ha  ca  ha  ca  ha  ca  ca  h1  h1  h1  ha  nh  nh  ca  ha  nh  ca  ha  ca  ca  
ca  ca  ha  ca  ca  ha  ca  ca  ca  ca  ca  ca  ca  ca  ca  ca  ca  ca  ca  ha  
ca  ha  ha  ca  ha  ca  ca  ha  ca  ha  ca  ha  ca  ha  ca  ha  ca  ha  ca  ha  
ca  ha  ca  ha  ha  ca  ha  ha  ha  ca  ha  ca  ha  ha  ca  ha  ha  ca  ha  ha  
os  os  os  os  os  os  c3  c3  c3  c3  c3  c3  h1  h1  h1  h1  h1  h1  h1  h1  
h1  h1  h1  h1  h1  h1  h1  h1  h1  h1  os  ca  c3  ca  ca  h1  h1  h1  ca  ha  
ca  ha  ca  ha  ha  nh  ca  ca  ca  ca  ca  ca  ca  ha  ca  ha  ca  ha  ca  ha  
cp  c5  ha  ca  ha  ha  cp  ca  ca  ca  os  ca  ca  ca  cp  ca  cp  c3  ca  ha  
ca  ha  ca  ha  ca  ha  ca  ca  h1  h1  h1  ha  nh  nh  ca  ha  nh  ca  ha  ca  
ca  ca  ca  ha  ca  ca  ha  ca  ca  ca  ca  ca  ca  ca  ca  ca  ca  ca  ca  ca  
ha  ca  ha  ha  ca  ha  ca  ca  ha  ca  ha  ca  ha  ca  ha  ca  ha  ca  ha  ca  
ha  ca  ha  ca  ha  ha  ca  ha  ha  ha  ca  ha  ca  ha  ha  ca  ha  ha  ca  ha  
ha  os  os  os  os  os  os  c3  c3  c3  c3  c3  c3  h1  h1  h1  h1  h1  h1  h1  
h1  h1  h1  h1  h1  h1  h1  h1  h1  h1  h1  os  ca  c3  ca  ca  h1  h1  h1  ca  
ha  ca  ha  ca  ha  ha  nh  ca  ca  ca  ca  ca  ca  ca  ha  ca  ha  ca  ha  ca  
ha  cp  c5  ha  ca  ha  ha  cp  ca  ca  ca  os  ca  ca  ca  cp  ca  cp  c3  ca  
ha  ca  ha  ca  ha  ca  ha  ca  ca  h1  h1  h1  ha  nh  nh  ca  ha  nh  ca  ha  
ca  ca  ca  ca  ha  ca  ca  ha  ca  ca  ca  ca  ca  ca  ca  ca  ca  ca  ca  ca  
ca  ha  ca  ha  ha  ca  ha  ca  ca  ha  ca  ha  ca  ha  ca  ha  ca  ha  ca  ha  
ca  ha  ca  ha  ca  ha  ha  ca  ha  ha  ha  ca  ha  ca  ha  ha  ca  ha  ha  ca  
ha  ha  os  os  os  os  os  os  c3  c3  c3  c3  c3  c3  h1  h1  h1  h1  h1  h1  
h1  h1  h1  h1  h1  h1  h1  h1  h1  h1  h1  h1  os  ca  c3  ca  ca  h1  h1  h1  
ca  ha  ca  ha  ca  ha  ha  nh  ca  ca  ca  ca  ca  ca  ca  ha  ca  ha  ca  ha  
ca  ha  cp  c5  ha  ca  ha  ha  cp  ca  ca  ca  os  ca  ca  ca  cp  ca  cp  c3  
ca  ha  ca  ha  ca  ha  ca  ha  ca  ca  h1  h1  h1  ha  nh  nh  ca  ha  nh  ca  
ha  ca  ca  ca  ca  ha  ca  ca  ha  ca  ca  ca  ca  ca  ca  ca  ca  ca  ca  ca  
ca  ca  ha  ca  ha  ha  ca  ha  ca  ca  ha  ca  ha  ca  ha  ca  ha  ca  ha  ca  
ha  ca  ha  ca  ha  ca  ha  ha  ca  ha  ha  ha  ca  ha  ca  ha  ha  ca  ha  ha  
ca  ha  ha  os  os  os  os  os  os  c3  c3  c3  c3  c3  c3  h1  h1  h1  h1  h1  
h1  h1  h1  h1  h1  h1  h1  h1  h1  h1  h1  h1  h1  os  ca  c3  ca  ca  h1  h1  
h1  ca  ha  ca  ha  ca  ha  ha  nh  ca  ca  ca  ca  ca  ca  ca  ha  ca  ha  ca  
ha  ca  ha  cp  c5  ha  ca  ha  ha  cp  ca  ca  ca  os  ca  ca  ca  cp  ca  cp  
c3  ca  ha  ca  ha  ca  ha  ca  ha  ca  ca  h1  h1  h1  ha  nh  nh  ca  ha  nh  
ca  ha  ca  ca  ca  ca  ha  ca  ca  ha  ca  ca  ca  ca  ca  ca  ca  ca  ca  ca  
ca  ca  ca  ha  ca  ha  ha  ca  ha  ca  ca  ha  ca  ha  ca  ha  ca  ha  ca  ha  
ca  ha  ca  ha  ca  ha  ca  ha  ha  ca  ha  ha  ha  ca  ha  ca  ha  ha  ca  ha  
ha  ca  ha  ha  os  os  os  os  os  os  c3  c3  c3  c3  c3  c3  h1  h1  h1  h1  
h1  h1  h1  h1  h1  h1  h1  h1  h1  h1  h1  h1  h1  h1  os  ca  c3  ca  ca  h1  
h1  h1  ca  ha  ca  ha  ca  ha  ha  nh  ca  ca  ca  ca  ca  ca  ca  ha  ca  ha  
ca  ha  ca  ha  cp  c5  ha  ca  ha  ha  cp  ca  ca  ca  os  ca  ca  ca  cp  ca  
cp  c3  ca  ha  ca  ha  ca  ha  ca  ha  ca  ca  h1  h1  h1  ha  nh  nh  ca  ha  
nh  ca  ha  ca  ca  ca  ca  ha  ca  ca  ha  ca  ca  ca  ca  ca  ca  ca  ca  ca  
ca  ca  ca  ca  ha  ca  ha  ha  ca  ha  ca  ca  ha  ca  ha  ca  ha  ca  ha  ca  
ha  ca  ha  ca  ha  ca  ha  ca  ha  ha  ca  ha  ha  ha  ca  ha  ca  ha  ha  ca  
ha  ha  ca  ha  ha  os  os  os  os  os  os  c3  c3  c3  c3  c3  c3  h1  h1  h1  
h1  h1  h1  h1  h1  h1  h1  h1  h1  h1  h1  h1  h1  h1  h1  os  ca  c3  ca  ca  
h1  h1  h1  ca  ha  ca  ha  ca  ha  ha  nh  ca  ca  ca  ca  ca  ca  ca  ha  ca  
ha  ca  ha  ca  ha  cp  c5  ha  ca  ha  ha  cp  ca  ca  ca  os  ca  ca  ca  cp  
ca  cp  c3  ca  ha  ca  ha  ca  ha  ca  ha  ca  ca  h1  h1  h1  ha  nh  nh  ca  
ha  nh  ca  ha  ca  ca  ca  ca  ha  ca  ca  ha  ca  ca  ca  ca  ca  ca  ca  ca  
ca  ca  ca  ca  ca  ha  ca  ha  ha  ca  ha  ca  ca  ha  ca  ha  ca  ha  ca  ha  
ca  ha  ca  ha  ca  ha  ca  ha  ca  ha  ha  ca  ha  ha  ha  ca  ha  ca  ha  ha  
ca  ha  ha  ca  ha  ha  os  os  os  os  os  os  c3  c3  c3  c3  c3  c3  h1  h1  
h1  h1  h1  h1  h1  h1  h1  h1  h1  h1  h1  h1  h1  h1  h1  h1  os  ca  c3  ca  
ca  h1  h1  h1  ca  ha  ca  ha  ca  ha  ha  nh  ca  ca  ca  ca  ca  ca  ca  ha  
ca  ha  ca  ha  ca  ha  cp  c5  ha  ca  ha  ha  cp  ca  ca  ca  os  ca  ca  ca  
cp  ca  cp  c3  ca  ha  ca  ha  ca  ha  ca  ha  ca  ca  h1  h1  h1  ha  nh  nh  
ca  ha  nh  ca  ha  ca  ca  ca  ca  ha  ca  ca  ha  ca  ca  ca  ca  ca  ca  ca  
ca  ca  ca  ca  ca  ca  ha  ca  ha  ha  ca  ha  ca  ca  ha  ca  ha  ca  ha  ca  
ha  ca  ha  ca  ha  ca  ha  ca  ha  ca  ha  ha  ca  ha  ha  ha  ca  ha  ca  ha  
ha  ca  ha  ha  ca  ha  ha  os  os  os  os  os  os  c3  c3  c3  c3  c3  c3  h1  
h1  h1  h1  h1  h1  h1  h1  h1  h1  h1  h1  h1  h1  h1  h1  h1  h1  os  ca  c3  
ca  ca  h1  h1  h1  ca  ha  ca  ha  ca  ha  ha  nh  ca  ca  ca  ca  ca  ca  ca  
ha  ca  ha  ca  ha  ca  ha  cp  c5  ha  ca  ha  ha  cp  ca  ca  ca  os  ca  ca  
ca  cp  ca  cp  c3  ca  ha  ca  ha  ca  ha  ca  ha  ca  ca  h1  h1  h1  ha  nh  
nh  ca  ha  nh  ca  ha  ca  ca  ca  ca  ha  ca  ca  ha  ca  ca  ca  ca  ca  ca  
ca  ca  ca  ca  ca  ca  ca  ha  ca  ha  ha  ca  ha  ca  ca  ha  ca  ha  ca  ha  
ca  ha  ca  ha  ca  ha  ca  ha  ca  ha  ca  ha  ha  ca  ha  ha  ha  ca  ha  ca  
ha  ha  ca  ha  ha  ca  ha  ha  os  os  os  os  os  os  c3  c3  c3  c3  c3  c3  
h1  h1  h1  h1  h1  h1  h1  h1  h1  h1  h1  h1  h1  h1  h1  h1  h1  h1  os  ca  
c3  ca  ca  h1  h1  h1  ca  ha  ca  ha  ca  ha  ha  nh  ca  ca  ca  ca  ca  ca  
ca  ha  ca  ha  ca  ha  ca  ha  cp  c5  ha  ca  ha  ha  cp  ca  ca  ca  os  ca  
ca  ca  cp  ca  cp  c3  ca  ha  ca  ha  ca  ha  ca  ha  ca  ca  h1  h1  h1  ha  
nh  nh  ca  ha  nh  ca  ha  ca  ca  ca  ca  ha  ca  ca  ha  ca  ca  ca  ca  ca  
ca  ca  ca  ca  ca  ca  ca  ca  ha  ca  ha  ha  ca  ha  ca  ca  ha  ca  ha  ca  
ha  ca  ha  ca  ha  ca  ha  ca  ha  ca  ha  ca  ha  ha  ca  ha  ha  ha  ca  ha  
ca  ha  ha  ca  ha  ha  ca  ha  ha  os  os  os  os  os  os  c3  c3  c3  c3  c3  
c3  h1  h1  h1  h1  h1  h1  h1  h1  h1  h1  h1  h1  h1  h1  h1  h1  h1  h1  os  
ca  c3  ca  ca  h1  h1  h1  ca  ha  ca  ha  ca  ha  ha  nh  ca  ca  ca  ca  ca  
ca  ca  ha  ca  ha  ca  ha  ca  ha  cp  c5  ha  ca  ha  ha  cp  ca  ca  ca  os  
ca  ca  ca  cp  ca  cp  c3  ca  ha  ca  ha  ca  ha  ca  ha  ca  ca  h1  h1  h1  
ha  nh  nh  ca  ha  nh  ca  ha  ca  ca  ca  ca  ha  ca  ca  ha  ca  ca  ca  ca  
ca  ca  ca  ca  ca  ca  ca  ca  ca  ha  ca  ha  ha  ca  ha  ca  ca  ha  ca  ha  
ca  ha  ca  ha  ca  ha  ca  ha  ca  ha  ca  ha  ca  ha  ha  ca  ha  ha  ha  ca  
ha  ca  ha  ha  ca  ha  ha  ca  ha  ha  os  os  os  os  os  os  c3  c3  c3  c3  
c3  c3  h1  h1  h1  h1  h1  h1  h1  h1  h1  h1  h1  h1  h1  h1  h1  h1  h1  h1  
os  ca  c3  ca  ca  h1  h1  h1  ca  ha  ca  ha  ca  ha  ha  nh  ca  ca  ca  ca  
ca  ca  ca  ha  ca  ha  ca  ha  ca  ha  cp  c5  ha  ca  ha  ha  cp  ca  ca  ca  
os  ca  ca  ca  cp  ca  cp  c3  ca  ha  ca  ha  ca  ha  ca  ha  ca  ca  h1  h1  
h1  ha  nh  nh  ca  ha  nh  ca  ha  ca  ca  ca  ca  ha  ca  ca  ha  ca  ca  ca  
ca  ca  ca  ca  ca  ca  ca  ca  ca  ca  ha  ca  ha  ha  ca  ha  ca  ca  ha  ca  
ha  ca  ha  ca  ha  ca  ha  ca  ha  ca  ha  ca  ha  ca  ha  ha  ca  ha  ha  ha  
ca  ha  ca  ha  ha  ca  ha  ha  ca  ha  ha  os  os  os  os  os  os  c3  c3  c3  
c3  c3  c3  h1  h1  h1  h1  h1  h1  h1  h1  h1  h1  h1  h1  h1  h1  h1  h1  h1  
h1  os  ca  c3  ca  ca  h1  h1  h1  ca  ha  ca  ha  ca  ha  ha  nh  ca  ca  ca  
ca  ca  ca  ca  ha  ca  ha  ca  ha  ca  ha  cp  c5  ha  ca  ha  ha  cp  ca  ca  
ca  os  ca  ca  ca  cp  ca  cp  c3  ca  ha  ca  ha  ca  ha  ca  ha  ca  ca  h1  
h1  h1  ha  nh  nh  ca  ha  nh  ca  ha  ca  ca  ca  ca  ha  ca  ca  ha  ca  ca  
ca  ca  ca  ca  ca  ca  ca  ca  ca  ca  ca  ha  ca  ha  ha  ca  ha  ca  ca  ha  
ca  ha  ca  ha  ca  ha  ca  ha  ca  ha  ca  ha  ca  ha  ca  ha  ha  ca  ha  ha  
ha  ca  ha  ca  ha  ha  ca  ha  ha  ca  ha  ha  os  os  os  os  os  os  c3  c3  
c3  c3  c3  c3  h1  h1  h1  h1  h1  h1  h1  h1  h1  h1  h1  h1  h1  h1  h1  h1  
h1  h1  os  ca  c3  ca  ca  h1  h1  h1  ca  ha  ca  ha  ca  ha  ha  nh  ca  ca  
ca  ca  ca  ca  ca  ha  ca  ha  ca  ha  ca  ha  cp  c5  ha  ca  ha  ha  cp  ca  
ca  ca  os  ca  ca  ca  cp  ca  cp  c3  ca  ha  ca  ha  ca  ha  ca  ha  ca  ca  
h1  h1  h1  ha  nh  nh  ca  ha  nh  ca  ha  ca  ca  ca  ca  ha  ca  ca  ha  ca  
ca  ca  ca  ca  ca  ca  ca  ca  ca  ca  ca  ca  ha  ca  ha  ha  ca  ha  ca  ca  
ha  ca  ha  ca  ha  ca  ha  ca  ha  ca  ha  ca  ha  ca  ha  ca  ha  ha  ca  ha  
ha  ha  ca  ha  ca  ha  ha  ca  ha  ha  ca  ha  ha  os  os  os  os  os  os  c3  
c3  c3  c3  c3  c3  h1  h1  h1  h1  h1  h1  h1  h1  h1  h1  h1  h1  h1  h1  h1  
h1  h1  h1  os  ca  c3  ca  ca  h1  h1  h1  ca  ha  ca  ha  ca  ha  ha  nh  ca  
ca  ca  ca  ca  ca  ca  ha  ca  ha  ca  ha  ca  ha  cp  c5  ha  ca  ha  ha  cp  
ca  ca  ca  os  ca  ca  ca  cp  ca  cp  c3  ca  ha  ca  ha  ca  ha  ca  ha  ca  
ca  h1  h1  h1  ha  nh  nh  ca  ha  nh  ca  ha  ca  ca  ca  ca  ha  ca  ca  ha  
ca  ca  ca  ca  ca  ca  ca  ca  ca  ca  ca  ca  ca  ha  ca  ha  ha  ca  ha  ca  
ca  ha  ca  ha  ca  ha  ca  ha  ca  ha  ca  ha  ca  ha  ca  ha  ca  ha  ha  ca  
ha  ha  ha  ca  ha  ca  ha  ha  ca  ha  ha  ca  ha  ha  os  os  os  os  os  os  
c3  c3  c3  c3  c3  c3  h1  h1  h1  h1  h1  h1  h1  h1  h1  h1  h1  h1  h1  h1  
h1  h1  h1  h1  os  ca  c3  ca  ca  h1  h1  h1  ca  ha  ca  ha  ca  ha  ha  nh  
ca  ca  ca  ca  ca  ca  ca  ha  ca  ha  ca  ha  ca  ha  cp  c5  ha  ca  ha  ha  
cp  ca  ca  ca  os  ca  ca  ca  cp  ca  cp  c3  ca  ha  ca  ha  ca  ha  ca  ha  
ca  ca  h1  h1  h1  ha  nh  nh  ca  ha  nh  ca  ha  ca  ca  ca  ca  ha  ca  ca  
ha  ca  ca  ca  ca  ca  ca  ca  ca  ca  ca  ca  ca  ca  ha  ca  ha  ha  ca  ha  
ca  ca  ha  ca  ha  ca  ha  ca  ha  ca  ha  ca  ha  ca  ha  ca  ha  ca  ha  ha  
ca  ha  ha  ha  ca  ha  ca  ha  ha  ca  ha  ha  ca  ha  ha  os  os  os  os  os  
os  c3  c3  c3  c3  c3  c3  h1  h1  h1  h1  h1  h1  h1  h1  h1  h1  h1  h1  h1  
h1  h1  h1  h1  h1  os  ca  c3  ca  ca  h1  h1  h1  ca  ha  ca  ha  ca  ha  ha  
nh  ca  ca  ca  ca  ca  ca  ca  ha  ca  ha  ca  ha  ca  ha  cp  c5  ha  ca  ha  
ha  cp  ca  ca  ca  os  ca  ca  ca  cp  ca  cp  c3  ca  ha  ca  ha  ca  ha  ca  
ha  ca  ca  h1  h1  h1  ha  nh  nh  ca  ha  nh  ca  ha  ca  ca  ca  ca  ha  ca  
ca  ha  ca  ca  ca  ca  ca  ca  ca  ca  ca  ca  ca  ca  ca  ha  ca  ha  ha  ca  
ha  ca  ca  ha  ca  ha  ca  ha  ca  ha  ca  ha  ca  ha  ca  ha  ca  ha  ca  ha  
ha  ca  ha  ha  ha  ca  ha  ca  ha  ha  ca  ha  ha  ca  ha  ha  os  os  os  os  
os  os  c3  c3  c3  c3  c3  c3  h1  h1  h1  h1  h1  h1  h1  h1  h1  h1  h1  h1  
h1  h1  h1  h1  h1  h1  os  ca  c3  ca  ca  h1  h1  h1  ca  ha  ca  ha  ca  ha  
ha  nh  ca  ca  ca  ca  ca  ca  ca  ha  ca  ha  ca  ha  ca  ha  cp  c5  ha  ca  
ha  ha  cp  ca  ca  ca  os  ca  ca  ca  cp  ca  cp  c3  ca  ha  ca  ha  ca  ha  
ca  ha  ca  ca  h1  h1  h1  ha  nh  nh  ca  ha  nh  ca  ha  ca  ca  ca  ca  ha  
ca  ca  ha  ca  ca  ca  ca  ca  ca  ca  ca  ca  ca  ca  ca  ca  ha  ca  ha  ha  
ca  ha  ca  ca  ha  ca  ha  ca  ha  ca  ha  ca  ha  ca  ha  ca  ha  ca  ha  ca  
ha  ha  ca  ha  ha  ha  ca  ha  ca  ha  ha  ca  ha  ha  ca  ha  ha  os  os  os  
os  os  os  c3  c3  c3  c3  c3  c3  h1  h1  h1  h1  h1  h1  h1  h1  h1  h1  h1  
h1  h1  h1  h1  h1  h1  h1  os  ca  c3  ca  ca  h1  h1  h1  ca  ha  ca  ha  ca  
ha  ha  nh  ca  ca  ca  ca  ca  ca  ca  ha  ca  ha  ca  ha  ca  ha  cp  c5  ha  
ca  ha  ha  cp  ca  ca  ca  os  ca  ca  ca  cp  ca  cp  c3  ca  ha  ca  ha  ca  
ha  ca  ha  ca  ca  h1  h1  h1  ha  nh  nh  ca  ha  nh  ca  ha  ca  ca  ca  ca  
ha  ca  ca  ha  ca  ca  ca  ca  ca  ca  ca  ca  ca  ca  ca  ca  ca  ha  ca  ha  
ha  ca  ha  ca  ca  ha  ca  ha  ca  ha  ca  ha  ca  ha  ca  ha  ca  ha  ca  ha  
ca  ha  ha  ca  ha  ha  ha  ca  ha  ca  ha  ha  ca  ha  ha  ca  ha  ha  os  os  
os  os  os  os  c3  c3  c3  c3  c3  c3  h1  h1  h1  h1  h1  h1  h1  h1  h1  h1  
h1  h1  h1  h1  h1  h1  h1  h1  os  ca  c3  ca  ca  h1  h1  h1  ca  ha  ca  ha  
ca  ha  ha  nh  ca  ca  ca  ca  ca  ca  ca  ha  ca  ha  ca  ha  ca  ha  cp  c5  
ha  ca  ha  ha  cp  ca  ca  ca  os  ca  ca  ca  cp  ca  cp  c3  ca  ha  ca  ha  
ca  ha  ca  ha  ca  ca  h1  h1  h1  ha  nh  nh  ca  ha  nh  ca  ha  ca  ca  ca  
ca  ha  ca  ca  ha  ca  ca  ca  ca  ca  ca  ca  ca  ca  ca  ca  ca  ca  ha  ca  
ha  ha  ca  ha  ca  ca  ha  ca  ha  ca  ha  ca  ha  ca  ha  ca  ha  ca  ha  ca  
ha  ca  ha  ha  ca  ha  ha  ha  ca  ha  ca  ha  ha  ca  ha  ha  ca  ha  ha  os  
os  os  os  os  os  c3  c3  c3  c3  c3  c3  h1  h1  h1  h1  h1  h1  h1  h1  h1  
h1  h1  h1  h1  h1  h1  h1  h1  h1  os  ca  c3  ca  ca  h1  h1  h1  ca  ha  ca  
ha  ca  ha  ha  nh  ca  ca  ca  ca  ca  ca  ca  ha  ca  ha  ca  ha  ca  ha  cp  
c5  ha  ca  ha  ha  cp  ca  ca  ca  os  ca  ca  ca  cp  ca  cp  c3  ca  ha  ca  
ha  ca  ha  ca  ha  ca  ca  h1  h1  h1  ha  nh  nh  ca  ha  nh  ca  ha  ca  ca  
ca  ca  ha  ca  ca  ha  ca  ca  ca  ca  ca  ca  ca  ca  ca  ca  ca  ca  ca  ha  
ca  ha  ha  ca  ha  ca  ca  ha  ca  ha  ca  ha  ca  ha  ca  ha  ca  ha  ca  ha  
ca  ha  ca  ha  ha  ca  ha  ha  ha  ca  ha  ca  ha  ha  ca  ha  ha  ca  ha  ha  
os  os  os  os  os  os  c3  c3  c3  c3  c3  c3  h1  h1  h1  h1  h1  h1  h1  h1  
h1  h1  h1  h1  h1  h1  h1  h1  h1  h1  os  ca  c3  ca  ca  h1  h1  h1  ca  ha  
ca  ha  ca  ha  ha  nh  ca  ca  ca  ca  ca  ca  ca  ha  ca  ha  ca  ha  ca  ha  
cp  c5  ha  ca  ha  ha  cp  ca  ca  ca  os  ca  ca  ca  cp  ca  cp  c3  ca  ha  
ca  ha  ca  ha  ca  ha  ca  ca  h1  h1  h1  ha  nh  nh  ca  ha  nh  ca  ha  ca  
ca  ca  ca  ha  ca  ca  ha  ca  ca  ca  ca  ca  ca  ca  ca  ca  ca  ca  ca  ca  
ha  ca  ha  ha  ca  ha  ca  ca  ha  ca  ha  ca  ha  ca  ha  ca  ha  ca  ha  ca  
ha  ca  ha  ca  ha  ha  ca  ha  ha  ha  ca  ha  ca  ha  ha  ca  ha  ha  ca  ha  
ha  os  os  os  os  os  os  c3  c3  c3  c3  c3  c3  h1  h1  h1  h1  h1  h1  h1  
h1  h1  h1  h1  h1  h1  h1  h1  h1  h1  h1  os  ca  c3  ca  ca  h1  h1  h1  ca  
ha  ca  ha  ca  ha  ha  nh  ca  ca  ca  ca  ca  ca  ca  ha  ca  ha  ca  ha  ca  
ha  cp  c5  ha  ca  ha  ha  cp  ca  ca  ca  os  ca  ca  ca  cp  ca  cp  c3  ca  
ha  ca  ha  ca  ha  ca  ha  ca  ca  h1  h1  h1  ha  nh  nh  ca  ha  nh  ca  ha  
ca  ca  ca  ca  ha  ca  ca  ha  ca  ca  ca  ca  ca  ca  ca  ca  ca  ca  ca  ca  
ca  ha  ca  ha  ha  ca  ha  ca  ca  ha  ca  ha  ca  ha  ca  ha  ca  ha  ca  ha  
ca  ha  ca  ha  ca  ha  ha  ca  ha  ha  ha  ca  ha  ca  ha  ha  ca  ha  ha  ca  
ha  ha  os  os  os  os  os  os  c3  c3  c3  c3  c3  c3  h1  h1  h1  h1  h1  h1  
h1  h1  h1  h1  h1  h1  h1  h1  h1  h1  h1  h1  os  ca  c3  ca  ca  h1  h1  h1  
ca  ha  ca  ha  ca  ha  ha  nh  ca  ca  ca  ca  ca  ca  ca  ha  ca  ha  ca  ha  
ca  ha  cp  c5  ha  ca  ha  ha  cp  ca  ca  ca  os  ca  ca  ca  cp  ca  cp  c3  
ca  ha  ca  ha  ca  ha  ca  ha  ca  ca  h1  h1  h1  ha  nh  nh  ca  ha  nh  ca  
ha  ca  ca  ca  ca  ha  ca  ca  ha  ca  ca  ca  ca  ca  ca  ca  ca  ca  ca  ca  
ca  ca  ha  ca  ha  ha  ca  ha  ca  ca  ha  ca  ha  ca  ha  ca  ha  ca  ha  ca  
ha  ca  ha  ca  ha  ca  ha  ha  ca  ha  ha  ha  ca  ha  ca  ha  ha  ca  ha  ha  
ca  ha  ha  os  os  os  os  os  os  c3  c3  c3  c3  c3  c3  h1  h1  h1  h1  h1  
h1  h1  h1  h1  h1  h1  h1  h1  h1  h1  h1  h1  h1  os  ca  c3  ca  ca  h1  h1  
h1  ca  ha  ca  ha  ca  ha  ha  nh  ca  ca  ca  ca  ca  ca  ca  ha  ca  ha  ca  
ha  ca  ha  cp  c5  ha  ca  ha  ha  cp  ca  ca  ca  os  ca  ca  ca  cp  ca  cp  
c3  ca  ha  ca  ha  ca  ha  ca  ha  ca  ca  h1  h1  h1  ha  nh  nh  ca  ha  nh  
ca  ha  ca  ca  ca  ca  ha  ca  ca  ha  ca  ca  ca  ca  ca  ca  ca  ca  ca  ca  
ca  ca  ca  ha  ca  ha  ha  ca  ha  ca  ca  ha  ca  ha  ca  ha  ca  ha  ca  ha  
ca  ha  ca  ha  ca  ha  ca  ha  ha  ca  ha  ha  ha  ca  ha  ca  ha  ha  ca  ha  
ha  ca  ha  ha  os  os  os  os  os  os  c3  c3  c3  c3  c3  c3  h1  h1  h1  h1  
h1  h1  h1  h1  h1  h1  h1  h1  h1  h1  h1  h1  h1  h1  os  ca  c3  ca  ca  h1  
h1  h1  ca  ha  ca  ha  ca  ha  ha  nh  ca  ca  ca  ca  ca  ca  ca  ha  ca  ha  
ca  ha  ca  ha  cp  c5  ha  ca  ha  ha  cp  ca  ca  ca  os  ca  ca  ca  cp  ca  
cp  c3  ca  ha  ca  ha  ca  ha  ca  ha  ca  ca  h1  h1  h1  ha  nh  nh  ca  ha  
nh  ca  ha  ca  ca  ca  ca  ha  ca  ca  ha  ca  ca  ca  ca  ca  ca  ca  ca  ca  
ca  ca  ca  ca  ha  ca  ha  ha  ca  ha  ca  ca  ha  ca  ha  ca  ha  ca  ha  ca  
ha  ca  ha  ca  ha  ca  ha  ca  ha  ha  ca  ha  ha  ha  ca  ha  ca  ha  ha  ca  
ha  ha  ca  ha  ha  os  os  os  os  os  os  c3  c3  c3  c3  c3  c3  h1  h1  h1  
h1  h1  h1  h1  h1  h1  h1  h1  h1  h1  h1  h1  h1  h1  h1  os  ca  c3  ca  ca  
h1  h1  h1  ca  ha  ca  ha  ca  ha  ha  nh  ca  ca  ca  ca  ca  ca  ca  ha  ca  
ha  ca  ha  ca  ha  cp  c5  ha  ca  ha  ha  cp  ca  ca  ca  os  ca  ca  ca  cp  
ca  cp  c3  ca  ha  ca  ha  ca  ha  ca  ha  ca  ca  h1  h1  h1  ha  nh  nh  ca  
ha  nh  ca  ha  ca  ca  ca  ca  ha  ca  ca  ha  ca  ca  ca  ca  ca  ca  ca  ca  
ca  ca  ca  ca  ca  ha  ca  ha  ha  ca  ha  ca  ca  ha  ca  ha  ca  ha  ca  ha  
ca  ha  ca  ha  ca  ha  ca  ha  ca  ha  ha  ca  ha  ha  ha  ca  ha  ca  ha  ha  
ca  ha  ha  ca  ha  ha  os  os  os  os  os  os  c3  c3  c3  c3  c3  c3  h1  h1  
h1  h1  h1  h1  h1  h1  h1  h1  h1  h1  h1  h1  h1  h1  h1  h1  os  ca  c3  ca  
ca  h1  h1  h1  ca  ha  ca  ha  ca  ha  ha  nh  ca  ca  ca  ca  ca  ca  ca  ha  
ca  ha  ca  ha  ca  ha  cp  c5  ha  ca  ha  ha  cp  ca  ca  ca  os  ca  ca  ca  
cp  ca  cp  c3  ca  ha  ca  ha  ca  ha  ca  ha  ca  ca  h1  h1  h1  ha  nh  nh  
ca  ha  nh  ca  ha  ca  ca  ca  ca  ha  ca  ca  ha  ca  ca  ca  ca  ca  ca  ca  
ca  ca  ca  ca  ca  ca  ha  ca  ha  ha  ca  ha  ca  ca  ha  ca  ha  ca  ha  ca  
ha  ca  ha  ca  ha  ca  ha  ca  ha  ca  ha  ha  ca  ha  ha  ha  ca  ha  ca  ha  
ha  ca  ha  ha  ca  ha  ha  os  os  os  os  os  os  c3  c3  c3  c3  c3  c3  h1  
h1  h1  h1  h1  h1  h1  h1  h1  h1  h1  h1  h1  h1  h1  h1  h1  h1  os  ca  c3  
ca  ca  h1  h1  h1  ca  ha  ca  ha  ca  ha  ha  nh  ca  ca  ca  ca  ca  ca  ca  
ha  ca  ha  ca  ha  ca  ha  cp  c5  ha  ca  ha  ha  cp  ca  ca  ca  os  ca  ca  
ca  cp  ca  cp  c3  ca  ha  ca  ha  ca  ha  ca  ha  ca  ca  h1  h1  h1  ha  nh  
nh  ca  ha  nh  ca  ha  ca  ca  ca  ca  ha  ca  ca  ha  ca  ca  ca  ca  ca  ca  
ca  ca  ca  ca  ca  ca  ca  ha  ca  ha  ha  ca  ha  ca  ca  ha  ca  ha  ca  ha  
ca  ha  ca  ha  ca  ha  ca  ha  ca  ha  ca  ha  ha  ca  ha  ha  ha  ca  ha  ca  
ha  ha  ca  ha  ha  ca  ha  ha  os  os  os  os  os  os  c3  c3  c3  c3  c3  c3  
h1  h1  h1  h1  h1  h1  h1  h1  h1  h1  h1  h1  h1  h1  h1  h1  h1  h1  os  ca  
c3  ca  ca  h1  h1  h1  ca  ha  ca  ha  ca  ha  ha  nh  ca  ca  ca  ca  ca  ca  
ca  ha  ca  ha  ca  ha  ca  ha  cp  c5  ha  ca  ha  ha  cp  ca  ca  ca  os  ca  
ca  ca  cp  ca  cp  c3  ca  ha  ca  ha  ca  ha  ca  ha  ca  ca  h1  h1  h1  ha  
nh  nh  ca  ha  nh  ca  ha  ca  ca  ca  ca  ha  ca  ca  ha  ca  ca  ca  ca  ca  
ca  ca  ca  ca  ca  ca  ca  ca  ha  ca  ha  ha  ca  ha  ca  ca  ha  ca  ha  ca  
ha  ca  ha  ca  ha  ca  ha  ca  ha  ca  ha  ca  ha  ha  ca  ha  ha  ha  ca  ha  
ca  ha  ha  ca  ha  ha  ca  ha  ha  os  os  os  os  os  os  c3  c3  c3  c3  c3  
c3  h1  h1  h1  h1  h1  h1  h1  h1  h1  h1  h1  h1  h1  h1  h1  h1  h1  h1  os  
ca  c3  ca  ca  h1  h1  h1  ca  ha  ca  ha  ca  ha  ha  nh  ca  ca  ca  ca  ca  
ca  ca  ha  ca  ha  ca  ha  ca  ha  cp  c5  ha  ca  ha  ha  cp  ca  ca  ca  os  
ca  ca  ca  cp  ca  cp  c3  ca  ha  ca  ha  ca  ha  ca  ha  ca  ca  h1  h1  h1  
ha  nh  nh  ca  ha  nh  ca  ha  ca  ca  ca  ca  ha  ca  ca  ha  ca  ca  ca  ca  
ca  ca  ca  ca  ca  ca  ca  ca  ca  ha  ca  ha  ha  ca  ha  ca  ca  ha  ca  ha  
ca  ha  ca  ha  ca  ha  ca  ha  ca  ha  ca  ha  ca  ha  ha  ca  ha  ha  ha  ca  
ha  ca  ha  ha  ca  ha  ha  ca  ha  ha  os  os  os  os  os  os  c3  c3  c3  c3  
c3  c3  h1  h1  h1  h1  h1  h1  h1  h1  h1  h1  h1  h1  h1  h1  h1  h1  h1  h1  
os  ca  c3  ca  ca  h1  h1  h1  ca  ha  ca  ha  ca  ha  ha  nh  ca  ca  ca  ca  
ca  ca  ca  ha  ca  ha  ca  ha  ca  ha  cp  c5  ha  ca  ha  ha  cp  ca  ca  ca  
os  ca  ca  ca  cp  ca  cp  c3  ca  ha  ca  ha  ca  ha  ca  ha  ca  ca  h1  h1  
h1  ha  nh  nh  ca  ha  nh  ca  ha  ca  ca  ca  ca  ha  ca  ca  ha  ca  ca  ca  
ca  ca  ca  ca  ca  ca  ca  ca  ca  ca  ha  ca  ha  ha  ca  ha  ca  ca  ha  ca  
ha  ca  ha  ca  ha  ca  ha  ca  ha  ca  ha  ca  ha  ca  ha  ha  ca  ha  ha  ha  
ca  ha  ca  ha  ha  ca  ha  ha  ca  ha  ha  os  os  os  os  os  os  c3  c3  c3  
c3  c3  c3  h1  h1  h1  h1  h1  h1  h1  h1  h1  h1  h1  h1  h1  h1  h1  h1  h1  
h1  os  ca  c3  ca  ca  h1  h1  h1  ca  ha  ca  ha  ca  ha  ha  nh  ca  ca  ca  
ca  ca  ca  ca  ha  ca  ha  ca  ha  ca  ha  cp  c5  ha  ca  ha  ha  cp  ca  ca  
ca  os  ca  ca  ca  cp  ca  cp  c3  ca  ha  ca  ha  ca  ha  ca  ha  ca  ca  h1  
h1  h1  ha  nh  nh  ca  ha  nh  ca  ha  ca  ca  ca  ca  ha  ca  ca  ha  ca  ca  
ca  ca  ca  ca  ca  ca  ca  ca  ca  ca  ca  ha  ca  ha  ha  ca  ha  ca  ca  ha  
ca  ha  ca  ha  ca  ha  ca  ha  ca  ha  ca  ha  ca  ha  ca  ha  ha  ca  ha  ha  
ha  ca  ha  ca  ha  ha  ca  ha  ha  ca  ha  ha  os  os  os  os  os  os  c3  c3  
c3  c3  c3  c3  h1  h1  h1  h1  h1  h1  h1  h1  h1  h1  h1  h1  h1  h1  h1  h1  
h1  h1  os  ca  c3  ca  ca  h1  h1  h1  ca  ha  ca  ha  ca  ha  ha  nh  ca  ca  
ca  ca  ca  ca  ca  ha  ca  ha  ca  ha  ca  ha  cp  c5  ha  ca  ha  ha  cp  ca  
ca  ca  os  ca  ca  ca  cp  ca  cp  c3  ca  ha  ca  ha  ca  ha  ca  ha  ca  ca  
h1  h1  h1  ha  nh  nh  ca  ha  nh  ca  ha  ca  ca  ca  ca  ha  ca  ca  ha  ca  
ca  ca  ca  ca  ca  ca  ca  ca  ca  ca  ca  ca  ha  ca  ha  ha  ca  ha  ca  ca  
ha  ca  ha  ca  ha  ca  ha  ca  ha  ca  ha  ca  ha  ca  ha  ca  ha  ha  ca  ha  
ha  ha  ca  ha  ca  ha  ha  ca  ha  ha  ca  ha  ha  os  os  os  os  os  os  c3  
c3  c3  c3  c3  c3  h1  h1  h1  h1  h1  h1  h1  h1  h1  h1  h1  h1  h1  h1  h1  
h1  h1  h1  os  ca  c3  ca  ca  h1  h1  h1  ca  ha  ca  ha  ca  ha  ha  nh  ca  
ca  ca  ca  ca  ca  ca  ha  ca  ha  ca  ha  ca  ha  cp  c5  ha  ca  ha  ha  cp  
ca  ca  ca  os  ca  ca  ca  cp  ca  cp  c3  ca  ha  ca  ha  ca  ha  ca  ha  ca  
ca  h1  h1  h1  ha  nh  nh  ca  ha  nh  ca  ha  ca  ca  ca  ca  ha  ca  ca  ha  
ca  ca  ca  ca  ca  ca  ca  ca  ca  ca  ca  ca  ca  ha  ca  ha  ha  ca  ha  ca  
ca  ha  ca  ha  ca  ha  ca  ha  ca  ha  ca  ha  ca  ha  ca  ha  ca  ha  ha  ca  
ha  ha  ha  ca  ha  ca  ha  ha  ca  ha  ha  ca  ha  ha  os  os  os  os  os  os  
c3  c3  c3  c3  c3  c3  h1  h1  h1  h1  h1  h1  h1  h1  h1  h1  h1  h1  h1  h1  
h1  h1  h1  h1  os  ca  c3  ca  ca  h1  h1  h1  ca  ha  ca  ha  ca  ha  ha  nh  
ca  ca  ca  ca  ca  ca  ca  ha  ca  ha  ca  ha  ca  ha  cp  c5  ha  ca  ha  ha  
cp  ca  ca  ca  os  ca  ca  ca  cp  ca  cp  c3  ca  ha  ca  ha  ca  ha  ca  ha  
ca  ca  h1  h1  h1  ha  nh  nh  ca  ha  nh  ca  ha  ca  ca  ca  ca  ha  ca  ca  
ha  ca  ca  ca  ca  ca  ca  ca  ca  ca  ca  ca  ca  ca  ha  ca  ha  ha  ca  ha  
ca  ca  ha  ca  ha  ca  ha  ca  ha  ca  ha  ca  ha  ca  ha  ca  ha  ca  ha  ha  
ca  ha  ha  ha  ca  ha  ca  ha  ha  ca  ha  ha  ca  ha  ha  os  os  os  os  os  
os  c3  c3  c3  c3  c3  c3  h1  h1  h1  h1  h1  h1  h1  h1  h1  h1  h1  h1  h1  
h1  h1  h1  h1  h1  os  ca  c3  ca  ca  h1  h1  h1  ca  ha  ca  ha  ca  ha  ha  
nh  ca  ca  ca  ca  ca  ca  ca  ha  ca  ha  ca  ha  ca  ha  cp  c5  ha  ca  ha  
ha  cp  ca  ca  ca  os  ca  ca  ca  cp  ca  cp  c3  ca  ha  ca  ha  ca  ha  ca  
ha  ca  ca  h1  h1  h1  ha  nh  nh  ca  ha  nh  ca  ha  ca  ca  ca  ca  ha  ca  
ca  ha  ca  ca  ca  ca  ca  ca  ca  ca  ca  ca  ca  ca  ca  ha  ca  ha  ha  ca  
ha  ca  ca  ha  ca  ha  ca  ha  ca  ha  ca  ha  ca  ha  ca  ha  ca  ha  ca  ha  
ha  ca  ha  ha  ha  ca  ha  ca  ha  ha  ca  ha  ha  ca  ha  ha  os  os  os  os  
os  os  c3  c3  c3  c3  c3  c3  h1  h1  h1  h1  h1  h1  h1  h1  h1  h1  h1  h1  
h1  h1  h1  h1  h1  h1  os  ca  c3  ca  ca  h1  h1  h1  ca  ha  ca  ha  ca  ha  
ha  nh  ca  ca  ca  ca  ca  ca  ca  ha  ca  ha  ca  ha  ca  ha  cp  c5  ha  ca  
ha  ha  cp  ca  ca  ca  os  ca  ca  ca  cp  ca  cp  c3  ca  ha  ca  ha  ca  ha  
ca  ha  ca  ca  h1  h1  h1  ha  nh  nh  ca  ha  nh  ca  ha  ca  ca  ca  ca  ha  
ca  ca  ha  ca  ca  ca  ca  ca  ca  ca  ca  ca  ca  ca  ca  ca  ha  ca  ha  ha  
ca  ha  ca  ca  ha  ca  ha  ca  ha  ca  ha  ca  ha  ca  ha  ca  ha  ca  ha  ca  
ha  ha  ca  ha  ha  ha  ca  ha  ca  ha  ha  ca  ha  ha  ca  ha  ha  os  os  os  
os  os  os  c3  c3  c3  c3  c3  c3  h1  h1  h1  h1  h1  h1  h1  h1  h1  h1  h1  
h1  h1  h1  h1  h1  h1  h1  os  ca  c3  ca  ca  h1  h1  h1  ca  ha  ca  ha  ca  
ha  ha  nh  ca  ca  ca  ca  ca  ca  ca  ha  ca  ha  ca  ha  ca  ha  cp  c5  ha  
ca  ha  ha  cp  ca  ca  ca  os  ca  ca  ca  cp  ca  cp  c3  ca  ha  ca  ha  ca  
ha  ca  ha  ca  ca  h1  h1  h1  ha  nh  nh  ca  ha  nh  ca  ha  ca  ca  ca  ca  
ha  ca  ca  ha  ca  ca  ca  ca  ca  ca  ca  ca  ca  ca  ca  ca  ca  ha  ca  ha  
ha  ca  ha  ca  ca  ha  ca  ha  ca  ha  ca  ha  ca  ha  ca  ha  ca  ha  ca  ha  
ca  ha  ha  ca  ha  ha  ha  ca  ha  ca  ha  ha  ca  ha  ha  ca  ha  ha  os  os  
os  os  os  os  c3  c3  c3  c3  c3  c3  h1  h1  h1  h1  h1  h1  h1  h1  h1  h1  
h1  h1  h1  h1  h1  h1  h1  h1  os  ca  c3  ca  ca  h1  h1  h1  ca  ha  ca  ha  
ca  ha  ha  nh  ca  ca  ca  ca  ca  ca  ca  ha  ca  ha  ca  ha  ca  ha  cp  c5  
ha  ca  ha  ha  cp  ca  ca  ca  os  ca  ca  ca  cp  ca  cp  c3  ca  ha  ca  ha  
ca  ha  ca  ha  ca  ca  h1  h1  h1  ha  nh  nh  ca  ha  nh  ca  ha  ca  ca  ca  
ca  ha  ca  ca  ha  ca  ca  ca  ca  ca  ca  ca  ca  ca  ca  ca  ca  ca  ha  ca  
ha  ha  ca  ha  ca  ca  ha  ca  ha  ca  ha  ca  ha  ca  ha  ca  ha  ca  ha  ca  
ha  ca  ha  ha  ca  ha  ha  ha  ca  ha  ca  ha  ha  ca  ha  ha  ca  ha  ha  os  
os  os  os  os  os  c3  c3  c3  c3  c3  c3  h1  h1  h1  h1  h1  h1  h1  h1  h1  
h1  h1  h1  h1  h1  h1  h1  h1  h1  os  ca  c3  ca  ca  h1  h1  h1  ca  ha  ca  
ha  ca  ha  ha  nh  ca  ca  ca  ca  ca  ca  ca  ha  ca  ha  ca  ha  ca  ha  cp  
c5  ha  ca  ha  ha  cp  ca  ca  ca  os  ca  ca  ca  cp  ca  cp  c3  ca  ha  ca  
ha  ca  ha  ca  ha  ca  ca  h1  h1  h1  ha  nh  nh  ca  ha  nh  ca  ha  ca  ca  
ca  ca  ha  ca  ca  ha  ca  ca  ca  ca  ca  ca  ca  ca  ca  ca  ca  ca  ca  ha  
ca  ha  ha  ca  ha  ca  ca  ha  ca  ha  ca  ha  ca  ha  ca  ha  ca  ha  ca  ha  
ca  ha  ca  ha  ha  ca  ha  ha  ha  ca  ha  ca  ha  ha  ca  ha  ha  ca  ha  ha  
os  os  os  os  os  os  c3  c3  c3  c3  c3  c3  h1  h1  h1  h1  h1  h1  h1  h1  
h1  h1  h1  h1  h1  h1  h1  h1  h1  h1  os  ca  c3  ca  ca  h1  h1  h1  ca  ha  
ca  ha  ca  ha  ha  nh  ca  ca  ca  ca  ca  ca  ca  ha  ca  ha  ca  ha  ca  ha  
cp  c5  ha  ca  ha  ha  cp  ca  ca  ca  os  ca  ca  ca  cp  ca  cp  c3  ca  ha  
ca  ha  ca  ha  ca  ha  ca  ca  h1  h1  h1  ha  nh  nh  ca  ha  nh  ca  ha  ca  
ca  ca  ca  ha  ca  ca  ha  ca  ca  ca  ca  ca  ca  ca  ca  ca  ca  ca  ca  ca  
ha  ca  ha  ha  ca  ha  ca  ca  ha  ca  ha  ca  ha  ca  ha  ca  ha  ca  ha  ca  
ha  ca  ha  ca  ha  ha  ca  ha  ha  ha  ca  ha  ca  ha  ha  ca  ha  ha  ca  ha  
ha  os  os  os  os  os  os  c3  c3  c3  c3  c3  c3  h1  h1  h1  h1  h1  h1  h1  
h1  h1  h1  h1  h1  h1  h1  h1  h1  h1  h1  os  ca  c3  ca  ca  h1  h1  h1  ca  
ha  ca  ha  ca  ha  ha  nh  ca  ca  ca  ca  ca  ca  ca  ha  ca  ha  ca  ha  ca  
ha  cp  c5  ha  ca  ha  ha  cp  ca  ca  ca  os  ca  ca  ca  cp  ca  cp  c3  ca  
ha  ca  ha  ca  ha  ca  ha  ca  ca  h1  h1  h1  ha  nh  nh  ca  ha  nh  ca  ha  
ca  ca  ca  ca  ha  ca  ca  ha  ca  ca  ca  ca  ca  ca  ca  ca  ca  ca  ca  ca  
ca  ha  ca  ha  ha  ca  ha  ca  ca  ha  ca  ha  ca  ha  ca  ha  ca  ha  ca  ha  
ca  ha  ca  ha  ca  ha  ha  ca  ha  ha  ha  ca  ha  ca  ha  ha  ca  ha  ha  ca  
ha  ha  os  os  os  os  os  os  c3  c3  c3  c3  c3  c3  h1  h1  h1  h1  h1  h1  
h1  h1  h1  h1  h1  h1  h1  h1  h1  h1  h1  h1  os  ca  c3  ca  ca  h1  h1  h1  
ca  ha  ca  ha  ca  ha  ha  nh  ca  ca  ca  ca  ca  ca  ca  ha  ca  ha  ca  ha  
ca  ha  cp  c5  ha  ca  ha  ha  cp  ca  ca  ca  os  ca  ca  ca  cp  ca  cp  c3  
ca  ha  ca  ha  ca  ha  ca  ha  ca  ca  h1  h1  h1  ha  nh  nh  ca  ha  nh  ca  
ha  ca  ca  ca  ca  ha  ca  ca  ha  ca  ca  ca  ca  ca  ca  ca  ca  ca  ca  ca  
ca  ca  ha  ca  ha  ha  ca  ha  ca  ca  ha  ca  ha  ca  ha  ca  ha  ca  ha  ca  
ha  ca  ha  ca  ha  ca  ha  ha  ca  ha  ha  ha  ca  ha  ca  ha  ha  ca  ha  ha  
ca  ha  ha  os  os  os  os  os  os  c3  c3  c3  c3  c3  c3  h1  h1  h1  h1  h1  
h1  h1  h1  h1  h1  h1  h1  h1  h1  h1  h1  h1  h1  os  ca  c3  ca  ca  h1  h1  
h1  ca  ha  ca  ha  ca  ha  ha  nh  ca  ca  ca  ca  ca  ca  ca  ha  ca  ha  ca  
ha  ca  ha  cp  c5  ha  ca  ha  ha  cp  ca  ca  ca  os  ca  ca  ca  cp  ca  cp  
c3  ca  ha  ca  ha  ca  ha  ca  ha  ca  ca  h1  h1  h1  ha  nh  nh  ca  ha  nh  
ca  ha  ca  ca  ca  ca  ha  ca  ca  ha  ca  ca  ca  ca  ca  ca  ca  ca  ca  ca  
ca  ca  ca  ha  ca  ha  ha  ca  ha  ca  ca  ha  ca  ha  ca  ha  ca  ha  ca  ha  
ca  ha  ca  ha  ca  ha  ca  ha  ha  ca  ha  ha  ha  ca  ha  ca  ha  ha  ca  ha  
ha  ca  ha  ha  os  os  os  os  os  os  c3  c3  c3  c3  c3  c3  h1  h1  h1  h1  
h1  h1  h1  h1  h1  h1  h1  h1  h1  h1  h1  h1  h1  h1  os  ca  c3  ca  ca  h1  
h1  h1  ca  ha  ca  ha  ca  ha  ha  nh  ca  ca  ca  ca  ca  ca  ca  ha  ca  ha  
ca  ha  ca  ha  cp  c5  ha  ca  ha  ha  cp  ca  ca  ca  os  ca  ca  ca  cp  ca  
cp  c3  ca  ha  ca  ha  ca  ha  ca  ha  ca  ca  h1  h1  h1  ha  nh  nh  ca  ha  
nh  ca  ha  ca  ca  ca  ca  ha  ca  ca  ha  ca  ca  ca  ca  ca  ca  ca  ca  ca  
ca  ca  ca  ca  ha  ca  ha  ha  ca  ha  ca  ca  ha  ca  ha  ca  ha  ca  ha  ca  
ha  ca  ha  ca  ha  ca  ha  ca  ha  ha  ca  ha  ha  ha  ca  ha  ca  ha  ha  ca  
ha  ha  ca  ha  ha  os  os  os  os  os  os  c3  c3  c3  c3  c3  c3  h1  h1  h1  
h1  h1  h1  h1  h1  h1  h1  h1  h1  h1  h1  h1  h1  h1  h1  os  ca  c3  ca  ca  
h1  h1  h1  ca  ha  ca  ha  ca  ha  ha  nh  ca  ca  ca  ca  ca  ca  ca  ha  ca  
ha  ca  ha  ca  ha  cp  c5  ha  ca  ha  ha  cp  ca  ca  ca  os  ca  ca  ca  cp  
ca  cp  c3  ca  ha  ca  ha  ca  ha  ca  ha  ca  ca  h1  h1  h1  ha  nh  nh  ca  
ha  nh  ca  ha  ca  ca  ca  ca  ha  ca  ca  ha  ca  ca  ca  ca  ca  ca  ca  ca  
ca  ca  ca  ca  ca  ha  ca  ha  ha  ca  ha  ca  ca  ha  ca  ha  ca  ha  ca  ha  
ca  ha  ca  ha  ca  ha  ca  ha  ca  ha  ha  ca  ha  ha  ha  ca  ha  ca  ha  ha  
ca  ha  ha  ca  ha  ha  os  os  os  os  os  os  c3  c3  c3  c3  c3  c3  h1  h1  
h1  h1  h1  h1  h1  h1  h1  h1  h1  h1  h1  h1  h1  h1  h1  h1  os  ca  c3  ca  
ca  h1  h1  h1  ca  ha  ca  ha  ca  ha  ha  nh  ca  ca  ca  ca  ca  ca  ca  ha  
ca  ha  ca  ha  ca  ha  cp  c5  ha  ca  ha  ha  cp  ca  ca  ca  os  ca  ca  ca  
cp  ca  cp  c3  ca  ha  ca  ha  ca  ha  ca  ha  ca  ca  h1  h1  h1  ha  nh  nh  
ca  ha  nh  ca  ha  ca  ca  ca  ca  ha  ca  ca  ha  ca  ca  ca  ca  ca  ca  ca  
ca  ca  ca  ca  ca  ca  ha  ca  ha  ha  ca  ha  ca  ca  ha  ca  ha  ca  ha  ca  
ha  ca  ha  ca  ha  ca  ha  ca  ha  ca  ha  ha  ca  ha  ha  ha  ca  ha  ca  ha  
ha  ca  ha  ha  ca  ha  ha  os  os  os  os  os  os  c3  c3  c3  c3  c3  c3  h1  
h1  h1  h1  h1  h1  h1  h1  h1  h1  h1  h1  h1  h1  h1  h1  h1  h1  os  ca  c3  
ca  ca  h1  h1  h1  ca  ha  ca  ha  ca  ha  ha  nh  ca  ca  ca  ca  ca  ca  ca  
ha  ca  ha  ca  ha  ca  ha  cp  c5  ha  ca  ha  ha  cp  ca  ca  ca  os  ca  ca  
ca  cp  ca  cp  c3  ca  ha  ca  ha  ca  ha  ca  ha  ca  ca  h1  h1  h1  ha  nh  
nh  ca  ha  nh  ca  ha  ca  ca  ca  ca  ha  ca  ca  ha  ca  ca  ca  ca  ca  ca  
ca  ca  ca  ca  ca  ca  ca  ha  ca  ha  ha  ca  ha  ca  ca  ha  ca  ha  ca  ha  
ca  ha  ca  ha  ca  ha  ca  ha  ca  ha  ca  ha  ha  ca  ha  ha  ha  ca  ha  ca  
ha  ha  ca  ha  ha  ca  ha  ha  os  os  os  os  os  os  c3  c3  c3  c3  c3  c3  
h1  h1  h1  h1  h1  h1  h1  h1  h1  h1  h1  h1  h1  h1  h1  h1  h1  h1  os  ca  
c3  ca  ca  h1  h1  h1  ca  ha  ca  ha  ca  ha  ha  nh  ca  ca  ca  ca  ca  ca  
ca  ha  ca  ha  ca  ha  ca  ha  cp  c5  ha  ca  ha  ha  cp  ca  ca  ca  os  ca  
ca  ca  cp  ca  cp  c3  ca  ha  ca  ha  ca  ha  ca  ha  ca  ca  h1  h1  h1  ha  
nh  nh  ca  ha  nh  ca  ha  ca  ca  ca  ca  ha  ca  ca  ha  ca  ca  ca  ca  ca  
ca  ca  ca  ca  ca  ca  ca  ca  ha  ca  ha  ha  ca  ha  ca  ca  ha  ca  ha  ca  
ha  ca  ha  ca  ha  ca  ha  ca  ha  ca  ha  ca  ha  ha  ca  ha  ha  ha  ca  ha  
ca  ha  ha  ca  ha  ha  ca  ha  ha  os  os  os  os  os  os  c3  c3  c3  c3  c3  
c3  h1  h1  h1  h1  h1  h1  h1  h1  h1  h1  h1  h1  h1  h1  h1  h1  h1  h1  os  
ca  c3  ca  ca  h1  h1  h1  ca  ha  ca  ha  ca  ha  ha  nh  ca  ca  ca  ca  ca  
ca  ca  ha  ca  ha  ca  ha  ca  ha  cp  c5  ha  ca  ha  ha  cp  ca  ca  ca  os  
ca  ca  ca  cp  ca  cp  c3  ca  ha  ca  ha  ca  ha  ca  ha  ca  ca  h1  h1  h1  
ha  nh  nh  ca  ha  nh  ca  ha  ca  ca  ca  ca  ha  ca  ca  ha  ca  ca  ca  ca  
ca  ca  ca  ca  ca  ca  ca  ca  ca  ha  ca  ha  ha  ca  ha  ca  ca  ha  ca  ha  
ca  ha  ca  ha  ca  ha  ca  ha  ca  ha  ca  ha  ca  ha  ha  ca  ha  ha  ha  ca  
ha  ca  ha  ha  ca  ha  ha  ca  ha  ha  os  os  os  os  os  os  c3  c3  c3  c3  
c3  c3  h1  h1  h1  h1  h1  h1  h1  h1  h1  h1  h1  h1  h1  h1  h1  h1  h1  h1  
os  ca  c3  ca  ca  h1  h1  h1  ca  ha  ca  ha  ca  ha  ha  nh  ca  ca  ca  ca  
ca  ca  ca  ha  ca  ha  ca  ha  ca  ha  cp  c5  ha  ca  ha  ha  cp  ca  ca  ca  
os  ca  ca  ca  cp  ca  cp  c3  ca  ha  ca  ha  ca  ha  ca  ha  ca  ca  h1  h1  
h1  ha  nh  nh  ca  ha  nh  ca  ha  ca  ca  ca  ca  ha  ca  ca  ha  ca  ca  ca  
ca  ca  ca  ca  ca  ca  ca  ca  ca  ca  ha  ca  ha  ha  ca  ha  ca  ca  ha  ca  
ha  ca  ha  ca  ha  ca  ha  ca  ha  ca  ha  ca  ha  ca  ha  ha  ca  ha  ha  ha  
ca  ha  ca  ha  ha  ca  ha  ha  ca  ha  ha  os  os  os  os  os  os  c3  c3  c3  
c3  c3  c3  h1  h1  h1  h1  h1  h1  h1  h1  h1  h1  h1  h1  h1  h1  h1  h1  h1  
h1  os  ca  c3  ca  ca  h1  h1  h1  ca  ha  ca  ha  ca  ha  ha  nh  ca  ca  ca  
ca  ca  ca  ca  ha  ca  ha  ca  ha  ca  ha  cp  c5  ha  ca  ha  ha  cp  ca  ca  
ca  os  ca  ca  ca  cp  ca  cp  c3  ca  ha  ca  ha  ca  ha  ca  ha  ca  ca  h1  
h1  h1  ha  nh  nh  ca  ha  nh  ca  ha  ca  ca  ca  ca  ha  ca  ca  ha  ca  ca  
ca  ca  ca  ca  ca  ca  ca  ca  ca  ca  ca  ha  ca  ha  ha  ca  ha  ca  ca  ha  
ca  ha  ca  ha  ca  ha  ca  ha  ca  ha  ca  ha  ca  ha  ca  ha  ha  ca  ha  ha  
ha  ca  ha  ca  ha  ha  ca  ha  ha  ca  ha  ha  os  os  os  os  os  os  c3  c3  
c3  c3  c3  c3  h1  h1  h1  h1  h1  h1  h1  h1  h1  h1  h1  h1  h1  h1  h1  h1  
h1  h1  os  ca  c3  ca  ca  h1  h1  h1  ca  ha  ca  ha  ca  ha  ha  nh  ca  ca  
ca  ca  ca  ca  ca  ha  ca  ha  ca  ha  ca  ha  cp  c5  ha  ca  ha  ha  cp  ca  
ca  ca  os  ca  ca  ca  cp  ca  cp  c3  ca  ha  ca  ha  ca  ha  ca  ha  ca  ca  
h1  h1  h1  ha  nh  nh  ca  ha  nh  ca  ha  ca  ca  ca  ca  ha  ca  ca  ha  ca  
ca  ca  ca  ca  ca  ca  ca  ca  ca  ca  ca  ca  ha  ca  ha  ha  ca  ha  ca  ca  
ha  ca  ha  ca  ha  ca  ha  ca  ha  ca  ha  ca  ha  ca  ha  ca  ha  ha  ca  ha  
ha  ha  ca  ha  ca  ha  ha  ca  ha  ha  ca  ha  ha  os  os  os  os  os  os  c3  
c3  c3  c3  c3  c3  h1  h1  h1  h1  h1  h1  h1  h1  h1  h1  h1  h1  h1  h1  h1  
h1  h1  h1  os  ca  c3  ca  ca  h1  h1  h1  ca  ha  ca  ha  ca  ha  ha  nh  ca  
ca  ca  ca  ca  ca  ca  ha  ca  ha  ca  ha  ca  ha  cp  c5  ha  ca  ha  ha  cp  
ca  ca  ca  os  ca  ca  ca  cp  ca  cp  c3  ca  ha  ca  ha  ca  ha  ca  ha  ca  
ca  h1  h1  h1  ha  nh  nh  ca  ha  nh  ca  ha  ca  ca  ca  ca  ha  ca  ca  ha  
ca  ca  ca  ca  ca  ca  ca  ca  ca  ca  ca  ca  ca  ha  ca  ha  ha  ca  ha  ca  
ca  ha  ca  ha  ca  ha  ca  ha  ca  ha  ca  ha  ca  ha  ca  ha  ca  ha  ha  ca  
ha  ha  ha  ca  ha  ca  ha  ha  ca  ha  ha  ca  ha  ha  os  os  os  os  os  os  
c3  c3  c3  c3  c3  c3  h1  h1  h1  h1  h1  h1  h1  h1  h1  h1  h1  h1  h1  h1  
h1  h1  h1  h1  os  ca  c3  ca  ca  h1  h1  h1  ca  ha  ca  ha  ca  ha  ha  nh  
ca  ca  ca  ca  ca  ca  ca  ha  ca  ha  ca  ha  ca  ha  cp  c5  ha  ca  ha  ha  
cp  ca  ca  ca  os  ca  ca  ca  cp  ca  cp  c3  ca  ha  ca  ha  ca  ha  ca  ha  
ca  ca  h1  h1  h1  ha  nh  nh  ca  ha  nh  ca  ha  ca  ca  ca  ca  ha  ca  ca  
ha  ca  ca  ca  ca  ca  ca  ca  ca  ca  ca  ca  ca  ca  ha  ca  ha  ha  ca  ha  
ca  ca  ha  ca  ha  ca  ha  ca  ha  ca  ha  ca  ha  ca  ha  ca  ha  ca  ha  ha  
ca  ha  ha  ha  ca  ha  ca  ha  ha  ca  ha  ha  ca  ha  ha  os  os  os  os  os  
os  c3  c3  c3  c3  c3  c3  h1  h1  h1  h1  h1  h1  h1  h1  h1  h1  h1  h1  h1  
h1  h1  h1  h1  h1  os  ca  c3  ca  ca  h1  h1  h1  ca  ha  ca  ha  ca  ha  ha  
nh  ca  ca  ca  ca  ca  ca  ca  ha  ca  ha  ca  ha  ca  ha  cp  c5  ha  ca  ha  
ha  cp  ca  ca  ca  os  ca  ca  ca  cp  ca  cp  c3  ca  ha  ca  ha  ca  ha  ca  
ha  ca  ca  h1  h1  h1  ha  nh  nh  ca  ha  nh  ca  ha  ca  ca  ca  ca  ha  ca  
ca  ha  ca  ca  ca  ca  ca  ca  ca  ca  ca  ca  ca  ca  ca  ha  ca  ha  ha  ca  
ha  ca  ca  ha  ca  ha  ca  ha  ca  ha  ca  ha  ca  ha  ca  ha  ca  ha  ca  ha  
ha  ca  ha  ha  ha  ca  ha  ca  ha  ha  ca  ha  ha  ca  ha  ha  os  os  os  os  
os  os  c3  c3  c3  c3  c3  c3  h1  h1  h1  h1  h1  h1  h1  h1  h1  h1  h1  h1  
h1  h1  h1  h1  h1  h1  os  ca  c3  ca  ca  h1  h1  h1  ca  ha  ca  ha  ca  ha  
ha  nh  ca  ca  ca  ca  ca  ca  ca  ha  ca  ha  ca  ha  ca  ha  cp  c5  ha  ca  
ha  ha  cp  ca  ca  ca  os  ca  ca  ca  cp  ca  cp  c3  ca  ha  ca  ha  ca  ha  
ca  ha  ca  ca  h1  h1  h1  ha  nh  nh  ca  ha  nh  ca  ha  ca  ca  ca  ca  ha  
ca  ca  ha  ca  ca  ca  ca  ca  ca  ca  ca  ca  ca  ca  ca  ca  ha  ca  ha  ha  
ca  ha  ca  ca  ha  ca  ha  ca  ha  ca  ha  ca  ha  ca  ha  ca  ha  ca  ha  ca  
ha  ha  ca  ha  ha  ha  ca  ha  ca  ha  ha  ca  ha  ha  ca  ha  ha  os  os  os  
os  os  os  c3  c3  c3  c3  c3  c3  h1  h1  h1  h1  h1  h1  h1  h1  h1  h1  h1  
h1  h1  h1  h1  h1  h1  h1  os  ca  c3  ca  ca  h1  h1  h1  ca  ha  ca  ha  ca  
ha  ha  nh  ca  ca  ca  ca  ca  ca  ca  ha  ca  ha  ca  ha  ca  ha  cp  c5  ha  
ca  ha  ha  cp  ca  ca  ca  os  ca  ca  ca  cp  ca  cp  c3  ca  ha  ca  ha  ca  
ha  ca  ha  ca  ca  h1  h1  h1  ha  nh  nh  ca  ha  nh  ca  ha  ca  ca  ca  ca  
ha  ca  ca  ha  ca  ca  ca  ca  ca  ca  ca  ca  ca  ca  ca  ca  ca  ha  ca  ha  
ha  ca  ha  ca  ca  ha  ca  ha  ca  ha  ca  ha  ca  ha  ca  ha  ca  ha  ca  ha  
ca  ha  ha  ca  ha  ha  ha  ca  ha  ca  ha  ha  ca  ha  ha  ca  ha  ha  os  os  
os  os  os  os  c3  c3  c3  c3  c3  c3  h1  h1  h1  h1  h1  h1  h1  h1  h1  h1  
h1  h1  h1  h1  h1  h1  h1  h1  os  ca  c3  ca  ca  h1  h1  h1  ca  ha  ca  ha  
ca  ha  ha  nh  ca  ca  ca  ca  ca  ca  ca  ha  ca  ha  ca  ha  ca  ha  cp  c5  
ha  ca  ha  ha  cp  ca  ca  ca  os  ca  ca  ca  cp  ca  cp  c3  ca  ha  ca  ha  
ca  ha  ca  ha  ca  ca  h1  h1  h1  ha  nh  nh  ca  ha  nh  ca  ha  ca  ca  ca  
ca  ha  ca  ca  ha  ca  ca  ca  ca  ca  ca  ca  ca  ca  ca  ca  ca  ca  ha  ca  
ha  ha  ca  ha  ca  ca  ha  ca  ha  ca  ha  ca  ha  ca  ha  ca  ha  ca  ha  ca  
ha  ca  ha  ha  ca  ha  ha  ha  ca  ha  ca  ha  ha  ca  ha  ha  ca  ha  ha  os  
os  os  os  os  os  c3  c3  c3  c3  c3  c3  h1  h1  h1  h1  h1  h1  h1  h1  h1  
h1  h1  h1  h1  h1  h1  h1  h1  h1  os  ca  c3  ca  ca  h1  h1  h1  ca  ha  ca  
ha  ca  ha  ha  nh  ca  ca  ca  ca  ca  ca  ca  ha  ca  ha  ca  ha  ca  ha  cp  
c5  ha  ca  ha  ha  cp  ca  ca  ca  os  ca  ca  ca  cp  ca  cp  c3  ca  ha  ca  
ha  ca  ha  ca  ha  ca  ca  h1  h1  h1  ha  nh  nh  ca  ha  nh  ca  ha  ca  ca  
ca  ca  ha  ca  ca  ha  ca  ca  ca  ca  ca  ca  ca  ca  ca  ca  ca  ca  ca  ha  
ca  ha  ha  ca  ha  ca  ca  ha  ca  ha  ca  ha  ca  ha  ca  ha  ca  ha  ca  ha  
ca  ha  ca  ha  ha  ca  ha  ha  ha  ca  ha  ca  ha  ha  ca  ha  ha  ca  ha  ha  
os  os  os  os  os  os  c3  c3  c3  c3  c3  c3  h1  h1  h1  h1  h1  h1  h1  h1  
h1  h1  h1  h1  h1  h1  h1  h1  h1  h1  
%FLAG TREE_CHAIN_CLASSIFICATION                                                 
%FORMAT(20a4)                                                                   
BLA BLA BLA BLA BLA BLA BLA BLA BLA BLA BLA BLA BLA BLA BLA BLA BLA BLA BLA BLA 
BLA BLA BLA BLA BLA BLA BLA BLA BLA BLA BLA BLA BLA BLA BLA BLA BLA BLA BLA BLA 
BLA BLA BLA BLA BLA BLA BLA BLA BLA BLA BLA BLA BLA BLA BLA BLA BLA BLA BLA BLA 
BLA BLA BLA BLA BLA BLA BLA BLA BLA BLA BLA BLA BLA BLA BLA BLA BLA BLA BLA BLA 
BLA BLA BLA BLA BLA BLA BLA BLA BLA BLA BLA BLA BLA BLA BLA BLA BLA BLA BLA BLA 
BLA BLA BLA BLA BLA BLA BLA BLA BLA BLA BLA BLA BLA BLA BLA BLA BLA BLA BLA BLA 
BLA BLA BLA BLA BLA BLA BLA BLA BLA BLA BLA BLA BLA BLA BLA BLA BLA BLA BLA BLA 
BLA BLA BLA BLA BLA BLA BLA BLA BLA BLA BLA BLA BLA BLA BLA BLA BLA BLA BLA BLA 
BLA BLA BLA BLA BLA BLA BLA BLA BLA BLA BLA BLA BLA BLA BLA BLA BLA BLA BLA BLA 
BLA BLA BLA BLA BLA BLA BLA BLA BLA BLA BLA BLA BLA BLA BLA BLA BLA BLA BLA BLA 
BLA BLA BLA BLA BLA BLA BLA BLA BLA BLA BLA BLA BLA BLA BLA BLA BLA BLA BLA BLA 
BLA BLA BLA BLA BLA BLA BLA BLA BLA BLA BLA BLA BLA BLA BLA BLA BLA BLA BLA BLA 
BLA BLA BLA BLA BLA BLA BLA BLA BLA BLA BLA BLA BLA BLA BLA BLA BLA BLA BLA BLA 
BLA BLA BLA BLA BLA BLA BLA BLA BLA BLA BLA BLA BLA BLA BLA BLA BLA BLA BLA BLA 
BLA BLA BLA BLA BLA BLA BLA BLA BLA BLA BLA BLA BLA BLA BLA BLA BLA BLA BLA BLA 
BLA BLA BLA BLA BLA BLA BLA BLA BLA BLA BLA BLA BLA BLA BLA BLA BLA BLA BLA BLA 
BLA BLA BLA BLA BLA BLA BLA BLA BLA BLA BLA BLA BLA BLA BLA BLA BLA BLA BLA BLA 
BLA BLA BLA BLA BLA BLA BLA BLA BLA BLA BLA BLA BLA BLA BLA BLA BLA BLA BLA BLA 
BLA BLA BLA BLA BLA BLA BLA BLA BLA BLA BLA BLA BLA BLA BLA BLA BLA BLA BLA BLA 
BLA BLA BLA BLA BLA BLA BLA BLA BLA BLA BLA BLA BLA BLA BLA BLA BLA BLA BLA BLA 
BLA BLA BLA BLA BLA BLA BLA BLA BLA BLA BLA BLA BLA BLA BLA BLA BLA BLA BLA BLA 
BLA BLA BLA BLA BLA BLA BLA BLA BLA BLA BLA BLA BLA BLA BLA BLA BLA BLA BLA BLA 
BLA BLA BLA BLA BLA BLA BLA BLA BLA BLA BLA BLA BLA BLA BLA BLA BLA BLA BLA BLA 
BLA BLA BLA BLA BLA BLA BLA BLA BLA BLA BLA BLA BLA BLA BLA BLA BLA BLA BLA BLA 
BLA BLA BLA BLA BLA BLA BLA BLA BLA BLA BLA BLA BLA BLA BLA BLA BLA BLA BLA BLA 
BLA BLA BLA BLA BLA BLA BLA BLA BLA BLA BLA BLA BLA BLA BLA BLA BLA BLA BLA BLA 
BLA BLA BLA BLA BLA BLA BLA BLA BLA BLA BLA BLA BLA BLA BLA BLA BLA BLA BLA BLA 
BLA BLA BLA BLA BLA BLA BLA BLA BLA BLA BLA BLA BLA BLA BLA BLA BLA BLA BLA BLA 
BLA BLA BLA BLA BLA BLA BLA BLA BLA BLA BLA BLA BLA BLA BLA BLA BLA BLA BLA BLA 
BLA BLA BLA BLA BLA BLA BLA BLA BLA BLA BLA BLA BLA BLA BLA BLA BLA BLA BLA BLA 
BLA BLA BLA BLA BLA BLA BLA BLA BLA BLA BLA BLA BLA BLA BLA BLA BLA BLA BLA BLA 
BLA BLA BLA BLA BLA BLA BLA BLA BLA BLA BLA BLA BLA BLA BLA BLA BLA BLA BLA BLA 
BLA BLA BLA BLA BLA BLA BLA BLA BLA BLA BLA BLA BLA BLA BLA BLA BLA BLA BLA BLA 
BLA BLA BLA BLA BLA BLA BLA BLA BLA BLA BLA BLA BLA BLA BLA BLA BLA BLA BLA BLA 
BLA BLA BLA BLA BLA BLA BLA BLA BLA BLA BLA BLA BLA BLA BLA BLA BLA BLA BLA BLA 
BLA BLA BLA BLA BLA BLA BLA BLA BLA BLA BLA BLA BLA BLA BLA BLA BLA BLA BLA BLA 
BLA BLA BLA BLA BLA BLA BLA BLA BLA BLA BLA BLA BLA BLA BLA BLA BLA BLA BLA BLA 
BLA BLA BLA BLA BLA BLA BLA BLA BLA BLA BLA BLA BLA BLA BLA BLA BLA BLA BLA BLA 
BLA BLA BLA BLA BLA BLA BLA BLA BLA BLA BLA BLA BLA BLA BLA BLA BLA BLA BLA BLA 
BLA BLA BLA BLA BLA BLA BLA BLA BLA BLA BLA BLA BLA BLA BLA BLA BLA BLA BLA BLA 
BLA BLA BLA BLA BLA BLA BLA BLA BLA BLA BLA BLA BLA BLA BLA BLA BLA BLA BLA BLA 
BLA BLA BLA BLA BLA BLA BLA BLA BLA BLA BLA BLA BLA BLA BLA BLA BLA BLA BLA BLA 
BLA BLA BLA BLA BLA BLA BLA BLA BLA BLA BLA BLA BLA BLA BLA BLA BLA BLA BLA BLA 
BLA BLA BLA BLA BLA BLA BLA BLA BLA BLA BLA BLA BLA BLA BLA BLA BLA BLA BLA BLA 
BLA BLA BLA BLA BLA BLA BLA BLA BLA BLA BLA BLA BLA BLA BLA BLA BLA BLA BLA BLA 
BLA BLA BLA BLA BLA BLA BLA BLA BLA BLA BLA BLA BLA BLA BLA BLA BLA BLA BLA BLA 
BLA BLA BLA BLA BLA BLA BLA BLA BLA BLA BLA BLA BLA BLA BLA BLA BLA BLA BLA BLA 
BLA BLA BLA BLA BLA BLA BLA BLA BLA BLA BLA BLA BLA BLA BLA BLA BLA BLA BLA BLA 
BLA BLA BLA BLA BLA BLA BLA BLA BLA BLA BLA BLA BLA BLA BLA BLA BLA BLA BLA BLA 
BLA BLA BLA BLA BLA BLA BLA BLA BLA BLA BLA BLA BLA BLA BLA BLA BLA BLA BLA BLA 
BLA BLA BLA BLA BLA BLA BLA BLA BLA BLA BLA BLA BLA BLA BLA BLA BLA BLA BLA BLA 
BLA BLA BLA BLA BLA BLA BLA BLA BLA BLA BLA BLA BLA BLA BLA BLA BLA BLA BLA BLA 
BLA BLA BLA BLA BLA BLA BLA BLA BLA BLA BLA BLA BLA BLA BLA BLA BLA BLA BLA BLA 
BLA BLA BLA BLA BLA BLA BLA BLA BLA BLA BLA BLA BLA BLA BLA BLA BLA BLA BLA BLA 
BLA BLA BLA BLA BLA BLA BLA BLA BLA BLA BLA BLA BLA BLA BLA BLA BLA BLA BLA BLA 
BLA BLA BLA BLA BLA BLA BLA BLA BLA BLA BLA BLA BLA BLA BLA BLA BLA BLA BLA BLA 
BLA BLA BLA BLA BLA BLA BLA BLA BLA BLA BLA BLA BLA BLA BLA BLA BLA BLA BLA BLA 
BLA BLA BLA BLA BLA BLA BLA BLA BLA BLA BLA BLA BLA BLA BLA BLA BLA BLA BLA BLA 
BLA BLA BLA BLA BLA BLA BLA BLA BLA BLA BLA BLA BLA BLA BLA BLA BLA BLA BLA BLA 
BLA BLA BLA BLA BLA BLA BLA BLA BLA BLA BLA BLA BLA BLA BLA BLA BLA BLA BLA BLA 
BLA BLA BLA BLA BLA BLA BLA BLA BLA BLA BLA BLA BLA BLA BLA BLA BLA BLA BLA BLA 
BLA BLA BLA BLA BLA BLA BLA BLA BLA BLA BLA BLA BLA BLA BLA BLA BLA BLA BLA BLA 
BLA BLA BLA BLA BLA BLA BLA BLA BLA BLA BLA BLA BLA BLA BLA BLA BLA BLA BLA BLA 
BLA BLA BLA BLA BLA BLA BLA BLA BLA BLA BLA BLA BLA BLA BLA BLA BLA BLA BLA BLA 
BLA BLA BLA BLA BLA BLA BLA BLA BLA BLA BLA BLA BLA BLA BLA BLA BLA BLA BLA BLA 
BLA BLA BLA BLA BLA BLA BLA BLA BLA BLA BLA BLA BLA BLA BLA BLA BLA BLA BLA BLA 
BLA BLA BLA BLA BLA BLA BLA BLA BLA BLA BLA BLA BLA BLA BLA BLA BLA BLA BLA BLA 
BLA BLA BLA BLA BLA BLA BLA BLA BLA BLA BLA BLA BLA BLA BLA BLA BLA BLA BLA BLA 
BLA BLA BLA BLA BLA BLA BLA BLA BLA BLA BLA BLA BLA BLA BLA BLA BLA BLA BLA BLA 
BLA BLA BLA BLA BLA BLA BLA BLA BLA BLA BLA BLA BLA BLA BLA BLA BLA BLA BLA BLA 
BLA BLA BLA BLA BLA BLA BLA BLA BLA BLA BLA BLA BLA BLA BLA BLA BLA BLA BLA BLA 
BLA BLA BLA BLA BLA BLA BLA BLA BLA BLA BLA BLA BLA BLA BLA BLA BLA BLA BLA BLA 
BLA BLA BLA BLA BLA BLA BLA BLA BLA BLA BLA BLA BLA BLA BLA BLA BLA BLA BLA BLA 
BLA BLA BLA BLA BLA BLA BLA BLA BLA BLA BLA BLA BLA BLA BLA BLA BLA BLA BLA BLA 
BLA BLA BLA BLA BLA BLA BLA BLA BLA BLA BLA BLA BLA BLA BLA BLA BLA BLA BLA BLA 
BLA BLA BLA BLA BLA BLA BLA BLA BLA BLA BLA BLA BLA BLA BLA BLA BLA BLA BLA BLA 
BLA BLA BLA BLA BLA BLA BLA BLA BLA BLA BLA BLA BLA BLA BLA BLA BLA BLA BLA BLA 
BLA BLA BLA BLA BLA BLA BLA BLA BLA BLA BLA BLA BLA BLA BLA BLA BLA BLA BLA BLA 
BLA BLA BLA BLA BLA BLA BLA BLA BLA BLA BLA BLA BLA BLA BLA BLA BLA BLA BLA BLA 
BLA BLA BLA BLA BLA BLA BLA BLA BLA BLA BLA BLA BLA BLA BLA BLA BLA BLA BLA BLA 
BLA BLA BLA BLA BLA BLA BLA BLA BLA BLA BLA BLA BLA BLA BLA BLA BLA BLA BLA BLA 
BLA BLA BLA BLA BLA BLA BLA BLA BLA BLA BLA BLA BLA BLA BLA BLA BLA BLA BLA BLA 
BLA BLA BLA BLA BLA BLA BLA BLA BLA BLA BLA BLA BLA BLA BLA BLA BLA BLA BLA BLA 
BLA BLA BLA BLA BLA BLA BLA BLA BLA BLA BLA BLA BLA BLA BLA BLA BLA BLA BLA BLA 
BLA BLA BLA BLA BLA BLA BLA BLA BLA BLA BLA BLA BLA BLA BLA BLA BLA BLA BLA BLA 
BLA BLA BLA BLA BLA BLA BLA BLA BLA BLA BLA BLA BLA BLA BLA BLA BLA BLA BLA BLA 
BLA BLA BLA BLA BLA BLA BLA BLA BLA BLA BLA BLA BLA BLA BLA BLA BLA BLA BLA BLA 
BLA BLA BLA BLA BLA BLA BLA BLA BLA BLA BLA BLA BLA BLA BLA BLA BLA BLA BLA BLA 
BLA BLA BLA BLA BLA BLA BLA BLA BLA BLA BLA BLA BLA BLA BLA BLA BLA BLA BLA BLA 
BLA BLA BLA BLA BLA BLA BLA BLA BLA BLA BLA BLA BLA BLA BLA BLA BLA BLA BLA BLA 
BLA BLA BLA BLA BLA BLA BLA BLA BLA BLA BLA BLA BLA BLA BLA BLA BLA BLA BLA BLA 
BLA BLA BLA BLA BLA BLA BLA BLA BLA BLA BLA BLA BLA BLA BLA BLA BLA BLA BLA BLA 
BLA BLA BLA BLA BLA BLA BLA BLA BLA BLA BLA BLA BLA BLA BLA BLA BLA BLA BLA BLA 
BLA BLA BLA BLA BLA BLA BLA BLA BLA BLA BLA BLA BLA BLA BLA BLA BLA BLA BLA BLA 
BLA BLA BLA BLA BLA BLA BLA BLA BLA BLA BLA BLA BLA BLA BLA BLA BLA BLA BLA BLA 
BLA BLA BLA BLA BLA BLA BLA BLA BLA BLA BLA BLA BLA BLA BLA BLA BLA BLA BLA BLA 
BLA BLA BLA BLA BLA BLA BLA BLA BLA BLA BLA BLA BLA BLA BLA BLA BLA BLA BLA BLA 
BLA BLA BLA BLA BLA BLA BLA BLA BLA BLA BLA BLA BLA BLA BLA BLA BLA BLA BLA BLA 
BLA BLA BLA BLA BLA BLA BLA BLA BLA BLA BLA BLA BLA BLA BLA BLA BLA BLA BLA BLA 
BLA BLA BLA BLA BLA BLA BLA BLA BLA BLA BLA BLA BLA BLA BLA BLA BLA BLA BLA BLA 
BLA BLA BLA BLA BLA BLA BLA BLA BLA BLA BLA BLA BLA BLA BLA BLA BLA BLA BLA BLA 
BLA BLA BLA BLA BLA BLA BLA BLA BLA BLA BLA BLA BLA BLA BLA BLA BLA BLA BLA BLA 
BLA BLA BLA BLA BLA BLA BLA BLA BLA BLA BLA BLA BLA BLA BLA BLA BLA BLA BLA BLA 
BLA BLA BLA BLA BLA BLA BLA BLA BLA BLA BLA BLA BLA BLA BLA BLA BLA BLA BLA BLA 
BLA BLA BLA BLA BLA BLA BLA BLA BLA BLA BLA BLA BLA BLA BLA BLA BLA BLA BLA BLA 
BLA BLA BLA BLA BLA BLA BLA BLA BLA BLA BLA BLA BLA BLA BLA BLA BLA BLA BLA BLA 
BLA BLA BLA BLA BLA BLA BLA BLA BLA BLA BLA BLA BLA BLA BLA BLA BLA BLA BLA BLA 
BLA BLA BLA BLA BLA BLA BLA BLA BLA BLA BLA BLA BLA BLA BLA BLA BLA BLA BLA BLA 
BLA BLA BLA BLA BLA BLA BLA BLA BLA BLA BLA BLA BLA BLA BLA BLA BLA BLA BLA BLA 
BLA BLA BLA BLA BLA BLA BLA BLA BLA BLA BLA BLA BLA BLA BLA BLA BLA BLA BLA BLA 
BLA BLA BLA BLA BLA BLA BLA BLA BLA BLA BLA BLA BLA BLA BLA BLA BLA BLA BLA BLA 
BLA BLA BLA BLA BLA BLA BLA BLA BLA BLA BLA BLA BLA BLA BLA BLA BLA BLA BLA BLA 
BLA BLA BLA BLA BLA BLA BLA BLA BLA BLA BLA BLA BLA BLA BLA BLA BLA BLA BLA BLA 
BLA BLA BLA BLA BLA BLA BLA BLA BLA BLA BLA BLA BLA BLA BLA BLA BLA BLA BLA BLA 
BLA BLA BLA BLA BLA BLA BLA BLA BLA BLA BLA BLA BLA BLA BLA BLA BLA BLA BLA BLA 
BLA BLA BLA BLA BLA BLA BLA BLA BLA BLA BLA BLA BLA BLA BLA BLA BLA BLA BLA BLA 
BLA BLA BLA BLA BLA BLA BLA BLA BLA BLA BLA BLA BLA BLA BLA BLA BLA BLA BLA BLA 
BLA BLA BLA BLA BLA BLA BLA BLA BLA BLA BLA BLA BLA BLA BLA BLA BLA BLA BLA BLA 
BLA BLA BLA BLA BLA BLA BLA BLA BLA BLA BLA BLA BLA BLA BLA BLA BLA BLA BLA BLA 
BLA BLA BLA BLA BLA BLA BLA BLA BLA BLA BLA BLA BLA BLA BLA BLA BLA BLA BLA BLA 
BLA BLA BLA BLA BLA BLA BLA BLA BLA BLA BLA BLA BLA BLA BLA BLA BLA BLA BLA BLA 
BLA BLA BLA BLA BLA BLA BLA BLA BLA BLA BLA BLA BLA BLA BLA BLA BLA BLA BLA BLA 
BLA BLA BLA BLA BLA BLA BLA BLA BLA BLA BLA BLA BLA BLA BLA BLA BLA BLA BLA BLA 
BLA BLA BLA BLA BLA BLA BLA BLA BLA BLA BLA BLA BLA BLA BLA BLA BLA BLA BLA BLA 
BLA BLA BLA BLA BLA BLA BLA BLA BLA BLA BLA BLA BLA BLA BLA BLA BLA BLA BLA BLA 
BLA BLA BLA BLA BLA BLA BLA BLA BLA BLA BLA BLA BLA BLA BLA BLA BLA BLA BLA BLA 
BLA BLA BLA BLA BLA BLA BLA BLA BLA BLA BLA BLA BLA BLA BLA BLA BLA BLA BLA BLA 
BLA BLA BLA BLA BLA BLA BLA BLA BLA BLA BLA BLA BLA BLA BLA BLA BLA BLA BLA BLA 
BLA BLA BLA BLA BLA BLA BLA BLA BLA BLA BLA BLA BLA BLA BLA BLA BLA BLA BLA BLA 
BLA BLA BLA BLA BLA BLA BLA BLA BLA BLA BLA BLA BLA BLA BLA BLA BLA BLA BLA BLA 
BLA BLA BLA BLA BLA BLA BLA BLA BLA BLA BLA BLA BLA BLA BLA BLA BLA BLA BLA BLA 
BLA BLA BLA BLA BLA BLA BLA BLA BLA BLA BLA BLA BLA BLA BLA BLA BLA BLA BLA BLA 
BLA BLA BLA BLA BLA BLA BLA BLA BLA BLA BLA BLA BLA BLA BLA BLA BLA BLA BLA BLA 
BLA BLA BLA BLA BLA BLA BLA BLA BLA BLA BLA BLA BLA BLA BLA BLA BLA BLA BLA BLA 
BLA BLA BLA BLA BLA BLA BLA BLA BLA BLA BLA BLA BLA BLA BLA BLA BLA BLA BLA BLA 
BLA BLA BLA BLA BLA BLA BLA BLA BLA BLA BLA BLA BLA BLA BLA BLA BLA BLA BLA BLA 
BLA BLA BLA BLA BLA BLA BLA BLA BLA BLA BLA BLA BLA BLA BLA BLA BLA BLA BLA BLA 
BLA BLA BLA BLA BLA BLA BLA BLA BLA BLA BLA BLA BLA BLA BLA BLA BLA BLA BLA BLA 
BLA BLA BLA BLA BLA BLA BLA BLA BLA BLA BLA BLA BLA BLA BLA BLA BLA BLA BLA BLA 
BLA BLA BLA BLA BLA BLA BLA BLA BLA BLA BLA BLA BLA BLA BLA BLA BLA BLA BLA BLA 
BLA BLA BLA BLA BLA BLA BLA BLA BLA BLA BLA BLA BLA BLA BLA BLA BLA BLA BLA BLA 
BLA BLA BLA BLA BLA BLA BLA BLA BLA BLA BLA BLA BLA BLA BLA BLA BLA BLA BLA BLA 
BLA BLA BLA BLA BLA BLA BLA BLA BLA BLA BLA BLA BLA BLA BLA BLA BLA BLA BLA BLA 
BLA BLA BLA BLA BLA BLA BLA BLA BLA BLA BLA BLA BLA BLA BLA BLA BLA BLA BLA BLA 
BLA BLA BLA BLA BLA BLA BLA BLA BLA BLA BLA BLA BLA BLA BLA BLA BLA BLA BLA BLA 
BLA BLA BLA BLA BLA BLA BLA BLA BLA BLA BLA BLA BLA BLA BLA BLA BLA BLA BLA BLA 
BLA BLA BLA BLA BLA BLA BLA BLA BLA BLA BLA BLA BLA BLA BLA BLA BLA BLA BLA BLA 
BLA BLA BLA BLA BLA BLA BLA BLA BLA BLA BLA BLA BLA BLA BLA BLA BLA BLA BLA BLA 
BLA BLA BLA BLA BLA BLA BLA BLA BLA BLA BLA BLA BLA BLA BLA BLA BLA BLA BLA BLA 
BLA BLA BLA BLA BLA BLA BLA BLA BLA BLA BLA BLA BLA BLA BLA BLA BLA BLA BLA BLA 
BLA BLA BLA BLA BLA BLA BLA BLA BLA BLA BLA BLA BLA BLA BLA BLA BLA BLA BLA BLA 
BLA BLA BLA BLA BLA BLA BLA BLA BLA BLA BLA BLA BLA BLA BLA BLA BLA BLA BLA BLA 
BLA BLA BLA BLA BLA BLA BLA BLA BLA BLA BLA BLA BLA BLA BLA BLA BLA BLA BLA BLA 
BLA BLA BLA BLA BLA BLA BLA BLA BLA BLA BLA BLA BLA BLA BLA BLA BLA BLA BLA BLA 
BLA BLA BLA BLA BLA BLA BLA BLA BLA BLA BLA BLA BLA BLA BLA BLA BLA BLA BLA BLA 
BLA BLA BLA BLA BLA BLA BLA BLA BLA BLA BLA BLA BLA BLA BLA BLA BLA BLA BLA BLA 
BLA BLA BLA BLA BLA BLA BLA BLA BLA BLA BLA BLA BLA BLA BLA BLA BLA BLA BLA BLA 
BLA BLA BLA BLA BLA BLA BLA BLA BLA BLA BLA BLA BLA BLA BLA BLA BLA BLA BLA BLA 
BLA BLA BLA BLA BLA BLA BLA BLA BLA BLA BLA BLA BLA BLA BLA BLA BLA BLA BLA BLA 
BLA BLA BLA BLA BLA BLA BLA BLA BLA BLA BLA BLA BLA BLA BLA BLA BLA BLA BLA BLA 
BLA BLA BLA BLA BLA BLA BLA BLA BLA BLA BLA BLA BLA BLA BLA BLA BLA BLA BLA BLA 
BLA BLA BLA BLA BLA BLA BLA BLA BLA BLA BLA BLA BLA BLA BLA BLA BLA BLA BLA BLA 
BLA BLA BLA BLA BLA BLA BLA BLA BLA BLA BLA BLA BLA BLA BLA BLA BLA BLA BLA BLA 
BLA BLA BLA BLA BLA BLA BLA BLA BLA BLA BLA BLA BLA BLA BLA BLA BLA BLA BLA BLA 
BLA BLA BLA BLA BLA BLA BLA BLA BLA BLA BLA BLA BLA BLA BLA BLA BLA BLA BLA BLA 
BLA BLA BLA BLA BLA BLA BLA BLA BLA BLA BLA BLA BLA BLA BLA BLA BLA BLA BLA BLA 
BLA BLA BLA BLA BLA BLA BLA BLA BLA BLA BLA BLA BLA BLA BLA BLA BLA BLA BLA BLA 
BLA BLA BLA BLA BLA BLA BLA BLA BLA BLA BLA BLA BLA BLA BLA BLA BLA BLA BLA BLA 
BLA BLA BLA BLA BLA BLA BLA BLA BLA BLA BLA BLA BLA BLA BLA BLA BLA BLA BLA BLA 
BLA BLA BLA BLA BLA BLA BLA BLA BLA BLA BLA BLA BLA BLA BLA BLA BLA BLA BLA BLA 
BLA BLA BLA BLA BLA BLA BLA BLA BLA BLA BLA BLA BLA BLA BLA BLA BLA BLA BLA BLA 
BLA BLA BLA BLA BLA BLA BLA BLA BLA BLA BLA BLA BLA BLA BLA BLA BLA BLA BLA BLA 
BLA BLA BLA BLA BLA BLA BLA BLA BLA BLA BLA BLA BLA BLA BLA BLA BLA BLA BLA BLA 
BLA BLA BLA BLA BLA BLA BLA BLA BLA BLA BLA BLA BLA BLA BLA BLA BLA BLA BLA BLA 
BLA BLA BLA BLA BLA BLA BLA BLA BLA BLA BLA BLA BLA BLA BLA BLA BLA BLA BLA BLA 
BLA BLA BLA BLA BLA BLA BLA BLA BLA BLA BLA BLA BLA BLA BLA BLA BLA BLA BLA BLA 
BLA BLA BLA BLA BLA BLA BLA BLA BLA BLA BLA BLA BLA BLA BLA BLA BLA BLA BLA BLA 
BLA BLA BLA BLA BLA BLA BLA BLA BLA BLA BLA BLA BLA BLA BLA BLA BLA BLA BLA BLA 
BLA BLA BLA BLA BLA BLA BLA BLA BLA BLA BLA BLA BLA BLA BLA BLA BLA BLA BLA BLA 
BLA BLA BLA BLA BLA BLA BLA BLA BLA BLA BLA BLA BLA BLA BLA BLA BLA BLA BLA BLA 
BLA BLA BLA BLA BLA BLA BLA BLA BLA BLA BLA BLA BLA BLA BLA BLA BLA BLA BLA BLA 
BLA BLA BLA BLA BLA BLA BLA BLA BLA BLA BLA BLA BLA BLA BLA BLA BLA BLA BLA BLA 
BLA BLA BLA BLA BLA BLA BLA BLA BLA BLA BLA BLA BLA BLA BLA BLA BLA BLA BLA BLA 
BLA BLA BLA BLA BLA BLA BLA BLA BLA BLA BLA BLA BLA BLA BLA BLA BLA BLA BLA BLA 
BLA BLA BLA BLA BLA BLA BLA BLA BLA BLA BLA BLA BLA BLA BLA BLA BLA BLA BLA BLA 
BLA BLA BLA BLA BLA BLA BLA BLA BLA BLA BLA BLA BLA BLA BLA BLA BLA BLA BLA BLA 
BLA BLA BLA BLA BLA BLA BLA BLA BLA BLA BLA BLA BLA BLA BLA BLA BLA BLA BLA BLA 
BLA BLA BLA BLA BLA BLA BLA BLA BLA BLA BLA BLA BLA BLA BLA BLA BLA BLA BLA BLA 
BLA BLA BLA BLA BLA BLA BLA BLA BLA BLA BLA BLA BLA BLA BLA BLA BLA BLA BLA BLA 
BLA BLA BLA BLA BLA BLA BLA BLA BLA BLA BLA BLA BLA BLA BLA BLA BLA BLA BLA BLA 
BLA BLA BLA BLA BLA BLA BLA BLA BLA BLA BLA BLA BLA BLA BLA BLA BLA BLA BLA BLA 
BLA BLA BLA BLA BLA BLA BLA BLA BLA BLA BLA BLA BLA BLA BLA BLA BLA BLA BLA BLA 
BLA BLA BLA BLA BLA BLA BLA BLA BLA BLA BLA BLA BLA BLA BLA BLA BLA BLA BLA BLA 
BLA BLA BLA BLA BLA BLA BLA BLA BLA BLA BLA BLA BLA BLA BLA BLA BLA BLA BLA BLA 
BLA BLA BLA BLA BLA BLA BLA BLA BLA BLA BLA BLA BLA BLA BLA BLA BLA BLA BLA BLA 
BLA BLA BLA BLA BLA BLA BLA BLA BLA BLA BLA BLA BLA BLA BLA BLA BLA BLA BLA BLA 
BLA BLA BLA BLA BLA BLA BLA BLA BLA BLA BLA BLA BLA BLA BLA BLA BLA BLA BLA BLA 
BLA BLA BLA BLA BLA BLA BLA BLA BLA BLA BLA BLA BLA BLA BLA BLA BLA BLA BLA BLA 
BLA BLA BLA BLA BLA BLA BLA BLA BLA BLA BLA BLA BLA BLA BLA BLA BLA BLA BLA BLA 
BLA BLA BLA BLA BLA BLA BLA BLA BLA BLA BLA BLA BLA BLA BLA BLA BLA BLA BLA BLA 
BLA BLA BLA BLA BLA BLA BLA BLA BLA BLA BLA BLA BLA BLA BLA BLA BLA BLA BLA BLA 
BLA BLA BLA BLA BLA BLA BLA BLA BLA BLA BLA BLA BLA BLA BLA BLA BLA BLA BLA BLA 
BLA BLA BLA BLA BLA BLA BLA BLA BLA BLA BLA BLA BLA BLA BLA BLA BLA BLA BLA BLA 
BLA BLA BLA BLA BLA BLA BLA BLA BLA BLA BLA BLA BLA BLA BLA BLA BLA BLA BLA BLA 
BLA BLA BLA BLA BLA BLA BLA BLA BLA BLA BLA BLA BLA BLA BLA BLA BLA BLA BLA BLA 
BLA BLA BLA BLA BLA BLA BLA BLA BLA BLA BLA BLA BLA BLA BLA BLA BLA BLA BLA BLA 
BLA BLA BLA BLA BLA BLA BLA BLA BLA BLA BLA BLA BLA BLA BLA BLA BLA BLA BLA BLA 
BLA BLA BLA BLA BLA BLA BLA BLA BLA BLA BLA BLA BLA BLA BLA BLA BLA BLA BLA BLA 
BLA BLA BLA BLA BLA BLA BLA BLA BLA BLA BLA BLA BLA BLA BLA BLA BLA BLA BLA BLA 
BLA BLA BLA BLA BLA BLA BLA BLA BLA BLA BLA BLA BLA BLA BLA BLA BLA BLA BLA BLA 
BLA BLA BLA BLA BLA BLA BLA BLA BLA BLA BLA BLA BLA BLA BLA BLA BLA BLA BLA BLA 
BLA BLA BLA BLA BLA BLA BLA BLA BLA BLA BLA BLA BLA BLA BLA BLA BLA BLA BLA BLA 
BLA BLA BLA BLA BLA BLA BLA BLA BLA BLA BLA BLA BLA BLA BLA BLA BLA BLA BLA BLA 
BLA BLA BLA BLA BLA BLA BLA BLA BLA BLA BLA BLA BLA BLA BLA BLA BLA BLA BLA BLA 
BLA BLA BLA BLA BLA BLA BLA BLA BLA BLA BLA BLA BLA BLA BLA BLA BLA BLA BLA BLA 
BLA BLA BLA BLA BLA BLA BLA BLA BLA BLA BLA BLA BLA BLA BLA BLA BLA BLA BLA BLA 
BLA BLA BLA BLA BLA BLA BLA BLA BLA BLA BLA BLA BLA BLA BLA BLA BLA BLA BLA BLA 
BLA BLA BLA BLA BLA BLA BLA BLA BLA BLA BLA BLA BLA BLA BLA BLA BLA BLA BLA BLA 
BLA BLA BLA BLA BLA BLA BLA BLA BLA BLA BLA BLA BLA BLA BLA BLA BLA BLA BLA BLA 
BLA BLA BLA BLA BLA BLA BLA BLA BLA BLA BLA BLA BLA BLA BLA BLA BLA BLA BLA BLA 
BLA BLA BLA BLA BLA BLA BLA BLA BLA BLA BLA BLA BLA BLA BLA BLA BLA BLA BLA BLA 
BLA BLA BLA BLA BLA BLA BLA BLA BLA BLA BLA BLA BLA BLA BLA BLA BLA BLA BLA BLA 
BLA BLA BLA BLA BLA BLA BLA BLA BLA BLA BLA BLA BLA BLA BLA BLA BLA BLA BLA BLA 
BLA BLA BLA BLA BLA BLA BLA BLA BLA BLA BLA BLA BLA BLA BLA BLA BLA BLA BLA BLA 
BLA BLA BLA BLA BLA BLA BLA BLA BLA BLA BLA BLA BLA BLA BLA BLA BLA BLA BLA BLA 
BLA BLA BLA BLA BLA BLA BLA BLA BLA BLA BLA BLA BLA BLA BLA BLA BLA BLA BLA BLA 
BLA BLA BLA BLA BLA BLA BLA BLA BLA BLA BLA BLA BLA BLA BLA BLA BLA BLA BLA BLA 
BLA BLA BLA BLA BLA BLA BLA BLA BLA BLA BLA BLA BLA BLA BLA BLA BLA BLA BLA BLA 
BLA BLA BLA BLA BLA BLA BLA BLA BLA BLA BLA BLA BLA BLA BLA BLA BLA BLA BLA BLA 
BLA BLA BLA BLA BLA BLA BLA BLA BLA BLA BLA BLA BLA BLA BLA BLA BLA BLA BLA BLA 
BLA BLA BLA BLA BLA BLA BLA BLA BLA BLA BLA BLA BLA BLA BLA BLA BLA BLA BLA BLA 
BLA BLA BLA BLA BLA BLA BLA BLA BLA BLA BLA BLA BLA BLA BLA BLA BLA BLA BLA BLA 
BLA BLA BLA BLA BLA BLA BLA BLA BLA BLA BLA BLA BLA BLA BLA BLA BLA BLA BLA BLA 
BLA BLA BLA BLA BLA BLA BLA BLA BLA BLA BLA BLA BLA BLA BLA BLA BLA BLA BLA BLA 
BLA BLA BLA BLA BLA BLA BLA BLA BLA BLA BLA BLA BLA BLA BLA BLA BLA BLA BLA BLA 
BLA BLA BLA BLA BLA BLA BLA BLA BLA BLA BLA BLA BLA BLA BLA BLA BLA BLA BLA BLA 
BLA BLA BLA BLA BLA BLA BLA BLA BLA BLA BLA BLA BLA BLA BLA BLA BLA BLA BLA BLA 
BLA BLA BLA BLA BLA BLA BLA BLA BLA BLA BLA BLA BLA BLA BLA BLA BLA BLA BLA BLA 
BLA BLA BLA BLA BLA BLA BLA BLA BLA BLA BLA BLA BLA BLA BLA BLA BLA BLA BLA BLA 
BLA BLA BLA BLA BLA BLA BLA BLA BLA BLA BLA BLA BLA BLA BLA BLA BLA BLA BLA BLA 
BLA BLA BLA BLA BLA BLA BLA BLA BLA BLA BLA BLA BLA BLA BLA BLA BLA BLA BLA BLA 
BLA BLA BLA BLA BLA BLA BLA BLA BLA BLA BLA BLA BLA BLA BLA BLA BLA BLA BLA BLA 
BLA BLA BLA BLA BLA BLA BLA BLA BLA BLA BLA BLA BLA BLA BLA BLA BLA BLA BLA BLA 
BLA BLA BLA BLA BLA BLA BLA BLA BLA BLA BLA BLA BLA BLA BLA BLA BLA BLA BLA BLA 
BLA BLA BLA BLA BLA BLA BLA BLA BLA BLA BLA BLA BLA BLA BLA BLA BLA BLA BLA BLA 
BLA BLA BLA BLA BLA BLA BLA BLA BLA BLA BLA BLA BLA BLA BLA BLA BLA BLA BLA BLA 
BLA BLA BLA BLA BLA BLA BLA BLA BLA BLA BLA BLA BLA BLA BLA BLA BLA BLA BLA BLA 
BLA BLA BLA BLA BLA BLA BLA BLA BLA BLA BLA BLA BLA BLA BLA BLA BLA BLA BLA BLA 
BLA BLA BLA BLA BLA BLA BLA BLA BLA BLA BLA BLA BLA BLA BLA BLA BLA BLA BLA BLA 
BLA BLA BLA BLA BLA BLA BLA BLA BLA BLA BLA BLA BLA BLA BLA BLA BLA BLA BLA BLA 
BLA BLA BLA BLA BLA BLA BLA BLA BLA BLA BLA BLA BLA BLA BLA BLA BLA BLA BLA BLA 
BLA BLA BLA BLA BLA BLA BLA BLA BLA BLA BLA BLA BLA BLA BLA BLA BLA BLA BLA BLA 
BLA BLA BLA BLA BLA BLA BLA BLA BLA BLA BLA BLA BLA BLA BLA BLA BLA BLA BLA BLA 
BLA BLA BLA BLA BLA BLA BLA BLA BLA BLA BLA BLA BLA BLA BLA BLA BLA BLA BLA BLA 
BLA BLA BLA BLA BLA BLA BLA BLA BLA BLA BLA BLA BLA BLA BLA BLA BLA BLA BLA BLA 
BLA BLA BLA BLA BLA BLA BLA BLA BLA BLA BLA BLA BLA BLA BLA BLA BLA BLA BLA BLA 
BLA BLA BLA BLA BLA BLA BLA BLA BLA BLA BLA BLA BLA BLA BLA BLA BLA BLA BLA BLA 
BLA BLA BLA BLA BLA BLA BLA BLA BLA BLA BLA BLA BLA BLA BLA BLA BLA BLA BLA BLA 
BLA BLA BLA BLA BLA BLA BLA BLA BLA BLA BLA BLA BLA BLA BLA BLA BLA BLA BLA BLA 
BLA BLA BLA BLA BLA BLA BLA BLA BLA BLA BLA BLA BLA BLA BLA BLA BLA BLA BLA BLA 
BLA BLA BLA BLA BLA BLA BLA BLA BLA BLA BLA BLA BLA BLA BLA BLA BLA BLA BLA BLA 
BLA BLA BLA BLA BLA BLA BLA BLA BLA BLA BLA BLA BLA BLA BLA BLA BLA BLA BLA BLA 
BLA BLA BLA BLA BLA BLA BLA BLA BLA BLA BLA BLA BLA BLA BLA BLA BLA BLA BLA BLA 
BLA BLA BLA BLA BLA BLA BLA BLA BLA BLA BLA BLA BLA BLA BLA BLA BLA BLA BLA BLA 
BLA BLA BLA BLA BLA BLA BLA BLA BLA BLA BLA BLA BLA BLA BLA BLA BLA BLA BLA BLA 
BLA BLA BLA BLA BLA BLA BLA BLA BLA BLA BLA BLA BLA BLA BLA BLA BLA BLA BLA BLA 
BLA BLA BLA BLA BLA BLA BLA BLA BLA BLA BLA BLA BLA BLA BLA BLA BLA BLA BLA BLA 
BLA BLA BLA BLA BLA BLA BLA BLA BLA BLA BLA BLA BLA BLA BLA BLA BLA BLA BLA BLA 
BLA BLA BLA BLA BLA BLA BLA BLA BLA BLA BLA BLA BLA BLA BLA BLA BLA BLA BLA BLA 
BLA BLA BLA BLA BLA BLA BLA BLA BLA BLA BLA BLA BLA BLA BLA BLA BLA BLA BLA BLA 
BLA BLA BLA BLA BLA BLA BLA BLA BLA BLA BLA BLA BLA BLA BLA BLA BLA BLA BLA BLA 
BLA BLA BLA BLA BLA BLA BLA BLA BLA BLA BLA BLA BLA BLA BLA BLA BLA BLA BLA BLA 
BLA BLA BLA BLA BLA BLA BLA BLA BLA BLA BLA BLA BLA BLA BLA BLA BLA BLA BLA BLA 
BLA BLA BLA BLA BLA BLA BLA BLA BLA BLA BLA BLA BLA BLA BLA BLA BLA BLA BLA BLA 
BLA BLA BLA BLA BLA BLA BLA BLA BLA BLA BLA BLA BLA BLA BLA BLA BLA BLA BLA BLA 
BLA BLA BLA BLA BLA BLA BLA BLA BLA BLA BLA BLA BLA BLA BLA BLA BLA BLA BLA BLA 
BLA BLA BLA BLA BLA BLA BLA BLA BLA BLA BLA BLA BLA BLA BLA BLA BLA BLA BLA BLA 
BLA BLA BLA BLA BLA BLA BLA BLA BLA BLA BLA BLA BLA BLA BLA BLA BLA BLA BLA BLA 
BLA BLA BLA BLA BLA BLA BLA BLA BLA BLA BLA BLA BLA BLA BLA BLA BLA BLA BLA BLA 
BLA BLA BLA BLA BLA BLA BLA BLA BLA BLA BLA BLA BLA BLA BLA BLA BLA BLA BLA BLA 
BLA BLA BLA BLA BLA BLA BLA BLA BLA BLA BLA BLA BLA BLA BLA BLA BLA BLA BLA BLA 
BLA BLA BLA BLA BLA BLA BLA BLA BLA BLA BLA BLA BLA BLA BLA BLA BLA BLA BLA BLA 
BLA BLA BLA BLA BLA BLA BLA BLA BLA BLA BLA BLA BLA BLA BLA BLA BLA BLA BLA BLA 
BLA BLA BLA BLA BLA BLA BLA BLA BLA BLA BLA BLA BLA BLA BLA BLA BLA BLA BLA BLA 
BLA BLA BLA BLA BLA BLA BLA BLA BLA BLA BLA BLA BLA BLA BLA BLA BLA BLA BLA BLA 
BLA BLA BLA BLA BLA BLA BLA BLA BLA BLA BLA BLA BLA BLA BLA BLA BLA BLA BLA BLA 
BLA BLA BLA BLA BLA BLA BLA BLA BLA BLA BLA BLA BLA BLA BLA BLA BLA BLA BLA BLA 
BLA BLA BLA BLA BLA BLA BLA BLA BLA BLA BLA BLA BLA BLA BLA BLA BLA BLA BLA BLA 
BLA BLA BLA BLA BLA BLA BLA BLA BLA BLA BLA BLA BLA BLA BLA BLA BLA BLA BLA BLA 
BLA BLA BLA BLA BLA BLA BLA BLA BLA BLA BLA BLA BLA BLA BLA BLA BLA BLA BLA BLA 
BLA BLA BLA BLA BLA BLA BLA BLA BLA BLA BLA BLA BLA BLA BLA BLA BLA BLA BLA BLA 
BLA BLA BLA BLA BLA BLA BLA BLA BLA BLA BLA BLA BLA BLA BLA BLA BLA BLA BLA BLA 
BLA BLA BLA BLA BLA BLA BLA BLA BLA BLA BLA BLA BLA BLA BLA BLA BLA BLA BLA BLA 
BLA BLA BLA BLA BLA BLA BLA BLA BLA BLA BLA BLA BLA BLA BLA BLA BLA BLA BLA BLA 
BLA BLA BLA BLA BLA BLA BLA BLA BLA BLA BLA BLA BLA BLA BLA BLA BLA BLA BLA BLA 
BLA BLA BLA BLA BLA BLA BLA BLA BLA BLA BLA BLA BLA BLA BLA BLA BLA BLA BLA BLA 
BLA BLA BLA BLA BLA BLA BLA BLA BLA BLA BLA BLA BLA BLA BLA BLA BLA BLA BLA BLA 
BLA BLA BLA BLA BLA BLA BLA BLA BLA BLA BLA BLA BLA BLA BLA BLA BLA BLA BLA BLA 
BLA BLA BLA BLA BLA BLA BLA BLA BLA BLA BLA BLA BLA BLA BLA BLA BLA BLA BLA BLA 
BLA BLA BLA BLA BLA BLA BLA BLA BLA BLA BLA BLA BLA BLA BLA BLA BLA BLA BLA BLA 
BLA BLA BLA BLA BLA BLA BLA BLA BLA BLA BLA BLA BLA BLA BLA BLA BLA BLA BLA BLA 
BLA BLA BLA BLA BLA BLA BLA BLA BLA BLA BLA BLA BLA BLA BLA BLA BLA BLA BLA BLA 
BLA BLA BLA BLA BLA BLA BLA BLA BLA BLA BLA BLA BLA BLA BLA BLA BLA BLA BLA BLA 
BLA BLA BLA BLA BLA BLA BLA BLA BLA BLA BLA BLA BLA BLA BLA BLA BLA BLA BLA BLA 
BLA BLA BLA BLA BLA BLA BLA BLA BLA BLA BLA BLA BLA BLA BLA BLA BLA BLA BLA BLA 
BLA BLA BLA BLA BLA BLA BLA BLA BLA BLA BLA BLA BLA BLA BLA BLA BLA BLA BLA BLA 
BLA BLA BLA BLA BLA BLA BLA BLA BLA BLA BLA BLA BLA BLA BLA BLA BLA BLA BLA BLA 
BLA BLA BLA BLA BLA BLA BLA BLA BLA BLA BLA BLA BLA BLA BLA BLA BLA BLA BLA BLA 
BLA BLA BLA BLA BLA BLA BLA BLA BLA BLA BLA BLA BLA BLA BLA BLA BLA BLA BLA BLA 
BLA BLA BLA BLA BLA BLA BLA BLA BLA BLA BLA BLA BLA BLA BLA BLA BLA BLA BLA BLA 
BLA BLA BLA BLA BLA BLA BLA BLA BLA BLA BLA BLA BLA BLA BLA BLA BLA BLA BLA BLA 
BLA BLA BLA BLA BLA BLA BLA BLA BLA BLA BLA BLA BLA BLA BLA BLA BLA BLA BLA BLA 
BLA BLA BLA BLA BLA BLA BLA BLA BLA BLA BLA BLA BLA BLA BLA BLA BLA BLA BLA BLA 
BLA BLA BLA BLA BLA BLA BLA BLA BLA BLA BLA BLA BLA BLA BLA BLA BLA BLA BLA BLA 
BLA BLA BLA BLA BLA BLA BLA BLA BLA BLA BLA BLA BLA BLA BLA BLA BLA BLA BLA BLA 
BLA BLA BLA BLA BLA BLA BLA BLA BLA BLA BLA BLA BLA BLA BLA BLA BLA BLA BLA BLA 
BLA BLA BLA BLA BLA BLA BLA BLA BLA BLA BLA BLA BLA BLA BLA BLA BLA BLA BLA BLA 
BLA BLA BLA BLA BLA BLA BLA BLA BLA BLA BLA BLA BLA BLA BLA BLA BLA BLA BLA BLA 
BLA BLA BLA BLA BLA BLA BLA BLA BLA BLA BLA BLA BLA BLA BLA BLA BLA BLA BLA BLA 
BLA BLA BLA BLA BLA BLA BLA BLA BLA BLA BLA BLA BLA BLA BLA BLA BLA BLA BLA BLA 
BLA BLA BLA BLA BLA BLA BLA BLA BLA BLA BLA BLA BLA BLA BLA BLA BLA BLA BLA BLA 
BLA BLA BLA BLA BLA BLA BLA BLA BLA BLA BLA BLA BLA BLA BLA BLA BLA BLA BLA BLA 
BLA BLA BLA BLA BLA BLA BLA BLA BLA BLA BLA BLA BLA BLA BLA BLA BLA BLA BLA BLA 
BLA BLA BLA BLA BLA BLA BLA BLA BLA BLA BLA BLA BLA BLA BLA BLA BLA BLA BLA BLA 
BLA BLA BLA BLA BLA BLA BLA BLA BLA BLA BLA BLA BLA BLA BLA BLA BLA BLA BLA BLA 
BLA BLA BLA BLA BLA BLA BLA BLA BLA BLA BLA BLA BLA BLA BLA BLA BLA BLA BLA BLA 
BLA BLA BLA BLA BLA BLA BLA BLA BLA BLA BLA BLA BLA BLA BLA BLA BLA BLA BLA BLA 
BLA BLA BLA BLA BLA BLA BLA BLA BLA BLA BLA BLA BLA BLA BLA BLA BLA BLA BLA BLA 
BLA BLA BLA BLA BLA BLA BLA BLA BLA BLA BLA BLA BLA BLA BLA BLA BLA BLA BLA BLA 
BLA BLA BLA BLA BLA BLA BLA BLA BLA BLA BLA BLA BLA BLA BLA BLA BLA BLA BLA BLA 
BLA BLA BLA BLA BLA BLA BLA BLA BLA BLA BLA BLA BLA BLA BLA BLA BLA BLA BLA BLA 
BLA BLA BLA BLA BLA BLA BLA BLA BLA BLA BLA BLA BLA BLA BLA BLA BLA BLA BLA BLA 
BLA BLA BLA BLA BLA BLA BLA BLA BLA BLA BLA BLA BLA BLA BLA BLA BLA BLA BLA BLA 
BLA BLA BLA BLA BLA BLA BLA BLA BLA BLA BLA BLA BLA BLA BLA BLA BLA BLA BLA BLA 
BLA BLA BLA BLA BLA BLA BLA BLA BLA BLA BLA BLA BLA BLA BLA BLA BLA BLA BLA BLA 
BLA BLA BLA BLA BLA BLA BLA BLA BLA BLA BLA BLA BLA BLA BLA BLA BLA BLA BLA BLA 
BLA BLA BLA BLA BLA BLA BLA BLA BLA BLA BLA BLA BLA BLA BLA BLA BLA BLA BLA BLA 
BLA BLA BLA BLA BLA BLA BLA BLA BLA BLA BLA BLA BLA BLA BLA BLA BLA BLA BLA BLA 
BLA BLA BLA BLA BLA BLA BLA BLA BLA BLA BLA BLA BLA BLA BLA BLA BLA BLA BLA BLA 
BLA BLA BLA BLA BLA BLA BLA BLA BLA BLA BLA BLA BLA BLA BLA BLA BLA BLA BLA BLA 
BLA BLA BLA BLA BLA BLA BLA BLA BLA BLA BLA BLA BLA BLA BLA BLA BLA BLA BLA BLA 
BLA BLA BLA BLA BLA BLA BLA BLA BLA BLA BLA BLA BLA BLA BLA BLA BLA BLA BLA BLA 
BLA BLA BLA BLA BLA BLA BLA BLA BLA BLA BLA BLA BLA BLA BLA BLA BLA BLA BLA BLA 
BLA BLA BLA BLA BLA BLA BLA BLA BLA BLA BLA BLA BLA BLA BLA BLA BLA BLA BLA BLA 
BLA BLA BLA BLA BLA BLA BLA BLA BLA BLA BLA BLA BLA BLA BLA BLA BLA BLA BLA BLA 
BLA BLA BLA BLA BLA BLA BLA BLA BLA BLA BLA BLA BLA BLA BLA BLA BLA BLA BLA BLA 
BLA BLA BLA BLA BLA BLA BLA BLA BLA BLA BLA BLA BLA BLA BLA BLA BLA BLA BLA BLA 
BLA BLA BLA BLA BLA BLA BLA BLA BLA BLA BLA BLA BLA BLA BLA BLA BLA BLA BLA BLA 
BLA BLA BLA BLA BLA BLA BLA BLA BLA BLA BLA BLA BLA BLA BLA BLA BLA BLA BLA BLA 
BLA BLA BLA BLA BLA BLA BLA BLA BLA BLA BLA BLA BLA BLA BLA BLA BLA BLA BLA BLA 
BLA BLA BLA BLA BLA BLA BLA BLA BLA BLA BLA BLA BLA BLA BLA BLA BLA BLA BLA BLA 
BLA BLA BLA BLA BLA BLA BLA BLA BLA BLA BLA BLA BLA BLA BLA BLA BLA BLA BLA BLA 
BLA BLA BLA BLA BLA BLA BLA BLA BLA BLA BLA BLA BLA BLA BLA BLA BLA BLA BLA BLA 
BLA BLA BLA BLA BLA BLA BLA BLA BLA BLA BLA BLA BLA BLA BLA BLA BLA BLA BLA BLA 
BLA BLA BLA BLA BLA BLA BLA BLA BLA BLA BLA BLA BLA BLA BLA BLA BLA BLA BLA BLA 
BLA BLA BLA BLA BLA BLA BLA BLA BLA BLA BLA BLA BLA BLA BLA BLA BLA BLA BLA BLA 
BLA BLA BLA BLA BLA BLA BLA BLA BLA BLA BLA BLA BLA BLA BLA BLA BLA BLA BLA BLA 
BLA BLA BLA BLA BLA BLA BLA BLA BLA BLA BLA BLA BLA BLA BLA BLA BLA BLA BLA BLA 
BLA BLA BLA BLA BLA BLA BLA BLA BLA BLA BLA BLA BLA BLA BLA BLA BLA BLA BLA BLA 
BLA BLA BLA BLA BLA BLA BLA BLA BLA BLA BLA BLA BLA BLA BLA BLA BLA BLA BLA BLA 
BLA BLA BLA BLA BLA BLA BLA BLA BLA BLA BLA BLA BLA BLA BLA BLA BLA BLA BLA BLA 
BLA BLA BLA BLA BLA BLA BLA BLA BLA BLA BLA BLA BLA BLA BLA BLA BLA BLA BLA BLA 
BLA BLA BLA BLA BLA BLA BLA BLA BLA BLA BLA BLA BLA BLA BLA BLA BLA BLA BLA BLA 
BLA BLA BLA BLA BLA BLA BLA BLA BLA BLA BLA BLA BLA BLA BLA BLA BLA BLA BLA BLA 
BLA BLA BLA BLA BLA BLA BLA BLA BLA BLA BLA BLA BLA BLA BLA BLA BLA BLA BLA BLA 
BLA BLA BLA BLA BLA BLA BLA BLA BLA BLA BLA BLA BLA BLA BLA BLA BLA BLA BLA BLA 
BLA BLA BLA BLA BLA BLA BLA BLA BLA BLA BLA BLA BLA BLA BLA BLA BLA BLA BLA BLA 
BLA BLA BLA BLA BLA BLA BLA BLA BLA BLA BLA BLA BLA BLA BLA BLA BLA BLA BLA BLA 
BLA BLA BLA BLA BLA BLA BLA BLA BLA BLA BLA BLA BLA BLA BLA BLA BLA BLA BLA BLA 
BLA BLA BLA BLA BLA BLA BLA BLA BLA BLA BLA BLA BLA BLA BLA BLA BLA BLA BLA BLA 
BLA BLA BLA BLA BLA BLA BLA BLA BLA BLA BLA BLA BLA BLA BLA BLA BLA BLA BLA BLA 
BLA BLA BLA BLA BLA BLA BLA BLA BLA BLA BLA BLA BLA BLA BLA BLA BLA BLA BLA BLA 
BLA BLA BLA BLA BLA BLA BLA BLA BLA BLA BLA BLA BLA BLA BLA BLA BLA BLA BLA BLA 
BLA BLA BLA BLA BLA BLA BLA BLA BLA BLA BLA BLA BLA BLA BLA BLA BLA BLA BLA BLA 
BLA BLA BLA BLA BLA BLA BLA BLA BLA BLA BLA BLA BLA BLA BLA BLA BLA BLA BLA BLA 
BLA BLA BLA BLA BLA BLA BLA BLA BLA BLA BLA BLA BLA BLA BLA BLA BLA BLA BLA BLA 
BLA BLA BLA BLA BLA BLA BLA BLA BLA BLA BLA BLA BLA BLA BLA BLA BLA BLA BLA BLA 
BLA BLA BLA BLA BLA BLA BLA BLA BLA BLA BLA BLA BLA BLA BLA BLA BLA BLA BLA BLA 
BLA BLA BLA BLA BLA BLA BLA BLA BLA BLA BLA BLA BLA BLA BLA BLA BLA BLA BLA BLA 
BLA BLA BLA BLA BLA BLA BLA BLA BLA BLA BLA BLA BLA BLA BLA BLA BLA BLA BLA BLA 
BLA BLA BLA BLA BLA BLA BLA BLA BLA BLA BLA BLA BLA BLA BLA BLA BLA BLA BLA BLA 
BLA BLA BLA BLA BLA BLA BLA BLA BLA BLA BLA BLA BLA BLA BLA BLA BLA BLA BLA BLA 
BLA BLA BLA BLA BLA BLA BLA BLA BLA BLA BLA BLA BLA BLA BLA BLA BLA BLA BLA BLA 
BLA BLA BLA BLA BLA BLA BLA BLA BLA BLA BLA BLA BLA BLA BLA BLA BLA BLA BLA BLA 
BLA BLA BLA BLA BLA BLA BLA BLA BLA BLA BLA BLA BLA BLA BLA BLA BLA BLA BLA BLA 
BLA BLA BLA BLA BLA BLA BLA BLA BLA BLA BLA BLA BLA BLA BLA BLA BLA BLA BLA BLA 
BLA BLA BLA BLA BLA BLA BLA BLA BLA BLA BLA BLA BLA BLA BLA BLA BLA BLA BLA BLA 
BLA BLA BLA BLA BLA BLA BLA BLA BLA BLA BLA BLA BLA BLA BLA BLA BLA BLA BLA BLA 
BLA BLA BLA BLA BLA BLA BLA BLA BLA BLA BLA BLA BLA BLA BLA BLA BLA BLA BLA BLA 
BLA BLA BLA BLA BLA BLA BLA BLA BLA BLA BLA BLA BLA BLA BLA BLA BLA BLA BLA BLA 
BLA BLA BLA BLA BLA BLA BLA BLA BLA BLA BLA BLA BLA BLA BLA BLA BLA BLA BLA BLA 
BLA BLA BLA BLA BLA BLA BLA BLA BLA BLA BLA BLA BLA BLA BLA BLA BLA BLA BLA BLA 
BLA BLA BLA BLA BLA BLA BLA BLA BLA BLA BLA BLA BLA BLA BLA BLA BLA BLA BLA BLA 
BLA BLA BLA BLA BLA BLA BLA BLA BLA BLA BLA BLA BLA BLA BLA BLA BLA BLA BLA BLA 
BLA BLA BLA BLA BLA BLA BLA BLA BLA BLA BLA BLA BLA BLA BLA BLA BLA BLA BLA BLA 
BLA BLA BLA BLA BLA BLA BLA BLA BLA BLA BLA BLA BLA BLA BLA BLA BLA BLA BLA BLA 
BLA BLA BLA BLA BLA BLA BLA BLA BLA BLA BLA BLA BLA BLA BLA BLA BLA BLA BLA BLA 
BLA BLA BLA BLA BLA BLA BLA BLA BLA BLA BLA BLA BLA BLA BLA BLA BLA BLA BLA BLA 
BLA BLA BLA BLA BLA BLA BLA BLA BLA BLA BLA BLA BLA BLA BLA BLA BLA BLA BLA BLA 
BLA BLA BLA BLA BLA BLA BLA BLA BLA BLA BLA BLA BLA BLA BLA BLA BLA BLA BLA BLA 
BLA BLA BLA BLA BLA BLA BLA BLA BLA BLA BLA BLA BLA BLA BLA BLA BLA BLA BLA BLA 
BLA BLA BLA BLA BLA BLA BLA BLA BLA BLA BLA BLA BLA BLA BLA BLA BLA BLA BLA BLA 
BLA BLA BLA BLA BLA BLA BLA BLA BLA BLA BLA BLA BLA BLA BLA BLA BLA BLA BLA BLA 
BLA BLA BLA BLA BLA BLA BLA BLA BLA BLA BLA BLA BLA BLA BLA BLA BLA BLA BLA BLA 
BLA BLA BLA BLA BLA BLA BLA BLA BLA BLA BLA BLA BLA BLA BLA BLA BLA BLA BLA BLA 
BLA BLA BLA BLA BLA BLA BLA BLA BLA BLA BLA BLA BLA BLA BLA BLA BLA BLA BLA BLA 
BLA BLA BLA BLA BLA BLA BLA BLA BLA BLA BLA BLA BLA BLA BLA BLA BLA BLA BLA BLA 
BLA BLA BLA BLA BLA BLA BLA BLA BLA BLA BLA BLA BLA BLA BLA BLA BLA BLA BLA BLA 
BLA BLA BLA BLA BLA BLA BLA BLA BLA BLA BLA BLA BLA BLA BLA BLA BLA BLA BLA BLA 
BLA BLA BLA BLA BLA BLA BLA BLA BLA BLA BLA BLA BLA BLA BLA BLA BLA BLA BLA BLA 
BLA BLA BLA BLA BLA BLA BLA BLA BLA BLA BLA BLA BLA BLA BLA BLA BLA BLA BLA BLA 
BLA BLA BLA BLA BLA BLA BLA BLA BLA BLA BLA BLA BLA BLA BLA BLA BLA BLA BLA BLA 
BLA BLA BLA BLA BLA BLA BLA BLA BLA BLA BLA BLA BLA BLA BLA BLA BLA BLA BLA BLA 
BLA BLA BLA BLA BLA BLA BLA BLA BLA BLA BLA BLA BLA BLA BLA BLA BLA BLA BLA BLA 
BLA BLA BLA BLA BLA BLA BLA BLA BLA BLA BLA BLA BLA BLA BLA BLA BLA BLA BLA BLA 
BLA BLA BLA BLA BLA BLA BLA BLA BLA BLA BLA BLA BLA BLA BLA BLA BLA BLA BLA BLA 
BLA BLA BLA BLA BLA BLA BLA BLA BLA BLA BLA BLA BLA BLA BLA BLA BLA BLA BLA BLA 
BLA BLA BLA BLA BLA BLA BLA BLA BLA BLA BLA BLA BLA BLA BLA BLA BLA BLA BLA BLA 
BLA BLA BLA BLA BLA BLA BLA BLA BLA BLA BLA BLA BLA BLA BLA BLA BLA BLA BLA BLA 
BLA BLA BLA BLA BLA BLA BLA BLA BLA BLA BLA BLA BLA BLA BLA BLA BLA BLA BLA BLA 
BLA BLA BLA BLA BLA BLA BLA BLA BLA BLA BLA BLA BLA BLA BLA BLA BLA BLA BLA BLA 
BLA BLA BLA BLA BLA BLA BLA BLA BLA BLA BLA BLA BLA BLA BLA BLA BLA BLA BLA BLA 
BLA BLA BLA BLA BLA BLA BLA BLA BLA BLA BLA BLA BLA BLA BLA BLA BLA BLA BLA BLA 
BLA BLA BLA BLA BLA BLA BLA BLA BLA BLA BLA BLA BLA BLA BLA BLA BLA BLA BLA BLA 
BLA BLA BLA BLA BLA BLA BLA BLA BLA BLA BLA BLA BLA BLA BLA BLA BLA BLA BLA BLA 
BLA BLA BLA BLA BLA BLA BLA BLA BLA BLA BLA BLA BLA BLA BLA BLA BLA BLA BLA BLA 
BLA BLA BLA BLA BLA BLA BLA BLA BLA BLA BLA BLA BLA BLA BLA BLA BLA BLA BLA BLA 
BLA BLA BLA BLA BLA BLA BLA BLA BLA BLA BLA BLA BLA BLA BLA BLA BLA BLA BLA BLA 
BLA BLA BLA BLA BLA BLA BLA BLA BLA BLA BLA BLA BLA BLA BLA BLA BLA BLA BLA BLA 
BLA BLA BLA BLA BLA BLA BLA BLA BLA BLA BLA BLA BLA BLA BLA BLA BLA BLA BLA BLA 
BLA BLA BLA BLA BLA BLA BLA BLA BLA BLA BLA BLA BLA BLA BLA BLA BLA BLA BLA BLA 
BLA BLA BLA BLA BLA BLA BLA BLA BLA BLA BLA BLA BLA BLA BLA BLA BLA BLA BLA BLA 
BLA BLA BLA BLA BLA BLA BLA BLA BLA BLA BLA BLA BLA BLA BLA BLA BLA BLA BLA BLA 
BLA BLA BLA BLA BLA BLA BLA BLA BLA BLA BLA BLA BLA BLA BLA BLA BLA BLA BLA BLA 
BLA BLA BLA BLA BLA BLA BLA BLA BLA BLA BLA BLA BLA BLA BLA BLA BLA BLA BLA BLA 
BLA BLA BLA BLA BLA BLA BLA BLA BLA BLA BLA BLA BLA BLA BLA BLA BLA BLA BLA BLA 
BLA BLA BLA BLA BLA BLA BLA BLA BLA BLA BLA BLA BLA BLA BLA BLA BLA BLA BLA BLA 
BLA BLA BLA BLA BLA BLA BLA BLA BLA BLA BLA BLA BLA BLA BLA BLA BLA BLA BLA BLA 
BLA BLA BLA BLA BLA BLA BLA BLA BLA BLA BLA BLA BLA BLA BLA BLA BLA BLA BLA BLA 
BLA BLA BLA BLA BLA BLA BLA BLA BLA BLA BLA BLA BLA BLA BLA BLA BLA BLA BLA BLA 
BLA BLA BLA BLA BLA BLA BLA BLA BLA BLA BLA BLA BLA BLA BLA BLA BLA BLA BLA BLA 
BLA BLA BLA BLA BLA BLA BLA BLA BLA BLA BLA BLA BLA BLA BLA BLA BLA BLA BLA BLA 
BLA BLA BLA BLA BLA BLA BLA BLA BLA BLA BLA BLA BLA BLA BLA BLA BLA BLA BLA BLA 
BLA BLA BLA BLA BLA BLA BLA BLA BLA BLA BLA BLA BLA BLA BLA BLA BLA BLA BLA BLA 
BLA BLA BLA BLA BLA BLA BLA BLA BLA BLA BLA BLA BLA BLA BLA BLA BLA BLA BLA BLA 
BLA BLA BLA BLA BLA BLA BLA BLA BLA BLA BLA BLA BLA BLA BLA BLA BLA BLA BLA BLA 
BLA BLA BLA BLA BLA BLA BLA BLA BLA BLA BLA BLA BLA BLA BLA BLA BLA BLA BLA BLA 
BLA BLA BLA BLA BLA BLA BLA BLA BLA BLA BLA BLA BLA BLA BLA BLA BLA BLA BLA BLA 
BLA BLA BLA BLA BLA BLA BLA BLA BLA BLA BLA BLA BLA BLA BLA BLA BLA BLA BLA BLA 
BLA BLA BLA BLA BLA BLA BLA BLA BLA BLA BLA BLA BLA BLA BLA BLA BLA BLA BLA BLA 
BLA BLA BLA BLA BLA BLA BLA BLA BLA BLA BLA BLA BLA BLA BLA BLA BLA BLA BLA BLA 
BLA BLA BLA BLA BLA BLA BLA BLA BLA BLA BLA BLA BLA BLA BLA BLA BLA BLA BLA BLA 
BLA BLA BLA BLA BLA BLA BLA BLA BLA BLA BLA BLA BLA BLA BLA BLA BLA BLA BLA BLA 
BLA BLA BLA BLA BLA BLA BLA BLA BLA BLA BLA BLA BLA BLA BLA BLA BLA BLA BLA BLA 
BLA BLA BLA BLA BLA BLA BLA BLA BLA BLA BLA BLA BLA BLA BLA BLA BLA BLA BLA BLA 
BLA BLA BLA BLA BLA BLA BLA BLA BLA BLA BLA BLA BLA BLA BLA BLA BLA BLA BLA BLA 
BLA BLA BLA BLA BLA BLA BLA BLA BLA BLA BLA BLA BLA BLA BLA BLA BLA BLA BLA BLA 
BLA BLA BLA BLA BLA BLA BLA BLA BLA BLA BLA BLA BLA BLA BLA BLA BLA BLA BLA BLA 
BLA BLA BLA BLA BLA BLA BLA BLA BLA BLA BLA BLA BLA BLA BLA BLA BLA BLA BLA BLA 
BLA BLA BLA BLA BLA BLA BLA BLA BLA BLA BLA BLA BLA BLA BLA BLA BLA BLA BLA BLA 
BLA BLA BLA BLA BLA BLA BLA BLA BLA BLA BLA BLA BLA BLA BLA BLA BLA BLA BLA BLA 
BLA BLA BLA BLA BLA BLA BLA BLA BLA BLA BLA BLA BLA BLA BLA BLA BLA BLA BLA BLA 
BLA BLA BLA BLA BLA BLA BLA BLA BLA BLA BLA BLA BLA BLA BLA BLA BLA BLA BLA BLA 
BLA BLA BLA BLA BLA BLA BLA BLA BLA BLA BLA BLA BLA BLA BLA BLA BLA BLA BLA BLA 
BLA BLA BLA BLA BLA BLA BLA BLA BLA BLA BLA BLA BLA BLA BLA BLA BLA BLA BLA BLA 
BLA BLA BLA BLA BLA BLA BLA BLA BLA BLA BLA BLA BLA BLA BLA BLA BLA BLA BLA BLA 
BLA BLA BLA BLA BLA BLA BLA BLA BLA BLA BLA BLA BLA BLA BLA BLA BLA BLA BLA BLA 
BLA BLA BLA BLA BLA BLA BLA BLA BLA BLA BLA BLA BLA BLA BLA BLA BLA BLA BLA BLA 
BLA BLA BLA BLA BLA BLA BLA BLA BLA BLA BLA BLA BLA BLA BLA BLA BLA BLA BLA BLA 
BLA BLA BLA BLA BLA BLA BLA BLA BLA BLA BLA BLA BLA BLA BLA BLA BLA BLA BLA BLA 
BLA BLA BLA BLA BLA BLA BLA BLA BLA BLA BLA BLA BLA BLA BLA BLA BLA BLA BLA BLA 
BLA BLA BLA BLA BLA BLA BLA BLA BLA BLA BLA BLA BLA BLA BLA BLA BLA BLA BLA BLA 
BLA BLA BLA BLA BLA BLA BLA BLA BLA BLA BLA BLA BLA BLA BLA BLA BLA BLA BLA BLA 
BLA BLA BLA BLA BLA BLA BLA BLA BLA BLA BLA BLA BLA BLA BLA BLA BLA BLA BLA BLA 
BLA BLA BLA BLA BLA BLA BLA BLA BLA BLA BLA BLA BLA BLA BLA BLA BLA BLA BLA BLA 
BLA BLA BLA BLA BLA BLA BLA BLA BLA BLA BLA BLA BLA BLA BLA BLA BLA BLA BLA BLA 
BLA BLA BLA BLA BLA BLA BLA BLA BLA BLA BLA BLA BLA BLA BLA BLA BLA BLA BLA BLA 
BLA BLA BLA BLA BLA BLA BLA BLA BLA BLA BLA BLA BLA BLA BLA BLA BLA BLA BLA BLA 
BLA BLA BLA BLA BLA BLA BLA BLA BLA BLA BLA BLA BLA BLA BLA BLA BLA BLA BLA BLA 
BLA BLA BLA BLA BLA BLA BLA BLA BLA BLA BLA BLA BLA BLA BLA BLA BLA BLA BLA BLA 
BLA BLA BLA BLA BLA BLA BLA BLA BLA BLA BLA BLA BLA BLA BLA BLA BLA BLA BLA BLA 
BLA BLA BLA BLA BLA BLA BLA BLA BLA BLA BLA BLA BLA BLA BLA BLA BLA BLA BLA BLA 
BLA BLA BLA BLA BLA BLA BLA BLA BLA BLA BLA BLA BLA BLA BLA BLA BLA BLA BLA BLA 
BLA BLA BLA BLA BLA BLA BLA BLA BLA BLA BLA BLA BLA BLA BLA BLA BLA BLA BLA BLA 
BLA BLA BLA BLA BLA BLA BLA BLA BLA BLA BLA BLA BLA BLA BLA BLA BLA BLA BLA BLA 
BLA BLA BLA BLA BLA BLA BLA BLA BLA BLA BLA BLA BLA BLA BLA BLA BLA BLA BLA BLA 
BLA BLA BLA BLA BLA BLA BLA BLA BLA BLA BLA BLA BLA BLA BLA BLA BLA BLA BLA BLA 
BLA BLA BLA BLA BLA BLA BLA BLA BLA BLA BLA BLA BLA BLA BLA BLA BLA BLA BLA BLA 
BLA BLA BLA BLA BLA BLA BLA BLA BLA BLA BLA BLA BLA BLA BLA BLA BLA BLA BLA BLA 
BLA BLA BLA BLA BLA BLA BLA BLA BLA BLA BLA BLA BLA BLA BLA BLA BLA BLA BLA BLA 
BLA BLA BLA BLA BLA BLA BLA BLA BLA BLA BLA BLA BLA BLA BLA BLA BLA BLA BLA BLA 
BLA BLA BLA BLA BLA BLA BLA BLA BLA BLA BLA BLA BLA BLA BLA BLA BLA BLA BLA BLA 
BLA BLA BLA BLA BLA BLA BLA BLA BLA BLA BLA BLA BLA BLA BLA BLA BLA BLA BLA BLA 
BLA BLA BLA BLA BLA BLA BLA BLA BLA BLA BLA BLA BLA BLA BLA BLA BLA BLA BLA BLA 
BLA BLA BLA BLA BLA BLA BLA BLA BLA BLA BLA BLA BLA BLA BLA BLA BLA BLA BLA BLA 
BLA BLA BLA BLA BLA BLA BLA BLA BLA BLA BLA BLA BLA BLA BLA BLA BLA BLA BLA BLA 
BLA BLA BLA BLA BLA BLA BLA BLA BLA BLA BLA BLA BLA BLA BLA BLA BLA BLA BLA BLA 
BLA BLA BLA BLA BLA BLA BLA BLA BLA BLA BLA BLA BLA BLA BLA BLA BLA BLA BLA BLA 
BLA BLA BLA BLA BLA BLA BLA BLA BLA BLA BLA BLA BLA BLA BLA BLA BLA BLA BLA BLA 
BLA BLA BLA BLA BLA BLA BLA BLA BLA BLA BLA BLA BLA BLA BLA BLA BLA BLA BLA BLA 
BLA BLA BLA BLA BLA BLA BLA BLA BLA BLA BLA BLA BLA BLA BLA BLA BLA BLA BLA BLA 
BLA BLA BLA BLA BLA BLA BLA BLA BLA BLA BLA BLA BLA BLA BLA BLA BLA BLA BLA BLA 
BLA BLA BLA BLA BLA BLA BLA BLA BLA BLA BLA BLA BLA BLA BLA BLA BLA BLA BLA BLA 
BLA BLA BLA BLA BLA BLA BLA BLA BLA BLA BLA BLA BLA BLA BLA BLA BLA BLA BLA BLA 
BLA BLA BLA BLA BLA BLA BLA BLA BLA BLA BLA BLA BLA BLA BLA BLA BLA BLA BLA BLA 
BLA BLA BLA BLA BLA BLA BLA BLA BLA BLA BLA BLA BLA BLA BLA BLA BLA BLA BLA BLA 
BLA BLA BLA BLA BLA BLA BLA BLA BLA BLA BLA BLA BLA BLA BLA BLA BLA BLA BLA BLA 
BLA BLA BLA BLA BLA BLA BLA BLA BLA BLA BLA BLA BLA BLA BLA BLA BLA BLA BLA BLA 
BLA BLA BLA BLA BLA BLA BLA BLA BLA BLA BLA BLA BLA BLA BLA BLA BLA BLA BLA BLA 
BLA BLA BLA BLA BLA BLA BLA BLA BLA BLA BLA BLA BLA BLA BLA BLA BLA BLA BLA BLA 
BLA BLA BLA BLA BLA BLA BLA BLA BLA BLA BLA BLA BLA BLA BLA BLA BLA BLA BLA BLA 
BLA BLA BLA BLA BLA BLA BLA BLA BLA BLA BLA BLA BLA BLA BLA BLA BLA BLA BLA BLA 
BLA BLA BLA BLA BLA BLA BLA BLA BLA BLA BLA BLA BLA BLA BLA BLA BLA BLA BLA BLA 
BLA BLA BLA BLA BLA BLA BLA BLA BLA BLA BLA BLA BLA BLA BLA BLA BLA BLA BLA BLA 
BLA BLA BLA BLA BLA BLA BLA BLA BLA BLA BLA BLA BLA BLA BLA BLA BLA BLA BLA BLA 
BLA BLA BLA BLA BLA BLA BLA BLA BLA BLA BLA BLA BLA BLA BLA BLA BLA BLA BLA BLA 
BLA BLA BLA BLA BLA BLA BLA BLA BLA BLA BLA BLA BLA BLA BLA BLA BLA BLA BLA BLA 
BLA BLA BLA BLA BLA BLA BLA BLA BLA BLA BLA BLA BLA BLA BLA BLA BLA BLA BLA BLA 
BLA BLA BLA BLA BLA BLA BLA BLA BLA BLA BLA BLA BLA BLA BLA BLA BLA BLA BLA BLA 
BLA BLA BLA BLA BLA BLA BLA BLA BLA BLA BLA BLA BLA BLA BLA BLA BLA BLA BLA BLA 
BLA BLA BLA BLA BLA BLA BLA BLA BLA BLA BLA BLA BLA BLA BLA BLA BLA BLA BLA BLA 
BLA BLA BLA BLA BLA BLA BLA BLA BLA BLA BLA BLA BLA BLA BLA BLA BLA BLA BLA BLA 
BLA BLA BLA BLA BLA BLA BLA BLA BLA BLA BLA BLA BLA BLA BLA BLA BLA BLA BLA BLA 
BLA BLA BLA BLA BLA BLA BLA BLA BLA BLA BLA BLA BLA BLA BLA BLA BLA BLA BLA BLA 
BLA BLA BLA BLA BLA BLA BLA BLA BLA BLA BLA BLA BLA BLA BLA BLA BLA BLA BLA BLA 
BLA BLA BLA BLA BLA BLA BLA BLA BLA BLA BLA BLA BLA BLA BLA BLA BLA BLA BLA BLA 
BLA BLA BLA BLA BLA BLA BLA BLA BLA BLA BLA BLA BLA BLA BLA BLA BLA BLA BLA BLA 
BLA BLA BLA BLA BLA BLA BLA BLA BLA BLA BLA BLA BLA BLA BLA BLA BLA BLA BLA BLA 
BLA BLA BLA BLA BLA BLA BLA BLA BLA BLA BLA BLA BLA BLA BLA BLA BLA BLA BLA BLA 
BLA BLA BLA BLA BLA BLA BLA BLA BLA BLA BLA BLA BLA BLA BLA BLA BLA BLA BLA BLA 
BLA BLA BLA BLA BLA BLA BLA BLA BLA BLA BLA BLA BLA BLA BLA BLA BLA BLA BLA BLA 
BLA BLA BLA BLA BLA BLA BLA BLA BLA BLA BLA BLA BLA BLA BLA BLA BLA BLA BLA BLA 
BLA BLA BLA BLA BLA BLA BLA BLA BLA BLA BLA BLA BLA BLA BLA BLA BLA BLA BLA BLA 
BLA BLA BLA BLA BLA BLA BLA BLA BLA BLA BLA BLA BLA BLA BLA BLA BLA BLA BLA BLA 
BLA BLA BLA BLA BLA BLA BLA BLA BLA BLA BLA BLA BLA BLA BLA BLA BLA BLA BLA BLA 
BLA BLA BLA BLA BLA BLA BLA BLA BLA BLA BLA BLA BLA BLA BLA BLA BLA BLA BLA BLA 
BLA BLA BLA BLA BLA BLA BLA BLA BLA BLA BLA BLA BLA BLA BLA BLA BLA BLA BLA BLA 
BLA BLA BLA BLA BLA BLA BLA BLA BLA BLA BLA BLA BLA BLA BLA BLA BLA BLA BLA BLA 
BLA BLA BLA BLA BLA BLA BLA BLA BLA BLA BLA BLA BLA BLA BLA BLA BLA BLA BLA BLA 
BLA BLA BLA BLA BLA BLA BLA BLA BLA BLA BLA BLA BLA BLA BLA BLA BLA BLA BLA BLA 
BLA BLA BLA BLA BLA BLA BLA BLA BLA BLA BLA BLA BLA BLA BLA BLA BLA BLA BLA BLA 
BLA BLA BLA BLA BLA BLA BLA BLA BLA BLA BLA BLA BLA BLA BLA BLA BLA BLA BLA BLA 
BLA BLA BLA BLA BLA BLA BLA BLA BLA BLA BLA BLA BLA BLA BLA BLA BLA BLA BLA BLA 
BLA BLA BLA BLA BLA BLA BLA BLA BLA BLA BLA BLA BLA BLA BLA BLA BLA BLA BLA BLA 
BLA BLA BLA BLA BLA BLA BLA BLA BLA BLA BLA BLA BLA BLA BLA BLA BLA BLA BLA BLA 
BLA BLA BLA BLA BLA BLA BLA BLA BLA BLA BLA BLA BLA BLA BLA BLA BLA BLA BLA BLA 
BLA BLA BLA BLA BLA BLA BLA BLA BLA BLA BLA BLA BLA BLA BLA BLA BLA BLA BLA BLA 
BLA BLA BLA BLA BLA BLA BLA BLA BLA BLA BLA BLA BLA BLA BLA BLA BLA BLA BLA BLA 
BLA BLA BLA BLA BLA BLA BLA BLA BLA BLA BLA BLA BLA BLA BLA BLA BLA BLA BLA BLA 
BLA BLA BLA BLA BLA BLA BLA BLA BLA BLA BLA BLA BLA BLA BLA BLA BLA BLA BLA BLA 
BLA BLA BLA BLA BLA BLA BLA BLA BLA BLA BLA BLA BLA BLA BLA BLA BLA BLA BLA BLA 
BLA BLA BLA BLA BLA BLA BLA BLA BLA BLA BLA BLA BLA BLA BLA BLA BLA BLA BLA BLA 
BLA BLA BLA BLA BLA BLA BLA BLA BLA BLA BLA BLA BLA BLA BLA BLA BLA BLA BLA BLA 
BLA BLA BLA BLA BLA BLA BLA BLA BLA BLA BLA BLA BLA BLA BLA BLA BLA BLA BLA BLA 
BLA BLA BLA BLA BLA BLA BLA BLA BLA BLA BLA BLA BLA BLA BLA BLA BLA BLA BLA BLA 
BLA BLA BLA BLA BLA BLA BLA BLA BLA BLA BLA BLA BLA BLA BLA BLA BLA BLA BLA BLA 
BLA BLA BLA BLA BLA BLA BLA BLA BLA BLA BLA BLA BLA BLA BLA BLA BLA BLA BLA BLA 
BLA BLA BLA BLA BLA BLA BLA BLA BLA BLA BLA BLA BLA BLA BLA BLA BLA BLA BLA BLA 
BLA BLA BLA BLA BLA BLA BLA BLA BLA BLA BLA BLA BLA BLA BLA BLA BLA BLA BLA BLA 
BLA BLA BLA BLA BLA BLA BLA BLA BLA BLA BLA BLA BLA BLA BLA BLA BLA BLA BLA BLA 
BLA BLA BLA BLA BLA BLA BLA BLA BLA BLA BLA BLA BLA BLA BLA BLA BLA BLA BLA BLA 
BLA BLA BLA BLA BLA BLA BLA BLA BLA BLA BLA BLA BLA BLA BLA BLA BLA BLA BLA BLA 
BLA BLA BLA BLA BLA BLA BLA BLA BLA BLA BLA BLA BLA BLA BLA BLA BLA BLA BLA BLA 
BLA BLA BLA BLA BLA BLA BLA BLA BLA BLA BLA BLA BLA BLA BLA BLA BLA BLA BLA BLA 
BLA BLA BLA BLA BLA BLA BLA BLA BLA BLA BLA BLA BLA BLA BLA BLA BLA BLA BLA BLA 
BLA BLA BLA BLA BLA BLA BLA BLA BLA BLA BLA BLA BLA BLA BLA BLA BLA BLA BLA BLA 
BLA BLA BLA BLA BLA BLA BLA BLA BLA BLA BLA BLA BLA BLA BLA BLA BLA BLA BLA BLA 
BLA BLA BLA BLA BLA BLA BLA BLA BLA BLA BLA BLA BLA BLA BLA BLA BLA BLA BLA BLA 
BLA BLA BLA BLA BLA BLA BLA BLA BLA BLA BLA BLA BLA BLA BLA BLA BLA BLA BLA BLA 
BLA BLA BLA BLA BLA BLA BLA BLA BLA BLA BLA BLA BLA BLA BLA BLA BLA BLA BLA BLA 
BLA BLA BLA BLA BLA BLA BLA BLA BLA BLA BLA BLA BLA BLA BLA BLA BLA BLA BLA BLA 
BLA BLA BLA BLA BLA BLA BLA BLA BLA BLA BLA BLA BLA BLA BLA BLA BLA BLA BLA BLA 
BLA BLA BLA BLA BLA BLA BLA BLA BLA BLA BLA BLA BLA BLA BLA BLA BLA BLA BLA BLA 
BLA BLA BLA BLA BLA BLA BLA BLA BLA BLA BLA BLA BLA BLA BLA BLA BLA BLA BLA BLA 
BLA BLA BLA BLA BLA BLA BLA BLA BLA BLA BLA BLA BLA BLA BLA BLA BLA BLA BLA BLA 
BLA BLA BLA BLA BLA BLA BLA BLA BLA BLA BLA BLA BLA BLA BLA BLA BLA BLA BLA BLA 
BLA BLA BLA BLA BLA BLA BLA BLA BLA BLA BLA BLA BLA BLA BLA BLA BLA BLA BLA BLA 
BLA BLA BLA BLA BLA BLA BLA BLA BLA BLA BLA BLA BLA BLA BLA BLA BLA BLA BLA BLA 
BLA BLA BLA BLA BLA BLA BLA BLA BLA BLA BLA BLA BLA BLA BLA BLA BLA BLA BLA BLA 
BLA BLA BLA BLA BLA BLA BLA BLA BLA BLA BLA BLA BLA BLA BLA BLA BLA BLA BLA BLA 
BLA BLA BLA BLA BLA BLA BLA BLA BLA BLA BLA BLA BLA BLA BLA BLA BLA BLA BLA BLA 
BLA BLA BLA BLA BLA BLA BLA BLA BLA BLA BLA BLA BLA BLA BLA BLA BLA BLA BLA BLA 
BLA BLA BLA BLA BLA BLA BLA BLA BLA BLA BLA BLA BLA BLA BLA BLA BLA BLA BLA BLA 
BLA BLA BLA BLA BLA BLA BLA BLA BLA BLA BLA BLA BLA BLA BLA BLA BLA BLA BLA BLA 
BLA BLA BLA BLA BLA BLA BLA BLA BLA BLA BLA BLA BLA BLA BLA BLA BLA BLA BLA BLA 
BLA BLA BLA BLA BLA BLA BLA BLA BLA BLA BLA BLA BLA BLA BLA BLA BLA BLA BLA BLA 
BLA BLA BLA BLA BLA BLA BLA BLA BLA BLA BLA BLA BLA BLA BLA BLA BLA BLA BLA BLA 
BLA BLA BLA BLA BLA BLA BLA BLA BLA BLA BLA BLA BLA BLA BLA BLA BLA BLA BLA BLA 
BLA BLA BLA BLA BLA BLA BLA BLA BLA BLA BLA BLA BLA BLA BLA BLA BLA BLA BLA BLA 
BLA BLA BLA BLA BLA BLA BLA BLA BLA BLA BLA BLA BLA BLA BLA BLA BLA BLA BLA BLA 
BLA BLA BLA BLA BLA BLA BLA BLA BLA BLA BLA BLA BLA BLA BLA BLA BLA BLA BLA BLA 
BLA BLA BLA BLA BLA BLA BLA BLA BLA BLA BLA BLA BLA BLA BLA BLA BLA BLA BLA BLA 
BLA BLA BLA BLA BLA BLA BLA BLA BLA BLA BLA BLA BLA BLA BLA BLA BLA BLA BLA BLA 
BLA BLA BLA BLA BLA BLA BLA BLA BLA BLA BLA BLA BLA BLA BLA BLA BLA BLA BLA BLA 
BLA BLA BLA BLA BLA BLA BLA BLA BLA BLA BLA BLA BLA BLA BLA BLA BLA BLA BLA BLA 
BLA BLA BLA BLA BLA BLA BLA BLA BLA BLA BLA BLA BLA BLA BLA BLA BLA BLA BLA BLA 
BLA BLA BLA BLA BLA BLA BLA BLA BLA BLA BLA BLA BLA BLA BLA BLA BLA BLA BLA BLA 
BLA BLA BLA BLA BLA BLA BLA BLA BLA BLA BLA BLA BLA BLA BLA BLA BLA BLA BLA BLA 
BLA BLA BLA BLA BLA BLA BLA BLA BLA BLA BLA BLA BLA BLA BLA BLA BLA BLA BLA BLA 
BLA BLA BLA BLA BLA BLA BLA BLA BLA BLA BLA BLA BLA BLA BLA BLA BLA BLA BLA BLA 
BLA BLA BLA BLA BLA BLA BLA BLA BLA BLA BLA BLA BLA BLA BLA BLA BLA BLA BLA BLA 
BLA BLA BLA BLA BLA BLA BLA BLA BLA BLA BLA BLA BLA BLA BLA BLA BLA BLA BLA BLA 
BLA BLA BLA BLA BLA BLA BLA BLA BLA BLA BLA BLA BLA BLA BLA BLA BLA BLA BLA BLA 
BLA BLA BLA BLA BLA BLA BLA BLA BLA BLA BLA BLA BLA BLA BLA BLA BLA BLA BLA BLA 
BLA BLA BLA BLA BLA BLA BLA BLA BLA BLA BLA BLA BLA BLA BLA BLA BLA BLA BLA BLA 
BLA BLA BLA BLA BLA BLA BLA BLA BLA BLA BLA BLA BLA BLA BLA BLA BLA BLA BLA BLA 
BLA BLA BLA BLA BLA BLA BLA BLA BLA BLA BLA BLA BLA BLA BLA BLA BLA BLA BLA BLA 
BLA BLA BLA BLA BLA BLA BLA BLA BLA BLA BLA BLA BLA BLA BLA BLA BLA BLA BLA BLA 
BLA BLA BLA BLA BLA BLA BLA BLA BLA BLA BLA BLA BLA BLA BLA BLA BLA BLA BLA BLA 
BLA BLA BLA BLA BLA BLA BLA BLA BLA BLA BLA BLA BLA BLA BLA BLA BLA BLA BLA BLA 
BLA BLA BLA BLA BLA BLA BLA BLA BLA BLA BLA BLA BLA BLA BLA BLA BLA BLA BLA BLA 
BLA BLA BLA BLA BLA BLA BLA BLA BLA BLA BLA BLA BLA BLA BLA BLA BLA BLA BLA BLA 
BLA BLA BLA BLA BLA BLA BLA BLA BLA BLA BLA BLA BLA BLA BLA BLA BLA BLA BLA BLA 
BLA BLA BLA BLA BLA BLA BLA BLA BLA BLA BLA BLA BLA BLA BLA BLA BLA BLA BLA BLA 
BLA BLA BLA BLA BLA BLA BLA BLA BLA BLA BLA BLA BLA BLA BLA BLA BLA BLA BLA BLA 
BLA BLA BLA BLA BLA BLA BLA BLA BLA BLA BLA BLA BLA BLA BLA BLA BLA BLA BLA BLA 
BLA BLA BLA BLA BLA BLA BLA BLA BLA BLA BLA BLA BLA BLA BLA BLA BLA BLA BLA BLA 
BLA BLA BLA BLA BLA BLA BLA BLA BLA BLA BLA BLA BLA BLA BLA BLA BLA BLA BLA BLA 
BLA BLA BLA BLA BLA BLA BLA BLA BLA BLA BLA BLA BLA BLA BLA BLA BLA BLA BLA BLA 
BLA BLA BLA BLA BLA BLA BLA BLA BLA BLA BLA BLA BLA BLA BLA BLA BLA BLA BLA BLA 
BLA BLA BLA BLA BLA BLA BLA BLA BLA BLA BLA BLA BLA BLA BLA BLA BLA BLA BLA BLA 
BLA BLA BLA BLA BLA BLA BLA BLA BLA BLA BLA BLA BLA BLA BLA BLA BLA BLA BLA BLA 
BLA BLA BLA BLA BLA BLA BLA BLA BLA BLA BLA BLA BLA BLA BLA BLA BLA BLA BLA BLA 
BLA BLA BLA BLA BLA BLA BLA BLA BLA BLA BLA BLA BLA BLA BLA BLA BLA BLA BLA BLA 
BLA BLA BLA BLA BLA BLA BLA BLA BLA BLA BLA BLA BLA BLA BLA BLA BLA BLA BLA BLA 
BLA BLA BLA BLA BLA BLA BLA BLA BLA BLA BLA BLA BLA BLA BLA BLA BLA BLA BLA BLA 
BLA BLA BLA BLA BLA BLA BLA BLA BLA BLA BLA BLA BLA BLA BLA BLA BLA BLA BLA BLA 
BLA BLA BLA BLA BLA BLA BLA BLA BLA BLA BLA BLA BLA BLA BLA BLA BLA BLA BLA BLA 
BLA BLA BLA BLA BLA BLA BLA BLA BLA BLA BLA BLA BLA BLA BLA BLA BLA BLA BLA BLA 
BLA BLA BLA BLA BLA BLA BLA BLA BLA BLA BLA BLA BLA BLA BLA BLA BLA BLA BLA BLA 
BLA BLA BLA BLA BLA BLA BLA BLA BLA BLA BLA BLA BLA BLA BLA BLA BLA BLA BLA BLA 
BLA BLA BLA BLA BLA BLA BLA BLA BLA BLA BLA BLA BLA BLA BLA BLA BLA BLA BLA BLA 
BLA BLA BLA BLA BLA BLA BLA BLA BLA BLA BLA BLA BLA BLA BLA BLA BLA BLA BLA BLA 
BLA BLA BLA BLA BLA BLA BLA BLA BLA BLA BLA BLA BLA BLA BLA BLA BLA BLA BLA BLA 
BLA BLA BLA BLA BLA BLA BLA BLA BLA BLA BLA BLA BLA BLA BLA BLA BLA BLA BLA BLA 
BLA BLA BLA BLA BLA BLA BLA BLA BLA BLA BLA BLA BLA BLA BLA BLA BLA BLA BLA BLA 
BLA BLA BLA BLA BLA BLA BLA BLA BLA BLA BLA BLA BLA BLA BLA BLA BLA BLA BLA BLA 
BLA BLA BLA BLA BLA BLA BLA BLA BLA BLA BLA BLA BLA BLA BLA BLA BLA BLA BLA BLA 
BLA BLA BLA BLA BLA BLA BLA BLA BLA BLA BLA BLA BLA BLA BLA BLA BLA BLA BLA BLA 
BLA BLA BLA BLA BLA BLA BLA BLA BLA BLA BLA BLA BLA BLA BLA BLA BLA BLA BLA BLA 
BLA BLA BLA BLA BLA BLA BLA BLA BLA BLA BLA BLA BLA BLA BLA BLA BLA BLA BLA BLA 
BLA BLA BLA BLA BLA BLA BLA BLA BLA BLA BLA BLA BLA BLA BLA BLA BLA BLA BLA BLA 
BLA BLA BLA BLA BLA BLA BLA BLA BLA BLA BLA BLA BLA BLA BLA BLA BLA BLA BLA BLA 
BLA BLA BLA BLA BLA BLA BLA BLA BLA BLA BLA BLA BLA BLA BLA BLA BLA BLA BLA BLA 
BLA BLA BLA BLA BLA BLA BLA BLA BLA BLA BLA BLA BLA BLA BLA BLA BLA BLA BLA BLA 
BLA BLA BLA BLA BLA BLA BLA BLA BLA BLA BLA BLA BLA BLA BLA BLA BLA BLA BLA BLA 
BLA BLA BLA BLA BLA BLA BLA BLA BLA BLA BLA BLA BLA BLA BLA BLA BLA BLA BLA BLA 
BLA BLA BLA BLA BLA BLA BLA BLA BLA BLA BLA BLA BLA BLA BLA BLA BLA BLA BLA BLA 
BLA BLA BLA BLA BLA BLA BLA BLA BLA BLA BLA BLA BLA BLA BLA BLA BLA BLA BLA BLA 
BLA BLA BLA BLA BLA BLA BLA BLA BLA BLA BLA BLA BLA BLA BLA BLA BLA BLA BLA BLA 
BLA BLA BLA BLA BLA BLA BLA BLA BLA BLA BLA BLA BLA BLA BLA BLA BLA BLA BLA BLA 
BLA BLA BLA BLA BLA BLA BLA BLA BLA BLA BLA BLA BLA BLA BLA BLA BLA BLA BLA BLA 
BLA BLA BLA BLA BLA BLA BLA BLA BLA BLA BLA BLA BLA BLA BLA BLA BLA BLA BLA BLA 
BLA BLA BLA BLA BLA BLA BLA BLA BLA BLA BLA BLA BLA BLA BLA BLA BLA BLA BLA BLA 
BLA BLA BLA BLA BLA BLA BLA BLA BLA BLA BLA BLA BLA BLA BLA BLA BLA BLA BLA BLA 
BLA BLA BLA BLA BLA BLA BLA BLA BLA BLA BLA BLA BLA BLA BLA BLA BLA BLA BLA BLA 
BLA BLA BLA BLA BLA BLA BLA BLA BLA BLA BLA BLA BLA BLA BLA BLA BLA BLA BLA BLA 
BLA BLA BLA BLA BLA BLA BLA BLA BLA BLA BLA BLA BLA BLA BLA BLA BLA BLA BLA BLA 
BLA BLA BLA BLA BLA BLA BLA BLA BLA BLA BLA BLA BLA BLA BLA BLA BLA BLA BLA BLA 
BLA BLA BLA BLA BLA BLA BLA BLA BLA BLA BLA BLA BLA BLA BLA BLA BLA BLA BLA BLA 
BLA BLA BLA BLA BLA BLA BLA BLA BLA BLA BLA BLA BLA BLA BLA BLA BLA BLA BLA BLA 
BLA BLA BLA BLA BLA BLA BLA BLA BLA BLA BLA BLA BLA BLA BLA BLA BLA BLA BLA BLA 
BLA BLA BLA BLA BLA BLA BLA BLA BLA BLA BLA BLA BLA BLA BLA BLA BLA BLA BLA BLA 
BLA BLA BLA BLA BLA BLA BLA BLA BLA BLA BLA BLA BLA BLA BLA BLA BLA BLA BLA BLA 
BLA BLA BLA BLA BLA BLA BLA BLA BLA BLA BLA BLA BLA BLA BLA BLA BLA BLA BLA BLA 
BLA BLA BLA BLA BLA BLA BLA BLA BLA BLA BLA BLA BLA BLA BLA BLA BLA BLA BLA BLA 
BLA BLA BLA BLA BLA BLA BLA BLA BLA BLA BLA BLA BLA BLA BLA BLA BLA BLA BLA BLA 
BLA BLA BLA BLA BLA BLA BLA BLA BLA BLA BLA BLA BLA BLA BLA BLA BLA BLA BLA BLA 
BLA BLA BLA BLA BLA BLA BLA BLA BLA BLA BLA BLA BLA BLA BLA BLA BLA BLA BLA BLA 
BLA BLA BLA BLA BLA BLA BLA BLA BLA BLA BLA BLA BLA BLA BLA BLA BLA BLA BLA BLA 
BLA BLA BLA BLA BLA BLA BLA BLA BLA BLA BLA BLA BLA BLA BLA BLA BLA BLA BLA BLA 
BLA BLA BLA BLA BLA BLA BLA BLA BLA BLA BLA BLA BLA BLA BLA BLA BLA BLA BLA BLA 
BLA BLA BLA BLA BLA BLA BLA BLA BLA BLA BLA BLA BLA BLA BLA BLA BLA BLA BLA BLA 
BLA BLA BLA BLA BLA BLA BLA BLA BLA BLA BLA BLA BLA BLA BLA BLA BLA BLA BLA BLA 
BLA BLA BLA BLA BLA BLA BLA BLA BLA BLA BLA BLA BLA BLA BLA BLA BLA BLA BLA BLA 
BLA BLA BLA BLA BLA BLA BLA BLA BLA BLA BLA BLA BLA BLA BLA BLA BLA BLA BLA BLA 
BLA BLA BLA BLA BLA BLA BLA BLA BLA BLA BLA BLA BLA BLA BLA BLA BLA BLA BLA BLA 
BLA BLA BLA BLA BLA BLA BLA BLA BLA BLA BLA BLA BLA BLA BLA BLA BLA BLA BLA BLA 
BLA BLA BLA BLA BLA BLA BLA BLA BLA BLA BLA BLA BLA BLA BLA BLA BLA BLA BLA BLA 
BLA BLA BLA BLA BLA BLA BLA BLA BLA BLA BLA BLA BLA BLA BLA BLA BLA BLA BLA BLA 
BLA BLA BLA BLA BLA BLA BLA BLA BLA BLA BLA BLA BLA BLA BLA BLA BLA BLA BLA BLA 
BLA BLA BLA BLA BLA BLA BLA BLA BLA BLA BLA BLA BLA BLA BLA BLA BLA BLA BLA BLA 
BLA BLA BLA BLA BLA BLA BLA BLA BLA BLA BLA BLA BLA BLA BLA BLA BLA BLA BLA BLA 
BLA BLA BLA BLA BLA BLA BLA BLA BLA BLA BLA BLA BLA BLA BLA BLA BLA BLA BLA BLA 
BLA BLA BLA BLA BLA BLA BLA BLA BLA BLA BLA BLA BLA BLA BLA BLA BLA BLA BLA BLA 
BLA BLA BLA BLA BLA BLA BLA BLA BLA BLA BLA BLA BLA BLA BLA BLA BLA BLA BLA BLA 
BLA BLA BLA BLA BLA BLA BLA BLA BLA BLA BLA BLA BLA BLA BLA BLA BLA BLA BLA BLA 
BLA BLA BLA BLA BLA BLA BLA BLA BLA BLA BLA BLA BLA BLA BLA BLA BLA BLA BLA BLA 
BLA BLA BLA BLA BLA BLA BLA BLA BLA BLA BLA BLA BLA BLA BLA BLA BLA BLA BLA BLA 
BLA BLA BLA BLA BLA BLA BLA BLA BLA BLA BLA BLA BLA BLA BLA BLA BLA BLA BLA BLA 
BLA BLA BLA BLA BLA BLA BLA BLA BLA BLA BLA BLA BLA BLA BLA BLA BLA BLA BLA BLA 
BLA BLA BLA BLA BLA BLA BLA BLA BLA BLA BLA BLA BLA BLA BLA BLA BLA BLA BLA BLA 
BLA BLA BLA BLA BLA BLA BLA BLA BLA BLA BLA BLA BLA BLA BLA BLA BLA BLA BLA BLA 
BLA BLA BLA BLA BLA BLA BLA BLA BLA BLA BLA BLA BLA BLA BLA BLA BLA BLA BLA BLA 
BLA BLA BLA BLA BLA BLA BLA BLA BLA BLA BLA BLA BLA BLA BLA BLA BLA BLA BLA BLA 
BLA BLA BLA BLA BLA BLA BLA BLA BLA BLA BLA BLA BLA BLA BLA BLA BLA BLA BLA BLA 
BLA BLA BLA BLA BLA BLA BLA BLA BLA BLA BLA BLA BLA BLA BLA BLA BLA BLA BLA BLA 
BLA BLA BLA BLA BLA BLA BLA BLA BLA BLA BLA BLA BLA BLA BLA BLA BLA BLA BLA BLA 
BLA BLA BLA BLA BLA BLA BLA BLA BLA BLA BLA BLA BLA BLA BLA BLA BLA BLA BLA BLA 
BLA BLA BLA BLA BLA BLA BLA BLA BLA BLA BLA BLA BLA BLA BLA BLA BLA BLA BLA BLA 
BLA BLA BLA BLA BLA BLA BLA BLA BLA BLA BLA BLA BLA BLA BLA BLA BLA BLA BLA BLA 
BLA BLA BLA BLA BLA BLA BLA BLA BLA BLA BLA BLA BLA BLA BLA BLA BLA BLA BLA BLA 
BLA BLA BLA BLA BLA BLA BLA BLA BLA BLA BLA BLA BLA BLA BLA BLA BLA BLA BLA BLA 
BLA BLA BLA BLA BLA BLA BLA BLA BLA BLA BLA BLA BLA BLA BLA BLA BLA BLA BLA BLA 
BLA BLA BLA BLA BLA BLA BLA BLA BLA BLA BLA BLA BLA BLA BLA BLA BLA BLA BLA BLA 
BLA BLA BLA BLA BLA BLA BLA BLA BLA BLA BLA BLA BLA BLA BLA BLA BLA BLA BLA BLA 
BLA BLA BLA BLA BLA BLA BLA BLA BLA BLA BLA BLA BLA BLA BLA BLA BLA BLA BLA BLA 
BLA BLA BLA BLA BLA BLA BLA BLA BLA BLA BLA BLA BLA BLA BLA BLA BLA BLA BLA BLA 
BLA BLA BLA BLA BLA BLA BLA BLA BLA BLA BLA BLA BLA BLA BLA BLA BLA BLA BLA BLA 
BLA BLA BLA BLA BLA BLA BLA BLA BLA BLA BLA BLA BLA BLA BLA BLA BLA BLA BLA BLA 
BLA BLA BLA BLA BLA BLA BLA BLA BLA BLA BLA BLA BLA BLA BLA BLA BLA BLA BLA BLA 
BLA BLA BLA BLA BLA BLA BLA BLA BLA BLA BLA BLA BLA BLA BLA BLA BLA BLA BLA BLA 
BLA BLA BLA BLA BLA BLA BLA BLA BLA BLA BLA BLA BLA BLA BLA BLA BLA BLA BLA BLA 
BLA BLA BLA BLA BLA BLA BLA BLA BLA BLA BLA BLA BLA BLA BLA BLA BLA BLA BLA BLA 
BLA BLA BLA BLA BLA BLA BLA BLA BLA BLA BLA BLA BLA BLA BLA BLA BLA BLA BLA BLA 
BLA BLA BLA BLA BLA BLA BLA BLA BLA BLA BLA BLA BLA BLA BLA BLA BLA BLA BLA BLA 
BLA BLA BLA BLA BLA BLA BLA BLA BLA BLA BLA BLA BLA BLA BLA BLA BLA BLA BLA BLA 
BLA BLA BLA BLA BLA BLA BLA BLA BLA BLA BLA BLA BLA BLA BLA BLA BLA BLA BLA BLA 
BLA BLA BLA BLA BLA BLA BLA BLA BLA BLA BLA BLA BLA BLA BLA BLA BLA BLA BLA BLA 
BLA BLA BLA BLA BLA BLA BLA BLA BLA BLA BLA BLA BLA BLA BLA BLA BLA BLA BLA BLA 
BLA BLA BLA BLA BLA BLA BLA BLA BLA BLA BLA BLA BLA BLA BLA BLA BLA BLA BLA BLA 
BLA BLA BLA BLA BLA BLA BLA BLA BLA BLA BLA BLA BLA BLA BLA BLA BLA BLA BLA BLA 
BLA BLA BLA BLA BLA BLA BLA BLA BLA BLA BLA BLA BLA BLA BLA BLA BLA BLA BLA BLA 
BLA BLA BLA BLA BLA BLA BLA BLA BLA BLA BLA BLA BLA BLA BLA BLA BLA BLA BLA BLA 
BLA BLA BLA BLA BLA BLA BLA BLA BLA BLA BLA BLA BLA BLA BLA BLA BLA BLA BLA BLA 
BLA BLA BLA BLA BLA BLA BLA BLA BLA BLA BLA BLA BLA BLA BLA BLA BLA BLA BLA BLA 
BLA BLA BLA BLA BLA BLA BLA BLA BLA BLA BLA BLA BLA BLA BLA BLA BLA BLA BLA BLA 
BLA BLA BLA BLA BLA BLA BLA BLA BLA BLA BLA BLA BLA BLA BLA BLA BLA BLA BLA BLA 
BLA BLA BLA BLA BLA BLA BLA BLA BLA BLA BLA BLA BLA BLA BLA BLA BLA BLA BLA BLA 
BLA BLA BLA BLA BLA BLA BLA BLA BLA BLA BLA BLA BLA BLA BLA BLA BLA BLA BLA BLA 
BLA BLA BLA BLA BLA BLA BLA BLA BLA BLA BLA BLA BLA BLA BLA BLA BLA BLA BLA BLA 
BLA BLA BLA BLA BLA BLA BLA BLA BLA BLA BLA BLA BLA BLA BLA BLA BLA BLA BLA BLA 
BLA BLA BLA BLA BLA BLA BLA BLA BLA BLA BLA BLA BLA BLA BLA BLA BLA BLA BLA BLA 
BLA BLA BLA BLA BLA BLA BLA BLA BLA BLA BLA BLA BLA BLA BLA BLA BLA BLA BLA BLA 
BLA BLA BLA BLA BLA BLA BLA BLA BLA BLA BLA BLA BLA BLA BLA BLA BLA BLA BLA BLA 
BLA BLA BLA BLA BLA BLA BLA BLA BLA BLA BLA BLA BLA BLA BLA BLA BLA BLA BLA BLA 
BLA BLA BLA BLA BLA BLA BLA BLA BLA BLA BLA BLA BLA BLA BLA BLA BLA BLA BLA BLA 
BLA BLA BLA BLA BLA BLA BLA BLA BLA BLA BLA BLA BLA BLA BLA BLA BLA BLA BLA BLA 
BLA BLA BLA BLA BLA BLA BLA BLA BLA BLA BLA BLA BLA BLA BLA BLA BLA BLA BLA BLA 
BLA BLA BLA BLA BLA BLA BLA BLA BLA BLA BLA BLA BLA BLA BLA BLA BLA BLA BLA BLA 
BLA BLA BLA BLA BLA BLA BLA BLA BLA BLA BLA BLA BLA BLA BLA BLA BLA BLA BLA BLA 
BLA BLA BLA BLA BLA BLA BLA BLA BLA BLA BLA BLA BLA BLA BLA BLA BLA BLA BLA BLA 
BLA BLA BLA BLA BLA BLA BLA BLA BLA BLA BLA BLA BLA BLA BLA BLA BLA BLA BLA BLA 
BLA BLA BLA BLA BLA BLA BLA BLA BLA BLA BLA BLA BLA BLA BLA BLA BLA BLA BLA BLA 
BLA BLA BLA BLA BLA BLA BLA BLA BLA BLA BLA BLA BLA BLA BLA BLA BLA BLA BLA BLA 
BLA BLA BLA BLA BLA BLA BLA BLA BLA BLA BLA BLA BLA BLA BLA BLA BLA BLA BLA BLA 
BLA BLA BLA BLA BLA BLA BLA BLA BLA BLA BLA BLA BLA BLA BLA BLA BLA BLA BLA BLA 
BLA BLA BLA BLA BLA BLA BLA BLA BLA BLA BLA BLA BLA BLA BLA BLA BLA BLA BLA BLA 
BLA BLA BLA BLA BLA BLA BLA BLA BLA BLA BLA BLA BLA BLA BLA BLA BLA BLA BLA BLA 
BLA BLA BLA BLA BLA BLA BLA BLA BLA BLA BLA BLA BLA BLA BLA BLA BLA BLA BLA BLA 
BLA BLA BLA BLA BLA BLA BLA BLA BLA BLA BLA BLA BLA BLA BLA BLA BLA BLA BLA BLA 
BLA BLA BLA BLA BLA BLA BLA BLA BLA BLA BLA BLA BLA BLA BLA BLA BLA BLA BLA BLA 
BLA BLA BLA BLA BLA BLA BLA BLA BLA BLA BLA BLA BLA BLA BLA BLA BLA BLA BLA BLA 
BLA BLA BLA BLA BLA BLA BLA BLA BLA BLA BLA BLA BLA BLA BLA BLA BLA BLA BLA BLA 
BLA BLA BLA BLA BLA BLA BLA BLA BLA BLA BLA BLA BLA BLA BLA BLA BLA BLA BLA BLA 
BLA BLA BLA BLA BLA BLA BLA BLA BLA BLA BLA BLA BLA BLA BLA BLA BLA BLA BLA BLA 
BLA BLA BLA BLA BLA BLA BLA BLA BLA BLA BLA BLA BLA BLA BLA BLA BLA BLA BLA BLA 
BLA BLA BLA BLA BLA BLA BLA BLA BLA BLA BLA BLA BLA BLA BLA BLA BLA BLA BLA BLA 
BLA BLA BLA BLA BLA BLA BLA BLA BLA BLA BLA BLA BLA BLA BLA BLA BLA BLA BLA BLA 
BLA BLA BLA BLA BLA BLA BLA BLA BLA BLA BLA BLA BLA BLA BLA BLA BLA BLA BLA BLA 
BLA BLA BLA BLA BLA BLA BLA BLA BLA BLA BLA BLA BLA BLA BLA BLA BLA BLA BLA BLA 
BLA BLA BLA BLA BLA BLA BLA BLA BLA BLA BLA BLA BLA BLA BLA BLA BLA BLA BLA BLA 
BLA BLA BLA BLA BLA BLA BLA BLA BLA BLA BLA BLA BLA BLA BLA BLA BLA BLA BLA BLA 
BLA BLA BLA BLA BLA BLA BLA BLA BLA BLA BLA BLA BLA BLA BLA BLA BLA BLA BLA BLA 
BLA BLA BLA BLA BLA BLA BLA BLA BLA BLA BLA BLA BLA BLA BLA BLA BLA BLA BLA BLA 
BLA BLA BLA BLA BLA BLA BLA BLA BLA BLA BLA BLA BLA BLA BLA BLA BLA BLA BLA BLA 
BLA BLA BLA BLA BLA BLA BLA BLA BLA BLA BLA BLA BLA BLA BLA BLA BLA BLA BLA BLA 
BLA BLA BLA BLA BLA BLA BLA BLA BLA BLA BLA BLA BLA BLA BLA BLA BLA BLA BLA BLA 
BLA BLA BLA BLA BLA BLA BLA BLA BLA BLA BLA BLA BLA BLA BLA BLA BLA BLA BLA BLA 
BLA BLA BLA BLA BLA BLA BLA BLA BLA BLA BLA BLA BLA BLA BLA BLA BLA BLA BLA BLA 
BLA BLA BLA BLA BLA BLA BLA BLA BLA BLA BLA BLA BLA BLA BLA BLA BLA BLA BLA BLA 
BLA BLA BLA BLA BLA BLA BLA BLA BLA BLA BLA BLA BLA BLA BLA BLA BLA BLA BLA BLA 
BLA BLA BLA BLA BLA BLA BLA BLA BLA BLA BLA BLA BLA BLA BLA BLA BLA BLA BLA BLA 
BLA BLA BLA BLA BLA BLA BLA BLA BLA BLA BLA BLA BLA BLA BLA BLA BLA BLA BLA BLA 
BLA BLA BLA BLA BLA BLA BLA BLA BLA BLA BLA BLA BLA BLA BLA BLA BLA BLA BLA BLA 
BLA BLA BLA BLA BLA BLA BLA BLA BLA BLA BLA BLA BLA BLA BLA BLA BLA BLA BLA BLA 
BLA BLA BLA BLA BLA BLA BLA BLA BLA BLA BLA BLA BLA BLA BLA BLA BLA BLA BLA BLA 
BLA BLA BLA BLA BLA BLA BLA BLA BLA BLA BLA BLA BLA BLA BLA BLA BLA BLA BLA BLA 
BLA BLA BLA BLA BLA BLA BLA BLA BLA BLA BLA BLA BLA BLA BLA BLA BLA BLA BLA BLA 
BLA BLA BLA BLA BLA BLA BLA BLA BLA BLA BLA BLA BLA BLA BLA BLA BLA BLA BLA BLA 
BLA BLA BLA BLA BLA BLA BLA BLA BLA BLA BLA BLA BLA BLA BLA BLA BLA BLA BLA BLA 
BLA BLA BLA BLA BLA BLA BLA BLA BLA BLA BLA BLA BLA BLA BLA BLA BLA BLA BLA BLA 
BLA BLA BLA BLA BLA BLA BLA BLA BLA BLA BLA BLA BLA BLA BLA BLA BLA BLA BLA BLA 
BLA BLA BLA BLA BLA BLA BLA BLA BLA BLA BLA BLA BLA BLA BLA BLA BLA BLA BLA BLA 
BLA BLA BLA BLA BLA BLA BLA BLA BLA BLA BLA BLA BLA BLA BLA BLA BLA BLA BLA BLA 
BLA BLA BLA BLA BLA BLA BLA BLA BLA BLA BLA BLA BLA BLA BLA BLA BLA BLA BLA BLA 
BLA BLA BLA BLA BLA BLA BLA BLA BLA BLA BLA BLA BLA BLA BLA BLA BLA BLA BLA BLA 
BLA BLA BLA BLA BLA BLA BLA BLA BLA BLA BLA BLA BLA BLA BLA BLA BLA BLA BLA BLA 
BLA BLA BLA BLA BLA BLA BLA BLA BLA BLA BLA BLA BLA BLA BLA BLA BLA BLA BLA BLA 
BLA BLA BLA BLA BLA BLA BLA BLA BLA BLA BLA BLA BLA BLA BLA BLA BLA BLA BLA BLA 
BLA BLA BLA BLA BLA BLA BLA BLA BLA BLA BLA BLA BLA BLA BLA BLA BLA BLA BLA BLA 
BLA BLA BLA BLA BLA BLA BLA BLA BLA BLA BLA BLA BLA BLA BLA BLA BLA BLA BLA BLA 
BLA BLA BLA BLA BLA BLA BLA BLA BLA BLA BLA BLA BLA BLA BLA BLA BLA BLA BLA BLA 
BLA BLA BLA BLA BLA BLA BLA BLA BLA BLA BLA BLA BLA BLA BLA BLA BLA BLA BLA BLA 
BLA BLA BLA BLA BLA BLA BLA BLA BLA BLA BLA BLA BLA BLA BLA BLA BLA BLA BLA BLA 
BLA BLA BLA BLA BLA BLA BLA BLA BLA BLA BLA BLA BLA BLA BLA BLA BLA BLA BLA BLA 
BLA BLA BLA BLA BLA BLA BLA BLA BLA BLA BLA BLA BLA BLA BLA BLA BLA BLA BLA BLA 
BLA BLA BLA BLA BLA BLA BLA BLA BLA BLA BLA BLA BLA BLA BLA BLA BLA BLA BLA BLA 
BLA BLA BLA BLA BLA BLA BLA BLA BLA BLA BLA BLA BLA BLA BLA BLA BLA BLA BLA BLA 
BLA BLA BLA BLA BLA BLA BLA BLA BLA BLA BLA BLA BLA BLA BLA BLA BLA BLA BLA BLA 
BLA BLA BLA BLA BLA BLA BLA BLA BLA BLA BLA BLA BLA BLA BLA BLA BLA BLA BLA BLA 
BLA BLA BLA BLA BLA BLA BLA BLA BLA BLA BLA BLA BLA BLA BLA BLA BLA BLA BLA BLA 
BLA BLA BLA BLA BLA BLA BLA BLA BLA BLA BLA BLA BLA BLA BLA BLA BLA BLA BLA BLA 
BLA BLA BLA BLA BLA BLA BLA BLA BLA BLA BLA BLA BLA BLA BLA BLA BLA BLA BLA BLA 
BLA BLA BLA BLA BLA BLA BLA BLA BLA BLA BLA BLA BLA BLA BLA BLA BLA BLA BLA BLA 
BLA BLA BLA BLA BLA BLA BLA BLA BLA BLA BLA BLA BLA BLA BLA BLA BLA BLA BLA BLA 
BLA BLA BLA BLA BLA BLA BLA BLA BLA BLA BLA BLA BLA BLA BLA BLA BLA BLA BLA BLA 
BLA BLA BLA BLA BLA BLA BLA BLA BLA BLA BLA BLA BLA BLA BLA BLA BLA BLA BLA BLA 
BLA BLA BLA BLA BLA BLA BLA BLA BLA BLA BLA BLA BLA BLA BLA BLA BLA BLA BLA BLA 
BLA BLA BLA BLA BLA BLA BLA BLA BLA BLA BLA BLA BLA BLA BLA BLA BLA BLA BLA BLA 
BLA BLA BLA BLA BLA BLA BLA BLA BLA BLA BLA BLA BLA BLA BLA BLA BLA BLA BLA BLA 
BLA BLA BLA BLA BLA BLA BLA BLA BLA BLA BLA BLA BLA BLA BLA BLA BLA BLA BLA BLA 
BLA BLA BLA BLA BLA BLA BLA BLA BLA BLA BLA BLA BLA BLA BLA BLA BLA BLA BLA BLA 
BLA BLA BLA BLA BLA BLA BLA BLA BLA BLA BLA BLA BLA BLA BLA BLA BLA BLA BLA BLA 
BLA BLA BLA BLA BLA BLA BLA BLA BLA BLA BLA BLA BLA BLA BLA BLA BLA BLA BLA BLA 
BLA BLA BLA BLA BLA BLA BLA BLA BLA BLA BLA BLA BLA BLA BLA BLA BLA BLA BLA BLA 
BLA BLA BLA BLA BLA BLA BLA BLA BLA BLA BLA BLA BLA BLA BLA BLA BLA BLA BLA BLA 
BLA BLA BLA BLA BLA BLA BLA BLA BLA BLA BLA BLA BLA BLA BLA BLA BLA BLA BLA BLA 
BLA BLA BLA BLA BLA BLA BLA BLA BLA BLA BLA BLA BLA BLA BLA BLA BLA BLA BLA BLA 
BLA BLA BLA BLA BLA BLA BLA BLA BLA BLA BLA BLA BLA BLA BLA BLA BLA BLA BLA BLA 
BLA BLA BLA BLA BLA BLA BLA BLA BLA BLA BLA BLA BLA BLA BLA BLA BLA BLA BLA BLA 
BLA BLA BLA BLA BLA BLA BLA BLA BLA BLA BLA BLA BLA BLA BLA BLA BLA BLA BLA BLA 
BLA BLA BLA BLA BLA BLA BLA BLA BLA BLA BLA BLA BLA BLA BLA BLA BLA BLA BLA BLA 
BLA BLA BLA BLA BLA BLA BLA BLA BLA BLA BLA BLA BLA BLA BLA BLA BLA BLA BLA BLA 
BLA BLA BLA BLA BLA BLA BLA BLA BLA BLA BLA BLA BLA BLA BLA BLA BLA BLA BLA BLA 
BLA BLA BLA BLA BLA BLA BLA BLA BLA BLA BLA BLA BLA BLA BLA BLA BLA BLA BLA BLA 
BLA BLA BLA BLA BLA BLA BLA BLA BLA BLA BLA BLA BLA BLA BLA BLA BLA BLA BLA BLA 
BLA BLA BLA BLA BLA BLA BLA BLA BLA BLA BLA BLA BLA BLA BLA BLA BLA BLA BLA BLA 
BLA BLA BLA BLA BLA BLA BLA BLA BLA BLA BLA BLA BLA BLA BLA BLA BLA BLA BLA BLA 
BLA BLA BLA BLA BLA BLA BLA BLA BLA BLA BLA BLA BLA BLA BLA BLA BLA BLA BLA BLA 
BLA BLA BLA BLA BLA BLA BLA BLA BLA BLA BLA BLA BLA BLA BLA BLA BLA BLA BLA BLA 
BLA BLA BLA BLA BLA BLA BLA BLA BLA BLA BLA BLA BLA BLA BLA BLA BLA BLA BLA BLA 
BLA BLA BLA BLA BLA BLA BLA BLA BLA BLA BLA BLA BLA BLA BLA BLA BLA BLA BLA BLA 
BLA BLA BLA BLA BLA BLA BLA BLA BLA BLA BLA BLA BLA BLA BLA BLA BLA BLA BLA BLA 
BLA BLA BLA BLA BLA BLA BLA BLA BLA BLA BLA BLA BLA BLA BLA BLA BLA BLA BLA BLA 
BLA BLA BLA BLA BLA BLA BLA BLA BLA BLA BLA BLA BLA BLA BLA BLA BLA BLA BLA BLA 
BLA BLA BLA BLA BLA BLA BLA BLA BLA BLA BLA BLA BLA BLA BLA BLA BLA BLA BLA BLA 
BLA BLA BLA BLA BLA BLA BLA BLA BLA BLA BLA BLA BLA BLA BLA BLA BLA BLA BLA BLA 
BLA BLA BLA BLA BLA BLA BLA BLA BLA BLA BLA BLA BLA BLA BLA BLA BLA BLA BLA BLA 
BLA BLA BLA BLA BLA BLA BLA BLA BLA BLA BLA BLA BLA BLA BLA BLA BLA BLA BLA BLA 
BLA BLA BLA BLA BLA BLA BLA BLA BLA BLA BLA BLA BLA BLA BLA BLA BLA BLA BLA BLA 
BLA BLA BLA BLA BLA BLA BLA BLA BLA BLA BLA BLA BLA BLA BLA BLA BLA BLA BLA BLA 
BLA BLA BLA BLA BLA BLA BLA BLA BLA BLA BLA BLA BLA BLA BLA BLA BLA BLA BLA BLA 
BLA BLA BLA BLA BLA BLA BLA BLA BLA BLA BLA BLA BLA BLA BLA BLA BLA BLA BLA BLA 
BLA BLA BLA BLA BLA BLA BLA BLA BLA BLA BLA BLA BLA BLA BLA BLA BLA BLA BLA BLA 
BLA BLA BLA BLA BLA BLA BLA BLA BLA BLA BLA BLA BLA BLA BLA BLA BLA BLA BLA BLA 
BLA BLA BLA BLA BLA BLA BLA BLA BLA BLA BLA BLA BLA BLA BLA BLA BLA BLA BLA BLA 
BLA BLA BLA BLA BLA BLA BLA BLA BLA BLA BLA BLA BLA BLA BLA BLA BLA BLA BLA BLA 
BLA BLA BLA BLA BLA BLA BLA BLA BLA BLA BLA BLA BLA BLA BLA BLA BLA BLA BLA BLA 
BLA BLA BLA BLA BLA BLA BLA BLA BLA BLA BLA BLA BLA BLA BLA BLA BLA BLA BLA BLA 
BLA BLA BLA BLA BLA BLA BLA BLA BLA BLA BLA BLA BLA BLA BLA BLA BLA BLA BLA BLA 
BLA BLA BLA BLA BLA BLA BLA BLA BLA BLA BLA BLA BLA BLA BLA BLA BLA BLA BLA BLA 
BLA BLA BLA BLA BLA BLA BLA BLA BLA BLA BLA BLA BLA BLA BLA BLA BLA BLA BLA BLA 
BLA BLA BLA BLA BLA BLA BLA BLA BLA BLA BLA BLA BLA BLA BLA BLA BLA BLA BLA BLA 
BLA BLA BLA BLA BLA BLA BLA BLA BLA BLA BLA BLA BLA BLA BLA BLA BLA BLA BLA BLA 
BLA BLA BLA BLA BLA BLA BLA BLA BLA BLA BLA BLA BLA BLA BLA BLA BLA BLA BLA BLA 
BLA BLA BLA BLA BLA BLA BLA BLA BLA BLA BLA BLA BLA BLA BLA BLA BLA BLA BLA BLA 
BLA BLA BLA BLA BLA BLA BLA BLA BLA BLA BLA BLA BLA BLA BLA BLA BLA BLA BLA BLA 
BLA BLA BLA BLA BLA BLA BLA BLA BLA BLA BLA BLA BLA BLA BLA BLA BLA BLA BLA BLA 
BLA BLA BLA BLA BLA BLA BLA BLA BLA BLA BLA BLA BLA BLA BLA BLA BLA BLA BLA BLA 
BLA BLA BLA BLA BLA BLA BLA BLA BLA BLA BLA BLA BLA BLA BLA BLA BLA BLA BLA BLA 
BLA BLA BLA BLA BLA BLA BLA BLA BLA BLA BLA BLA BLA BLA BLA BLA BLA BLA BLA BLA 
BLA BLA BLA BLA BLA BLA BLA BLA BLA BLA BLA BLA BLA BLA BLA BLA BLA BLA BLA BLA 
BLA BLA BLA BLA BLA BLA BLA BLA BLA BLA BLA BLA BLA BLA BLA BLA BLA BLA BLA BLA 
BLA BLA BLA BLA BLA BLA BLA BLA BLA BLA BLA BLA BLA BLA BLA BLA BLA BLA BLA BLA 
BLA BLA BLA BLA BLA BLA BLA BLA BLA BLA BLA BLA BLA BLA BLA BLA BLA BLA BLA BLA 
BLA BLA BLA BLA BLA BLA BLA BLA BLA BLA BLA BLA BLA BLA BLA BLA BLA BLA BLA BLA 
BLA BLA BLA BLA BLA BLA BLA BLA BLA BLA BLA BLA BLA BLA BLA BLA BLA BLA BLA BLA 
BLA BLA BLA BLA BLA BLA BLA BLA BLA BLA BLA BLA BLA BLA BLA BLA BLA BLA BLA BLA 
BLA BLA BLA BLA BLA BLA BLA BLA BLA BLA BLA BLA BLA BLA BLA BLA BLA BLA BLA BLA 
BLA BLA BLA BLA BLA BLA BLA BLA BLA BLA BLA BLA BLA BLA BLA BLA BLA BLA BLA BLA 
BLA BLA BLA BLA BLA BLA BLA BLA BLA BLA BLA BLA BLA BLA BLA BLA BLA BLA BLA BLA 
BLA BLA BLA BLA BLA BLA BLA BLA BLA BLA BLA BLA BLA BLA BLA BLA BLA BLA BLA BLA 
BLA BLA BLA BLA BLA BLA BLA BLA BLA BLA BLA BLA BLA BLA BLA BLA BLA BLA BLA BLA 
BLA BLA BLA BLA BLA BLA BLA BLA BLA BLA BLA BLA BLA BLA BLA BLA BLA BLA BLA BLA 
BLA BLA BLA BLA BLA BLA BLA BLA BLA BLA BLA BLA BLA BLA BLA BLA BLA BLA BLA BLA 
BLA BLA BLA BLA BLA BLA BLA BLA BLA BLA BLA BLA BLA BLA BLA BLA BLA BLA BLA BLA 
BLA BLA BLA BLA BLA BLA BLA BLA BLA BLA BLA BLA BLA BLA BLA BLA BLA BLA BLA BLA 
BLA BLA BLA BLA BLA BLA BLA BLA BLA BLA BLA BLA BLA BLA BLA BLA BLA BLA BLA BLA 
BLA BLA BLA BLA BLA BLA BLA BLA BLA BLA BLA BLA BLA BLA BLA BLA BLA BLA BLA BLA 
BLA BLA BLA BLA BLA BLA BLA BLA BLA BLA BLA BLA BLA BLA BLA BLA BLA BLA BLA BLA 
BLA BLA BLA BLA BLA BLA BLA BLA BLA BLA BLA BLA BLA BLA BLA BLA BLA BLA BLA BLA 
BLA BLA BLA BLA BLA BLA BLA BLA BLA BLA BLA BLA BLA BLA BLA BLA BLA BLA BLA BLA 
BLA BLA BLA BLA BLA BLA BLA BLA BLA BLA BLA BLA BLA BLA BLA BLA BLA BLA BLA BLA 
BLA BLA BLA BLA BLA BLA BLA BLA BLA BLA BLA BLA BLA BLA BLA BLA BLA BLA BLA BLA 
BLA BLA BLA BLA BLA BLA BLA BLA BLA BLA BLA BLA BLA BLA BLA BLA BLA BLA BLA BLA 
BLA BLA BLA BLA BLA BLA BLA BLA BLA BLA BLA BLA BLA BLA BLA BLA BLA BLA BLA BLA 
BLA BLA BLA BLA BLA BLA BLA BLA BLA BLA BLA BLA BLA BLA BLA BLA BLA BLA BLA BLA 
BLA BLA BLA BLA BLA BLA BLA BLA BLA BLA BLA BLA BLA BLA BLA BLA BLA BLA BLA BLA 
BLA BLA BLA BLA BLA BLA BLA BLA BLA BLA BLA BLA BLA BLA BLA BLA BLA BLA BLA BLA 
BLA BLA BLA BLA BLA BLA BLA BLA BLA BLA BLA BLA BLA BLA BLA BLA BLA BLA BLA BLA 
BLA BLA BLA BLA BLA BLA BLA BLA BLA BLA BLA BLA BLA BLA BLA BLA BLA BLA BLA BLA 
BLA BLA BLA BLA BLA BLA BLA BLA BLA BLA BLA BLA BLA BLA BLA BLA BLA BLA BLA BLA 
BLA BLA BLA BLA BLA BLA BLA BLA BLA BLA BLA BLA BLA BLA BLA BLA BLA BLA BLA BLA 
BLA BLA BLA BLA BLA BLA BLA BLA BLA BLA BLA BLA BLA BLA BLA BLA BLA BLA BLA BLA 
BLA BLA BLA BLA BLA BLA BLA BLA BLA BLA BLA BLA BLA BLA BLA BLA BLA BLA BLA BLA 
BLA BLA BLA BLA BLA BLA BLA BLA BLA BLA BLA BLA BLA BLA BLA BLA BLA BLA BLA BLA 
BLA BLA BLA BLA BLA BLA BLA BLA BLA BLA BLA BLA BLA BLA BLA BLA BLA BLA BLA BLA 
BLA BLA BLA BLA BLA BLA BLA BLA BLA BLA BLA BLA BLA BLA BLA BLA BLA BLA BLA BLA 
BLA BLA BLA BLA BLA BLA BLA BLA BLA BLA BLA BLA BLA BLA BLA BLA BLA BLA BLA BLA 
BLA BLA BLA BLA BLA BLA BLA BLA BLA BLA BLA BLA BLA BLA BLA BLA BLA BLA BLA BLA 
BLA BLA BLA BLA BLA BLA BLA BLA BLA BLA BLA BLA BLA BLA BLA BLA BLA BLA BLA BLA 
BLA BLA BLA BLA BLA BLA BLA BLA BLA BLA BLA BLA BLA BLA BLA BLA BLA BLA BLA BLA 
BLA BLA BLA BLA BLA BLA BLA BLA BLA BLA BLA BLA BLA BLA BLA BLA BLA BLA BLA BLA 
BLA BLA BLA BLA BLA BLA BLA BLA BLA BLA BLA BLA BLA BLA BLA BLA BLA BLA BLA BLA 
BLA BLA BLA BLA BLA BLA BLA BLA BLA BLA BLA BLA BLA BLA BLA BLA BLA BLA BLA BLA 
BLA BLA BLA BLA BLA BLA BLA BLA BLA BLA BLA BLA BLA BLA BLA BLA BLA BLA BLA BLA 
BLA BLA BLA BLA BLA BLA BLA BLA BLA BLA BLA BLA BLA BLA BLA BLA BLA BLA BLA BLA 
BLA BLA BLA BLA BLA BLA BLA BLA BLA BLA BLA BLA BLA BLA BLA BLA BLA BLA BLA BLA 
BLA BLA BLA BLA BLA BLA BLA BLA BLA BLA BLA BLA BLA BLA BLA BLA BLA BLA BLA BLA 
BLA BLA BLA BLA BLA BLA BLA BLA BLA BLA BLA BLA BLA BLA BLA BLA BLA BLA BLA BLA 
BLA BLA BLA BLA BLA BLA BLA BLA BLA BLA BLA BLA BLA BLA BLA BLA BLA BLA BLA BLA 
BLA BLA BLA BLA BLA BLA BLA BLA BLA BLA BLA BLA BLA BLA BLA BLA BLA BLA BLA BLA 
BLA BLA BLA BLA BLA BLA BLA BLA BLA BLA BLA BLA BLA BLA BLA BLA BLA BLA BLA BLA 
BLA BLA BLA BLA BLA BLA BLA BLA BLA BLA BLA BLA BLA BLA BLA BLA BLA BLA BLA BLA 
BLA BLA BLA BLA BLA BLA BLA BLA BLA BLA BLA BLA BLA BLA BLA BLA BLA BLA BLA BLA 
BLA BLA BLA BLA BLA BLA BLA BLA BLA BLA BLA BLA BLA BLA BLA BLA BLA BLA BLA BLA 
BLA BLA BLA BLA BLA BLA BLA BLA BLA BLA BLA BLA BLA BLA BLA BLA BLA BLA BLA BLA 
BLA BLA BLA BLA BLA BLA BLA BLA BLA BLA BLA BLA BLA BLA BLA BLA BLA BLA BLA BLA 
BLA BLA BLA BLA BLA BLA BLA BLA BLA BLA BLA BLA BLA BLA BLA BLA BLA BLA BLA BLA 
BLA BLA BLA BLA BLA BLA BLA BLA BLA BLA BLA BLA BLA BLA BLA BLA BLA BLA BLA BLA 
BLA BLA BLA BLA BLA BLA BLA BLA BLA BLA BLA BLA BLA BLA BLA BLA BLA BLA BLA BLA 
BLA BLA BLA BLA BLA BLA BLA BLA BLA BLA BLA BLA BLA BLA BLA BLA BLA BLA BLA BLA 
BLA BLA BLA BLA BLA BLA BLA BLA BLA BLA BLA BLA BLA BLA BLA BLA BLA BLA BLA BLA 
BLA BLA BLA BLA BLA BLA BLA BLA BLA BLA BLA BLA BLA BLA BLA BLA BLA BLA BLA BLA 
BLA BLA BLA BLA BLA BLA BLA BLA BLA BLA BLA BLA BLA BLA BLA BLA BLA BLA BLA BLA 
BLA BLA BLA BLA BLA BLA BLA BLA BLA BLA BLA BLA BLA BLA BLA BLA BLA BLA BLA BLA 
BLA BLA BLA BLA BLA BLA BLA BLA BLA BLA BLA BLA BLA BLA BLA BLA BLA BLA BLA BLA 
BLA BLA BLA BLA BLA BLA BLA BLA BLA BLA BLA BLA BLA BLA BLA BLA BLA BLA BLA BLA 
BLA BLA BLA BLA BLA BLA BLA BLA BLA BLA BLA BLA BLA BLA BLA BLA BLA BLA BLA BLA 
BLA BLA BLA BLA BLA BLA BLA BLA BLA BLA BLA BLA BLA BLA BLA BLA BLA BLA BLA BLA 
BLA BLA BLA BLA BLA BLA BLA BLA BLA BLA BLA BLA BLA BLA BLA BLA BLA BLA BLA BLA 
BLA BLA BLA BLA BLA BLA BLA BLA BLA BLA BLA BLA BLA BLA BLA BLA BLA BLA BLA BLA 
BLA BLA BLA BLA BLA BLA BLA BLA BLA BLA BLA BLA BLA BLA BLA BLA BLA BLA BLA BLA 
BLA BLA BLA BLA BLA BLA BLA BLA BLA BLA BLA BLA BLA BLA BLA BLA BLA BLA BLA BLA 
BLA BLA BLA BLA BLA BLA BLA BLA BLA BLA BLA BLA BLA BLA BLA BLA BLA BLA BLA BLA 
BLA BLA BLA BLA BLA BLA BLA BLA BLA BLA BLA BLA BLA BLA BLA BLA BLA BLA BLA BLA 
BLA BLA BLA BLA BLA BLA BLA BLA BLA BLA BLA BLA BLA BLA BLA BLA BLA BLA BLA BLA 
BLA BLA BLA BLA BLA BLA BLA BLA BLA BLA BLA BLA BLA BLA BLA BLA BLA BLA BLA BLA 
BLA BLA BLA BLA BLA BLA BLA BLA BLA BLA BLA BLA BLA BLA BLA BLA BLA BLA BLA BLA 
BLA BLA BLA BLA BLA BLA BLA BLA BLA BLA BLA BLA BLA BLA BLA BLA BLA BLA BLA BLA 
BLA BLA BLA BLA BLA BLA BLA BLA BLA BLA BLA BLA BLA BLA BLA BLA BLA BLA BLA BLA 
BLA BLA BLA BLA BLA BLA BLA BLA BLA BLA BLA BLA BLA BLA BLA BLA BLA BLA BLA BLA 
BLA BLA BLA BLA BLA BLA BLA BLA BLA BLA BLA BLA BLA BLA BLA BLA BLA BLA BLA BLA 
BLA BLA BLA BLA BLA BLA BLA BLA BLA BLA BLA BLA BLA BLA BLA BLA BLA BLA BLA BLA 
BLA BLA BLA BLA BLA BLA BLA BLA BLA BLA BLA BLA BLA BLA BLA BLA BLA BLA BLA BLA 
BLA BLA BLA BLA BLA BLA BLA BLA BLA BLA BLA BLA BLA BLA BLA BLA BLA BLA BLA BLA 
BLA BLA BLA BLA BLA BLA BLA BLA BLA BLA BLA BLA BLA BLA BLA BLA BLA BLA BLA BLA 
BLA BLA BLA BLA BLA BLA BLA BLA BLA BLA BLA BLA BLA BLA BLA BLA BLA BLA BLA BLA 
BLA BLA BLA BLA BLA BLA BLA BLA BLA BLA BLA BLA BLA BLA BLA BLA BLA BLA BLA BLA 
BLA BLA BLA BLA BLA BLA BLA BLA BLA BLA BLA BLA BLA BLA BLA BLA BLA BLA BLA BLA 
BLA BLA BLA BLA BLA BLA BLA BLA BLA BLA BLA BLA BLA BLA BLA BLA BLA BLA BLA BLA 
BLA BLA BLA BLA BLA BLA BLA BLA BLA BLA BLA BLA BLA BLA BLA BLA BLA BLA BLA BLA 
BLA BLA BLA BLA BLA BLA BLA BLA BLA BLA BLA BLA BLA BLA BLA BLA BLA BLA BLA BLA 
BLA BLA BLA BLA BLA BLA BLA BLA BLA BLA BLA BLA BLA BLA BLA BLA BLA BLA BLA BLA 
BLA BLA BLA BLA BLA BLA BLA BLA BLA BLA BLA BLA BLA BLA BLA BLA BLA BLA BLA BLA 
BLA BLA BLA BLA BLA BLA BLA BLA BLA BLA BLA BLA BLA BLA BLA BLA BLA BLA BLA BLA 
BLA BLA BLA BLA BLA BLA BLA BLA BLA BLA BLA BLA BLA BLA BLA BLA BLA BLA BLA BLA 
BLA BLA BLA BLA BLA BLA BLA BLA BLA BLA BLA BLA BLA BLA BLA BLA BLA BLA BLA BLA 
BLA BLA BLA BLA BLA BLA BLA BLA BLA BLA BLA BLA BLA BLA BLA BLA BLA BLA BLA BLA 
BLA BLA BLA BLA BLA BLA BLA BLA BLA BLA BLA BLA BLA BLA BLA BLA BLA BLA BLA BLA 
BLA BLA BLA BLA BLA BLA BLA BLA BLA BLA BLA BLA BLA BLA BLA BLA BLA BLA BLA BLA 
BLA BLA BLA BLA BLA BLA BLA BLA BLA BLA BLA BLA BLA BLA BLA BLA BLA BLA BLA BLA 
BLA BLA BLA BLA BLA BLA BLA BLA BLA BLA BLA BLA BLA BLA BLA BLA BLA BLA BLA BLA 
BLA BLA BLA BLA BLA BLA BLA BLA BLA BLA BLA BLA BLA BLA BLA BLA BLA BLA BLA BLA 
BLA BLA BLA BLA BLA BLA BLA BLA BLA BLA BLA BLA BLA BLA BLA BLA BLA BLA BLA BLA 
BLA BLA BLA BLA BLA BLA BLA BLA BLA BLA BLA BLA BLA BLA BLA BLA BLA BLA BLA BLA 
BLA BLA BLA BLA BLA BLA BLA BLA BLA BLA BLA BLA BLA BLA BLA BLA BLA BLA BLA BLA 
BLA BLA BLA BLA BLA BLA BLA BLA BLA BLA BLA BLA BLA BLA BLA BLA BLA BLA BLA BLA 
BLA BLA BLA BLA BLA BLA BLA BLA BLA BLA BLA BLA BLA BLA BLA BLA BLA BLA BLA BLA 
BLA BLA BLA BLA BLA BLA BLA BLA BLA BLA BLA BLA BLA BLA BLA BLA BLA BLA BLA BLA 
BLA BLA BLA BLA BLA BLA BLA BLA BLA BLA BLA BLA BLA BLA BLA BLA BLA BLA BLA BLA 
BLA BLA BLA BLA BLA BLA BLA BLA BLA BLA BLA BLA BLA BLA BLA BLA BLA BLA BLA BLA 
BLA BLA BLA BLA BLA BLA BLA BLA BLA BLA BLA BLA BLA BLA BLA BLA BLA BLA BLA BLA 
BLA BLA BLA BLA BLA BLA BLA BLA BLA BLA BLA BLA BLA BLA BLA BLA BLA BLA BLA BLA 
BLA BLA BLA BLA BLA BLA BLA BLA BLA BLA BLA BLA BLA BLA BLA BLA BLA BLA BLA BLA 
BLA BLA BLA BLA BLA BLA BLA BLA BLA BLA BLA BLA BLA BLA BLA BLA BLA BLA BLA BLA 
BLA BLA BLA BLA BLA BLA BLA BLA BLA BLA BLA BLA BLA BLA BLA BLA BLA BLA BLA BLA 
BLA BLA BLA BLA BLA BLA BLA BLA BLA BLA BLA BLA BLA BLA BLA BLA BLA BLA BLA BLA 
BLA BLA BLA BLA BLA BLA BLA BLA BLA BLA BLA BLA BLA BLA BLA BLA BLA BLA BLA BLA 
BLA BLA BLA BLA BLA BLA BLA BLA BLA BLA BLA BLA BLA BLA BLA BLA BLA BLA BLA BLA 
BLA BLA BLA BLA BLA BLA BLA BLA BLA BLA BLA BLA BLA BLA BLA BLA BLA BLA BLA BLA 
BLA BLA BLA BLA BLA BLA BLA BLA BLA BLA BLA BLA BLA BLA BLA BLA BLA BLA BLA BLA 
BLA BLA BLA BLA BLA BLA BLA BLA BLA BLA BLA BLA BLA BLA BLA BLA BLA BLA BLA BLA 
BLA BLA BLA BLA BLA BLA BLA BLA BLA BLA BLA BLA BLA BLA BLA BLA BLA BLA BLA BLA 
BLA BLA BLA BLA BLA BLA BLA BLA BLA BLA BLA BLA BLA BLA BLA BLA BLA BLA BLA BLA 
BLA BLA BLA BLA BLA BLA BLA BLA BLA BLA BLA BLA BLA BLA BLA BLA BLA BLA BLA BLA 
BLA BLA BLA BLA BLA BLA BLA BLA BLA BLA BLA BLA BLA BLA BLA BLA BLA BLA BLA BLA 
BLA BLA BLA BLA BLA BLA BLA BLA BLA BLA BLA BLA BLA BLA BLA BLA BLA BLA BLA BLA 
BLA BLA BLA BLA BLA BLA BLA BLA BLA BLA BLA BLA BLA BLA BLA BLA BLA BLA BLA BLA 
BLA BLA BLA BLA BLA BLA BLA BLA BLA BLA BLA BLA BLA BLA BLA BLA BLA BLA BLA BLA 
BLA BLA BLA BLA BLA BLA BLA BLA BLA BLA BLA BLA BLA BLA BLA BLA BLA BLA BLA BLA 
BLA BLA BLA BLA BLA BLA BLA BLA BLA BLA BLA BLA BLA BLA BLA BLA BLA BLA BLA BLA 
BLA BLA BLA BLA BLA BLA BLA BLA BLA BLA BLA BLA BLA BLA BLA BLA BLA BLA BLA BLA 
BLA BLA BLA BLA BLA BLA BLA BLA BLA BLA BLA BLA BLA BLA BLA BLA BLA BLA BLA BLA 
BLA BLA BLA BLA BLA BLA BLA BLA BLA BLA BLA BLA BLA BLA BLA BLA BLA BLA BLA BLA 
BLA BLA BLA BLA BLA BLA BLA BLA BLA BLA BLA BLA BLA BLA BLA BLA BLA BLA BLA BLA 
BLA BLA BLA BLA BLA BLA BLA BLA BLA BLA BLA BLA BLA BLA BLA BLA BLA BLA BLA BLA 
BLA BLA BLA BLA BLA BLA BLA BLA BLA BLA BLA BLA BLA BLA BLA BLA BLA BLA BLA BLA 
BLA BLA BLA BLA BLA BLA BLA BLA BLA BLA BLA BLA BLA BLA BLA BLA BLA BLA BLA BLA 
BLA BLA BLA BLA BLA BLA BLA BLA BLA BLA BLA BLA BLA BLA BLA BLA BLA BLA BLA BLA 
BLA BLA BLA BLA BLA BLA BLA BLA BLA BLA BLA BLA BLA BLA BLA BLA BLA BLA BLA BLA 
BLA BLA BLA BLA BLA BLA BLA BLA BLA BLA BLA BLA BLA BLA BLA BLA BLA BLA BLA BLA 
BLA BLA BLA BLA BLA BLA BLA BLA BLA BLA BLA BLA BLA BLA BLA BLA BLA BLA BLA BLA 
BLA BLA BLA BLA BLA BLA BLA BLA BLA BLA BLA BLA BLA BLA BLA BLA BLA BLA BLA BLA 
BLA BLA BLA BLA BLA BLA BLA BLA BLA BLA BLA BLA BLA BLA BLA BLA BLA BLA BLA BLA 
BLA BLA BLA BLA BLA BLA BLA BLA BLA BLA BLA BLA BLA BLA BLA BLA BLA BLA BLA BLA 
BLA BLA BLA BLA BLA BLA BLA BLA BLA BLA BLA BLA BLA BLA BLA BLA BLA BLA BLA BLA 
BLA BLA BLA BLA BLA BLA BLA BLA BLA BLA BLA BLA BLA BLA BLA BLA BLA BLA BLA BLA 
BLA BLA BLA BLA BLA BLA BLA BLA BLA BLA BLA BLA BLA BLA BLA BLA BLA BLA BLA BLA 
BLA BLA BLA BLA BLA BLA BLA BLA BLA BLA BLA BLA BLA BLA BLA BLA BLA BLA BLA BLA 
BLA BLA BLA BLA BLA BLA BLA BLA BLA BLA BLA BLA BLA BLA BLA BLA BLA BLA BLA BLA 
BLA BLA BLA BLA BLA BLA BLA BLA BLA BLA BLA BLA BLA BLA BLA BLA BLA BLA BLA BLA 
BLA BLA BLA BLA BLA BLA BLA BLA BLA BLA BLA BLA BLA BLA BLA BLA BLA BLA BLA BLA 
BLA BLA BLA BLA BLA BLA BLA BLA BLA BLA BLA BLA BLA BLA BLA BLA BLA BLA BLA BLA 
BLA BLA BLA BLA BLA BLA BLA BLA BLA BLA BLA BLA BLA BLA BLA BLA BLA BLA BLA BLA 
BLA BLA BLA BLA BLA BLA BLA BLA BLA BLA BLA BLA BLA BLA BLA BLA BLA BLA BLA BLA 
BLA BLA BLA BLA BLA BLA BLA BLA BLA BLA BLA BLA BLA BLA BLA BLA BLA BLA BLA BLA 
BLA BLA BLA BLA BLA BLA BLA BLA BLA BLA BLA BLA BLA BLA BLA BLA BLA BLA BLA BLA 
BLA BLA BLA BLA BLA BLA BLA BLA BLA BLA BLA BLA BLA BLA BLA BLA BLA BLA BLA BLA 
BLA BLA BLA BLA BLA BLA BLA BLA BLA BLA BLA BLA BLA BLA BLA BLA BLA BLA BLA BLA 
BLA BLA BLA BLA BLA BLA BLA BLA BLA BLA BLA BLA BLA BLA BLA BLA BLA BLA BLA BLA 
BLA BLA BLA BLA BLA BLA BLA BLA BLA BLA BLA BLA BLA BLA BLA BLA BLA BLA BLA BLA 
BLA BLA BLA BLA BLA BLA BLA BLA BLA BLA BLA BLA BLA BLA BLA BLA BLA BLA BLA BLA 
BLA BLA BLA BLA BLA BLA BLA BLA BLA BLA BLA BLA BLA BLA BLA BLA BLA BLA BLA BLA 
BLA BLA BLA BLA BLA BLA BLA BLA BLA BLA BLA BLA BLA BLA BLA BLA BLA BLA BLA BLA 
BLA BLA BLA BLA BLA BLA BLA BLA BLA BLA BLA BLA BLA BLA BLA BLA BLA BLA BLA BLA 
BLA BLA BLA BLA BLA BLA BLA BLA BLA BLA BLA BLA BLA BLA BLA BLA BLA BLA BLA BLA 
BLA BLA BLA BLA BLA BLA BLA BLA BLA BLA BLA BLA BLA BLA BLA BLA BLA BLA BLA BLA 
BLA BLA BLA BLA BLA BLA BLA BLA BLA BLA BLA BLA BLA BLA BLA BLA BLA BLA BLA BLA 
BLA BLA BLA BLA BLA BLA BLA BLA BLA BLA BLA BLA BLA BLA BLA BLA BLA BLA BLA BLA 
BLA BLA BLA BLA BLA BLA BLA BLA BLA BLA BLA BLA BLA BLA BLA BLA BLA BLA BLA BLA 
BLA BLA BLA BLA BLA BLA BLA BLA BLA BLA BLA BLA BLA BLA BLA BLA BLA BLA BLA BLA 
BLA BLA BLA BLA BLA BLA BLA BLA BLA BLA BLA BLA BLA BLA BLA BLA BLA BLA BLA BLA 
BLA BLA BLA BLA BLA BLA BLA BLA BLA BLA BLA BLA BLA BLA BLA BLA BLA BLA BLA BLA 
BLA BLA BLA BLA BLA BLA BLA BLA BLA BLA BLA BLA BLA BLA BLA BLA BLA BLA BLA BLA 
BLA BLA BLA BLA BLA BLA BLA BLA BLA BLA BLA BLA BLA BLA BLA BLA BLA BLA BLA BLA 
BLA BLA BLA BLA BLA BLA BLA BLA BLA BLA BLA BLA BLA BLA BLA BLA BLA BLA BLA BLA 
BLA BLA BLA BLA BLA BLA BLA BLA BLA BLA BLA BLA BLA BLA BLA BLA BLA BLA BLA BLA 
BLA BLA BLA BLA BLA BLA BLA BLA BLA BLA BLA BLA BLA BLA BLA BLA BLA BLA BLA BLA 
BLA BLA BLA BLA BLA BLA BLA BLA BLA BLA BLA BLA BLA BLA BLA BLA BLA BLA BLA BLA 
BLA BLA BLA BLA BLA BLA BLA BLA BLA BLA BLA BLA BLA BLA BLA BLA BLA BLA BLA BLA 
BLA BLA BLA BLA BLA BLA BLA BLA BLA BLA BLA BLA BLA BLA BLA BLA BLA BLA BLA BLA 
BLA BLA BLA BLA BLA BLA BLA BLA BLA BLA BLA BLA BLA BLA BLA BLA BLA BLA BLA BLA 
BLA BLA BLA BLA BLA BLA BLA BLA BLA BLA BLA BLA BLA BLA BLA BLA BLA BLA BLA BLA 
BLA BLA BLA BLA BLA BLA BLA BLA BLA BLA BLA BLA BLA BLA BLA BLA BLA BLA BLA BLA 
BLA BLA BLA BLA BLA BLA BLA BLA BLA BLA BLA BLA BLA BLA BLA BLA BLA BLA BLA BLA 
BLA BLA BLA BLA BLA BLA BLA BLA BLA BLA BLA BLA BLA BLA BLA BLA BLA BLA BLA BLA 
BLA BLA BLA BLA BLA BLA BLA BLA BLA BLA BLA BLA BLA BLA BLA BLA BLA BLA BLA BLA 
BLA BLA BLA BLA BLA BLA BLA BLA BLA BLA BLA BLA BLA BLA BLA BLA BLA BLA BLA BLA 
BLA BLA BLA BLA BLA BLA BLA BLA BLA BLA BLA BLA BLA BLA BLA BLA BLA BLA BLA BLA 
BLA BLA BLA BLA BLA BLA BLA BLA BLA BLA BLA BLA BLA BLA BLA BLA BLA BLA BLA BLA 
BLA BLA BLA BLA BLA BLA BLA BLA BLA BLA BLA BLA BLA BLA BLA BLA BLA BLA BLA BLA 
BLA BLA BLA BLA BLA BLA BLA BLA BLA BLA BLA BLA BLA BLA BLA BLA BLA BLA BLA BLA 
BLA BLA BLA BLA BLA BLA BLA BLA BLA BLA BLA BLA BLA BLA BLA BLA BLA BLA BLA BLA 
BLA BLA BLA BLA BLA BLA BLA BLA BLA BLA BLA BLA BLA BLA BLA BLA BLA BLA BLA BLA 
BLA BLA BLA BLA BLA BLA BLA BLA BLA BLA BLA BLA BLA BLA BLA BLA BLA BLA BLA BLA 
BLA BLA BLA BLA BLA BLA BLA BLA BLA BLA BLA BLA BLA BLA BLA BLA BLA BLA BLA BLA 
BLA BLA BLA BLA BLA BLA BLA BLA BLA BLA BLA BLA BLA BLA BLA BLA BLA BLA BLA BLA 
BLA BLA BLA BLA BLA BLA BLA BLA BLA BLA BLA BLA BLA BLA BLA BLA BLA BLA BLA BLA 
BLA BLA BLA BLA BLA BLA BLA BLA BLA BLA BLA BLA BLA BLA BLA BLA BLA BLA BLA BLA 
BLA BLA BLA BLA BLA BLA BLA BLA BLA BLA BLA BLA BLA BLA BLA BLA BLA BLA BLA BLA 
BLA BLA BLA BLA BLA BLA BLA BLA BLA BLA BLA BLA BLA BLA BLA BLA BLA BLA BLA BLA 
BLA BLA BLA BLA BLA BLA BLA BLA BLA BLA BLA BLA BLA BLA BLA BLA BLA BLA BLA BLA 
BLA BLA BLA BLA BLA BLA BLA BLA BLA BLA BLA BLA BLA BLA BLA BLA BLA BLA BLA BLA 
BLA BLA BLA BLA BLA BLA BLA BLA BLA BLA BLA BLA BLA BLA BLA BLA BLA BLA BLA BLA 
BLA BLA BLA BLA BLA BLA BLA BLA BLA BLA BLA BLA BLA BLA BLA BLA BLA BLA BLA BLA 
BLA BLA BLA BLA BLA BLA BLA BLA BLA BLA BLA BLA BLA BLA BLA BLA BLA BLA BLA BLA 
BLA BLA BLA BLA BLA BLA BLA BLA BLA BLA BLA BLA BLA BLA BLA BLA BLA BLA BLA BLA 
BLA BLA BLA BLA BLA BLA BLA BLA BLA BLA BLA BLA BLA BLA BLA BLA BLA BLA BLA BLA 
BLA BLA BLA BLA BLA BLA BLA BLA BLA BLA BLA BLA BLA BLA BLA BLA BLA BLA BLA BLA 
BLA BLA BLA BLA BLA BLA BLA BLA BLA BLA BLA BLA BLA BLA BLA BLA BLA BLA BLA BLA 
BLA BLA BLA BLA BLA BLA BLA BLA BLA BLA BLA BLA BLA BLA BLA BLA BLA BLA BLA BLA 
BLA BLA BLA BLA BLA BLA BLA BLA BLA BLA BLA BLA BLA BLA BLA BLA BLA BLA BLA BLA 
BLA BLA BLA BLA BLA BLA BLA BLA BLA BLA BLA BLA BLA BLA BLA BLA BLA BLA BLA BLA 
BLA BLA BLA BLA BLA BLA BLA BLA BLA BLA BLA BLA BLA BLA BLA BLA BLA BLA BLA BLA 
BLA BLA BLA BLA BLA BLA BLA BLA BLA BLA BLA BLA BLA BLA BLA BLA BLA BLA BLA BLA 
BLA BLA BLA BLA BLA BLA BLA BLA BLA BLA BLA BLA BLA BLA BLA BLA BLA BLA BLA BLA 
BLA BLA BLA BLA BLA BLA BLA BLA BLA BLA BLA BLA BLA BLA BLA BLA BLA BLA BLA BLA 
BLA BLA BLA BLA BLA BLA BLA BLA BLA BLA BLA BLA BLA BLA BLA BLA BLA BLA BLA BLA 
BLA BLA BLA BLA BLA BLA BLA BLA BLA BLA BLA BLA BLA BLA BLA BLA BLA BLA BLA BLA 
BLA BLA BLA BLA BLA BLA BLA BLA BLA BLA BLA BLA BLA BLA BLA BLA BLA BLA BLA BLA 
BLA BLA BLA BLA BLA BLA BLA BLA BLA BLA BLA BLA BLA BLA BLA BLA BLA BLA BLA BLA 
BLA BLA BLA BLA BLA BLA BLA BLA BLA BLA BLA BLA BLA BLA BLA BLA BLA BLA BLA BLA 
BLA BLA BLA BLA BLA BLA BLA BLA BLA BLA BLA BLA BLA BLA BLA BLA BLA BLA BLA BLA 
BLA BLA BLA BLA BLA BLA BLA BLA BLA BLA BLA BLA BLA BLA BLA BLA BLA BLA BLA BLA 
BLA BLA BLA BLA BLA BLA BLA BLA BLA BLA BLA BLA BLA BLA BLA BLA BLA BLA BLA BLA 
BLA BLA BLA BLA BLA BLA BLA BLA BLA BLA BLA BLA BLA BLA BLA BLA BLA BLA BLA BLA 
BLA BLA BLA BLA BLA BLA BLA BLA BLA BLA BLA BLA BLA BLA BLA BLA BLA BLA BLA BLA 
BLA BLA BLA BLA BLA BLA BLA BLA BLA BLA BLA BLA BLA BLA BLA BLA BLA BLA BLA BLA 
BLA BLA BLA BLA BLA BLA BLA BLA BLA BLA BLA BLA BLA BLA BLA BLA BLA BLA BLA BLA 
BLA BLA BLA BLA BLA BLA BLA BLA BLA BLA BLA BLA BLA BLA BLA BLA BLA BLA BLA BLA 
BLA BLA BLA BLA BLA BLA BLA BLA BLA BLA BLA BLA BLA BLA BLA BLA BLA BLA BLA BLA 
BLA BLA BLA BLA BLA BLA BLA BLA BLA BLA BLA BLA BLA BLA BLA BLA BLA BLA BLA BLA 
BLA BLA BLA BLA BLA BLA BLA BLA BLA BLA BLA BLA BLA BLA BLA BLA BLA BLA BLA BLA 
BLA BLA BLA BLA BLA BLA BLA BLA BLA BLA BLA BLA BLA BLA BLA BLA BLA BLA BLA BLA 
BLA BLA BLA BLA BLA BLA BLA BLA BLA BLA BLA BLA BLA BLA BLA BLA BLA BLA BLA BLA 
BLA BLA BLA BLA BLA BLA BLA BLA BLA BLA BLA BLA BLA BLA BLA BLA BLA BLA BLA BLA 
BLA BLA BLA BLA BLA BLA BLA BLA BLA BLA BLA BLA BLA BLA BLA BLA BLA BLA BLA BLA 
BLA BLA BLA BLA BLA BLA BLA BLA BLA BLA BLA BLA BLA BLA BLA BLA BLA BLA BLA BLA 
BLA BLA BLA BLA BLA BLA BLA BLA BLA BLA BLA BLA BLA BLA BLA BLA BLA BLA BLA BLA 
BLA BLA BLA BLA BLA BLA BLA BLA BLA BLA BLA BLA BLA BLA BLA BLA BLA BLA BLA BLA 
BLA BLA BLA BLA BLA BLA BLA BLA BLA BLA BLA BLA BLA BLA BLA BLA BLA BLA BLA BLA 
BLA BLA BLA BLA BLA BLA BLA BLA BLA BLA BLA BLA BLA BLA BLA BLA BLA BLA BLA BLA 
BLA BLA BLA BLA BLA BLA BLA BLA BLA BLA BLA BLA BLA BLA BLA BLA BLA BLA BLA BLA 
BLA BLA BLA BLA BLA BLA BLA BLA BLA BLA BLA BLA BLA BLA BLA BLA BLA BLA BLA BLA 
BLA BLA BLA BLA BLA BLA BLA BLA BLA BLA BLA BLA BLA BLA BLA BLA BLA BLA BLA BLA 
BLA BLA BLA BLA BLA BLA BLA BLA BLA BLA BLA BLA BLA BLA BLA BLA BLA BLA BLA BLA 
BLA BLA BLA BLA BLA BLA BLA BLA BLA BLA BLA BLA BLA BLA BLA BLA BLA BLA BLA BLA 
BLA BLA BLA BLA BLA BLA BLA BLA BLA BLA BLA BLA BLA BLA BLA BLA BLA BLA BLA BLA 
BLA BLA BLA BLA BLA BLA BLA BLA BLA BLA BLA BLA BLA BLA BLA BLA BLA BLA BLA BLA 
BLA BLA BLA BLA BLA BLA BLA BLA BLA BLA BLA BLA BLA BLA BLA BLA BLA BLA BLA BLA 
BLA BLA BLA BLA BLA BLA BLA BLA BLA BLA BLA BLA BLA BLA BLA BLA BLA BLA BLA BLA 
BLA BLA BLA BLA BLA BLA BLA BLA BLA BLA BLA BLA BLA BLA BLA BLA BLA BLA BLA BLA 
BLA BLA BLA BLA BLA BLA BLA BLA BLA BLA BLA BLA BLA BLA BLA BLA BLA BLA BLA BLA 
BLA BLA BLA BLA BLA BLA BLA BLA BLA BLA BLA BLA BLA BLA BLA BLA BLA BLA BLA BLA 
BLA BLA BLA BLA BLA BLA BLA BLA BLA BLA BLA BLA BLA BLA BLA BLA BLA BLA BLA BLA 
BLA BLA BLA BLA BLA BLA BLA BLA BLA BLA BLA BLA BLA BLA BLA BLA BLA BLA BLA BLA 
BLA BLA BLA BLA BLA BLA BLA BLA BLA BLA BLA BLA BLA BLA BLA BLA BLA BLA BLA BLA 
BLA BLA BLA BLA BLA BLA BLA BLA BLA BLA BLA BLA BLA BLA BLA BLA BLA BLA BLA BLA 
BLA BLA BLA BLA BLA BLA BLA BLA BLA BLA BLA BLA BLA BLA BLA BLA BLA BLA BLA BLA 
BLA BLA BLA BLA BLA BLA BLA BLA BLA BLA BLA BLA BLA BLA BLA BLA BLA BLA BLA BLA 
BLA BLA BLA BLA BLA BLA BLA BLA BLA BLA BLA BLA BLA BLA BLA BLA BLA BLA BLA BLA 
BLA BLA BLA BLA BLA BLA BLA BLA BLA BLA BLA BLA BLA BLA BLA BLA BLA BLA BLA BLA 
BLA BLA BLA BLA BLA BLA BLA BLA BLA BLA BLA BLA BLA BLA BLA BLA BLA BLA BLA BLA 
BLA BLA BLA BLA BLA BLA BLA BLA BLA BLA BLA BLA BLA BLA BLA BLA BLA BLA BLA BLA 
BLA BLA BLA BLA BLA BLA BLA BLA BLA BLA BLA BLA BLA BLA BLA BLA BLA BLA BLA BLA 
BLA BLA BLA BLA BLA BLA BLA BLA BLA BLA BLA BLA BLA BLA BLA BLA BLA BLA BLA BLA 
BLA BLA BLA BLA BLA BLA BLA BLA BLA BLA BLA BLA BLA BLA BLA BLA BLA BLA BLA BLA 
BLA BLA BLA BLA BLA BLA BLA BLA BLA BLA BLA BLA BLA BLA BLA BLA BLA BLA BLA BLA 
BLA BLA BLA BLA BLA BLA BLA BLA BLA BLA BLA BLA BLA BLA BLA BLA BLA BLA BLA BLA 
BLA BLA BLA BLA BLA BLA BLA BLA BLA BLA BLA BLA BLA BLA BLA BLA BLA BLA BLA BLA 
BLA BLA BLA BLA BLA BLA BLA BLA BLA BLA BLA BLA BLA BLA BLA BLA BLA BLA BLA BLA 
BLA BLA BLA BLA BLA BLA BLA BLA BLA BLA BLA BLA BLA BLA BLA BLA BLA BLA BLA BLA 
BLA BLA BLA BLA BLA BLA BLA BLA BLA BLA BLA BLA BLA BLA BLA BLA BLA BLA BLA BLA 
BLA BLA BLA BLA BLA BLA BLA BLA BLA BLA BLA BLA BLA BLA BLA BLA BLA BLA BLA BLA 
BLA BLA BLA BLA BLA BLA BLA BLA BLA BLA BLA BLA BLA BLA BLA BLA BLA BLA BLA BLA 
BLA BLA BLA BLA BLA BLA BLA BLA BLA BLA BLA BLA BLA BLA BLA BLA BLA BLA BLA BLA 
BLA BLA BLA BLA BLA BLA BLA BLA BLA BLA BLA BLA BLA BLA BLA BLA BLA BLA BLA BLA 
BLA BLA BLA BLA BLA BLA BLA BLA BLA BLA BLA BLA BLA BLA BLA BLA BLA BLA BLA BLA 
BLA BLA BLA BLA BLA BLA BLA BLA BLA BLA BLA BLA BLA BLA BLA BLA BLA BLA BLA BLA 
BLA BLA BLA BLA BLA BLA BLA BLA BLA BLA BLA BLA BLA BLA BLA BLA BLA BLA BLA BLA 
BLA BLA BLA BLA BLA BLA BLA BLA BLA BLA BLA BLA BLA BLA BLA BLA BLA BLA BLA BLA 
BLA BLA BLA BLA BLA BLA BLA BLA BLA BLA BLA BLA BLA BLA BLA BLA BLA BLA BLA BLA 
BLA BLA BLA BLA BLA BLA BLA BLA BLA BLA BLA BLA BLA BLA BLA BLA BLA BLA BLA BLA 
BLA BLA BLA BLA BLA BLA BLA BLA BLA BLA BLA BLA BLA BLA BLA BLA BLA BLA BLA BLA 
BLA BLA BLA BLA BLA BLA BLA BLA BLA BLA BLA BLA BLA BLA BLA BLA BLA BLA BLA BLA 
BLA BLA BLA BLA BLA BLA BLA BLA BLA BLA BLA BLA BLA BLA BLA BLA BLA BLA BLA BLA 
BLA BLA BLA BLA BLA BLA BLA BLA BLA BLA BLA BLA BLA BLA BLA BLA BLA BLA BLA BLA 
BLA BLA BLA BLA BLA BLA BLA BLA BLA BLA BLA BLA BLA BLA BLA BLA BLA BLA BLA BLA 
BLA BLA BLA BLA BLA BLA BLA BLA BLA BLA BLA BLA BLA BLA BLA BLA BLA BLA BLA BLA 
BLA BLA BLA BLA BLA BLA BLA BLA BLA BLA BLA BLA BLA BLA BLA BLA BLA BLA BLA BLA 
BLA BLA BLA BLA BLA BLA BLA BLA BLA BLA BLA BLA BLA BLA BLA BLA BLA BLA BLA BLA 
BLA BLA BLA BLA BLA BLA BLA BLA BLA BLA BLA BLA BLA BLA BLA BLA BLA BLA BLA BLA 
BLA BLA BLA BLA BLA BLA BLA BLA BLA BLA BLA BLA BLA BLA BLA BLA BLA BLA BLA BLA 
BLA BLA BLA BLA BLA BLA BLA BLA BLA BLA BLA BLA BLA BLA BLA BLA BLA BLA BLA BLA 
BLA BLA BLA BLA BLA BLA BLA BLA BLA BLA BLA BLA BLA BLA BLA BLA BLA BLA BLA BLA 
BLA BLA BLA BLA BLA BLA BLA BLA BLA BLA BLA BLA BLA BLA BLA BLA BLA BLA BLA BLA 
BLA BLA BLA BLA BLA BLA BLA BLA BLA BLA BLA BLA BLA BLA BLA BLA BLA BLA BLA BLA 
BLA BLA BLA BLA BLA BLA BLA BLA BLA BLA BLA BLA BLA BLA BLA BLA BLA BLA BLA BLA 
BLA BLA BLA BLA BLA BLA BLA BLA BLA BLA BLA BLA BLA BLA BLA BLA BLA BLA BLA BLA 
BLA BLA BLA BLA BLA BLA BLA BLA BLA BLA BLA BLA BLA BLA BLA BLA BLA BLA BLA BLA 
BLA BLA BLA BLA BLA BLA BLA BLA BLA BLA BLA BLA BLA BLA BLA BLA BLA BLA BLA BLA 
BLA BLA BLA BLA BLA BLA BLA BLA BLA BLA BLA BLA BLA BLA BLA BLA BLA BLA BLA BLA 
BLA BLA BLA BLA BLA BLA BLA BLA BLA BLA BLA BLA BLA BLA BLA BLA BLA BLA BLA BLA 
BLA BLA BLA BLA BLA BLA BLA BLA BLA BLA BLA BLA BLA BLA BLA BLA BLA BLA BLA BLA 
BLA BLA BLA BLA BLA BLA BLA BLA BLA BLA BLA BLA BLA BLA BLA BLA BLA BLA BLA BLA 
BLA BLA BLA BLA BLA BLA BLA BLA BLA BLA BLA BLA BLA BLA BLA BLA BLA BLA BLA BLA 
BLA BLA BLA BLA BLA BLA BLA BLA BLA BLA BLA BLA BLA BLA BLA BLA BLA BLA BLA BLA 
BLA BLA BLA BLA BLA BLA BLA BLA BLA BLA BLA BLA BLA BLA BLA BLA BLA BLA BLA BLA 
BLA BLA BLA BLA BLA BLA BLA BLA BLA BLA BLA BLA BLA BLA BLA BLA BLA BLA BLA BLA 
BLA BLA BLA BLA BLA BLA BLA BLA BLA BLA BLA BLA BLA BLA BLA BLA BLA BLA BLA BLA 
BLA BLA BLA BLA BLA BLA BLA BLA BLA BLA BLA BLA BLA BLA BLA BLA BLA BLA BLA BLA 
BLA BLA BLA BLA BLA BLA BLA BLA BLA BLA BLA BLA BLA BLA BLA BLA BLA BLA BLA BLA 
BLA BLA BLA BLA BLA BLA BLA BLA BLA BLA BLA BLA BLA BLA BLA BLA BLA BLA BLA BLA 
BLA BLA BLA BLA BLA BLA BLA BLA BLA BLA BLA BLA BLA BLA BLA BLA BLA BLA BLA BLA 
BLA BLA BLA BLA BLA BLA BLA BLA BLA BLA BLA BLA BLA BLA BLA BLA BLA BLA BLA BLA 
BLA BLA BLA BLA BLA BLA BLA BLA BLA BLA BLA BLA BLA BLA BLA BLA BLA BLA BLA BLA 
BLA BLA BLA BLA BLA BLA BLA BLA BLA BLA BLA BLA BLA BLA BLA BLA BLA BLA BLA BLA 
BLA BLA BLA BLA BLA BLA BLA BLA BLA BLA BLA BLA BLA BLA BLA BLA BLA BLA BLA BLA 
BLA BLA BLA BLA BLA BLA BLA BLA BLA BLA BLA BLA BLA BLA BLA BLA BLA BLA BLA BLA 
BLA BLA BLA BLA BLA BLA BLA BLA BLA BLA BLA BLA BLA BLA BLA BLA BLA BLA BLA BLA 
BLA BLA BLA BLA BLA BLA BLA BLA BLA BLA BLA BLA BLA BLA BLA BLA BLA BLA BLA BLA 
BLA BLA BLA BLA BLA BLA BLA BLA BLA BLA BLA BLA BLA BLA BLA BLA BLA BLA BLA BLA 
BLA BLA BLA BLA BLA BLA BLA BLA BLA BLA BLA BLA BLA BLA BLA BLA BLA BLA BLA BLA 
BLA BLA BLA BLA BLA BLA BLA BLA BLA BLA BLA BLA BLA BLA BLA BLA BLA BLA BLA BLA 
BLA BLA BLA BLA BLA BLA BLA BLA BLA BLA BLA BLA BLA BLA BLA BLA BLA BLA BLA BLA 
BLA BLA BLA BLA BLA BLA BLA BLA BLA BLA BLA BLA BLA BLA BLA BLA BLA BLA BLA BLA 
BLA BLA BLA BLA BLA BLA BLA BLA BLA BLA BLA BLA BLA BLA BLA BLA BLA BLA BLA BLA 
BLA BLA BLA BLA BLA BLA BLA BLA BLA BLA BLA BLA BLA BLA BLA BLA BLA BLA BLA BLA 
BLA BLA BLA BLA BLA BLA BLA BLA BLA BLA BLA BLA BLA BLA BLA BLA BLA BLA BLA BLA 
BLA BLA BLA BLA BLA BLA BLA BLA BLA BLA BLA BLA BLA BLA BLA BLA BLA BLA BLA BLA 
BLA BLA BLA BLA BLA BLA BLA BLA BLA BLA BLA BLA BLA BLA BLA BLA BLA BLA BLA BLA 
BLA BLA BLA BLA BLA BLA BLA BLA BLA BLA BLA BLA BLA BLA BLA BLA BLA BLA BLA BLA 
BLA BLA BLA BLA BLA BLA BLA BLA BLA BLA BLA BLA BLA BLA BLA BLA BLA BLA BLA BLA 
BLA BLA BLA BLA BLA BLA BLA BLA BLA BLA BLA BLA BLA BLA BLA BLA BLA BLA BLA BLA 
BLA BLA BLA BLA BLA BLA BLA BLA BLA BLA BLA BLA BLA BLA BLA BLA BLA BLA BLA BLA 
BLA BLA BLA BLA BLA BLA BLA BLA BLA BLA BLA BLA BLA BLA BLA BLA BLA BLA BLA BLA 
BLA BLA BLA BLA BLA BLA BLA BLA BLA BLA BLA BLA BLA BLA BLA BLA BLA BLA BLA BLA 
BLA BLA BLA BLA BLA BLA BLA BLA BLA BLA BLA BLA BLA BLA BLA BLA BLA BLA BLA BLA 
BLA BLA BLA BLA BLA BLA BLA BLA BLA BLA BLA BLA BLA BLA BLA BLA BLA BLA BLA BLA 
BLA BLA BLA BLA BLA BLA BLA BLA BLA BLA BLA BLA BLA BLA BLA BLA BLA BLA BLA BLA 
BLA BLA BLA BLA BLA BLA BLA BLA BLA BLA BLA BLA BLA BLA BLA BLA BLA BLA BLA BLA 
BLA BLA BLA BLA BLA BLA BLA BLA BLA BLA BLA BLA BLA BLA BLA BLA BLA BLA BLA BLA 
BLA BLA BLA BLA BLA BLA BLA BLA BLA BLA BLA BLA BLA BLA BLA BLA BLA BLA BLA BLA 
BLA BLA BLA BLA BLA BLA BLA BLA BLA BLA BLA BLA BLA BLA BLA BLA BLA BLA BLA BLA 
BLA BLA BLA BLA BLA BLA BLA BLA BLA BLA BLA BLA BLA BLA BLA BLA BLA BLA BLA BLA 
BLA BLA BLA BLA BLA BLA BLA BLA BLA BLA 
%FLAG JOIN_ARRAY                                                                
%FORMAT(10I8)                                                                   
       0       0       0       0       0       0       0       0       0       0
       0       0       0       0       0       0       0       0       0       0
       0       0       0       0       0       0       0       0       0       0
       0       0       0       0       0       0       0       0       0       0
       0       0       0       0       0       0       0       0       0       0
       0       0       0       0       0       0       0       0       0       0
       0       0       0       0       0       0       0       0       0       0
       0       0       0       0       0       0       0       0       0       0
       0       0       0       0       0       0       0       0       0       0
       0       0       0       0       0       0       0       0       0       0
       0       0       0       0       0       0       0       0       0       0
       0       0       0       0       0       0       0       0       0       0
       0       0       0       0       0       0       0       0       0       0
       0       0       0       0       0       0       0       0       0       0
       0       0       0       0       0       0       0       0       0       0
       0       0       0       0       0       0       0       0       0       0
       0       0       0       0       0       0       0       0       0       0
       0       0       0       0       0       0       0       0       0       0
       0       0       0       0       0       0       0       0       0       0
       0       0       0       0       0       0       0       0       0       0
       0       0       0       0       0       0       0       0       0       0
       0       0       0       0       0       0       0       0       0       0
       0       0       0       0       0       0       0       0       0       0
       0       0       0       0       0       0       0       0       0       0
       0       0       0       0       0       0       0       0       0       0
       0       0       0       0       0       0       0       0       0       0
       0       0       0       0       0       0       0       0       0       0
       0       0       0       0       0       0       0       0       0       0
       0       0       0       0       0       0       0       0       0       0
       0       0       0       0       0       0       0       0       0       0
       0       0       0       0       0       0       0       0       0       0
       0       0       0       0       0       0       0       0       0       0
       0       0       0       0       0       0       0       0       0       0
       0       0       0       0       0       0       0       0       0       0
       0       0       0       0       0       0       0       0       0       0
       0       0       0       0       0       0       0       0       0       0
       0       0       0       0       0       0       0       0       0       0
       0       0       0       0       0       0       0       0       0       0
       0       0       0       0       0       0       0       0       0       0
       0       0       0       0       0       0       0       0       0       0
       0       0       0       0       0       0       0       0       0       0
       0       0       0       0       0       0       0       0       0       0
       0       0       0       0       0       0       0       0       0       0
       0       0       0       0       0       0       0       0       0       0
       0       0       0       0       0       0       0       0       0       0
       0       0       0       0       0       0       0       0       0       0
       0       0       0       0       0       0       0       0       0       0
       0       0       0       0       0       0       0       0       0       0
       0       0       0       0       0       0       0       0       0       0
       0       0       0       0       0       0       0       0       0       0
       0       0       0       0       0       0       0       0       0       0
       0       0       0       0       0       0       0       0       0       0
       0       0       0       0       0       0       0       0       0       0
       0       0       0       0       0       0       0       0       0       0
       0       0       0       0       0       0       0       0       0       0
       0       0       0       0       0       0       0       0       0       0
       0       0       0       0       0       0       0       0       0       0
       0       0       0       0       0       0       0       0       0       0
       0       0       0       0       0       0       0       0       0       0
       0       0       0       0       0       0       0       0       0       0
       0       0       0       0       0       0       0       0       0       0
       0       0       0       0       0       0       0       0       0       0
       0       0       0       0       0       0       0       0       0       0
       0       0       0       0       0       0       0       0       0       0
       0       0       0       0       0       0       0       0       0       0
       0       0       0       0       0       0       0       0       0       0
       0       0       0       0       0       0       0       0       0       0
       0       0       0       0       0       0       0       0       0       0
       0       0       0       0       0       0       0       0       0       0
       0       0       0       0       0       0       0       0       0       0
       0       0       0       0       0       0       0       0       0       0
       0       0       0       0       0       0       0       0       0       0
       0       0       0       0       0       0       0       0       0       0
       0       0       0       0       0       0       0       0       0       0
       0       0       0       0       0       0       0       0       0       0
       0       0       0       0       0       0       0       0       0       0
       0       0       0       0       0       0       0       0       0       0
       0       0       0       0       0       0       0       0       0       0
       0       0       0       0       0       0       0       0       0       0
       0       0       0       0       0       0       0       0       0       0
       0       0       0       0       0       0       0       0       0       0
       0       0       0       0       0       0       0       0       0       0
       0       0       0       0       0       0       0       0       0       0
       0       0       0       0       0       0       0       0       0       0
       0       0       0       0       0       0       0       0       0       0
       0       0       0       0       0       0       0       0       0       0
       0       0       0       0       0       0       0       0       0       0
       0       0       0       0       0       0       0       0       0       0
       0       0       0       0       0       0       0       0       0       0
       0       0       0       0       0       0       0       0       0       0
       0       0       0       0       0       0       0       0       0       0
       0       0       0       0       0       0       0       0       0       0
       0       0       0       0       0       0       0       0       0       0
       0       0       0       0       0       0       0       0       0       0
       0       0       0       0       0       0       0       0       0       0
       0       0       0       0       0       0       0       0       0       0
       0       0       0       0       0       0       0       0       0       0
       0       0       0       0       0       0       0       0       0       0
       0       0       0       0       0       0       0       0       0       0
       0       0       0       0       0       0       0       0       0       0
       0       0       0       0       0       0       0       0       0       0
       0       0       0       0       0       0       0       0       0       0
       0       0       0       0       0       0       0       0       0       0
       0       0       0       0       0       0       0       0       0       0
       0       0       0       0       0       0       0       0       0       0
       0       0       0       0       0       0       0       0       0       0
       0       0       0       0       0       0       0       0       0       0
       0       0       0       0       0       0       0       0       0       0
       0       0       0       0       0       0       0       0       0       0
       0       0       0       0       0       0       0       0       0       0
       0       0       0       0       0       0       0       0       0       0
       0       0       0       0       0       0       0       0       0       0
       0       0       0       0       0       0       0       0       0       0
       0       0       0       0       0       0       0       0       0       0
       0       0       0       0       0       0       0       0       0       0
       0       0       0       0       0       0       0       0       0       0
       0       0       0       0       0       0       0       0       0       0
       0       0       0       0       0       0       0       0       0       0
       0       0       0       0       0       0       0       0       0       0
       0       0       0       0       0       0       0       0       0       0
       0       0       0       0       0       0       0       0       0       0
       0       0       0       0       0       0       0       0       0       0
       0       0       0       0       0       0       0       0       0       0
       0       0       0       0       0       0       0       0       0       0
       0       0       0       0       0       0       0       0       0       0
       0       0       0       0       0       0       0       0       0       0
       0       0       0       0       0       0       0       0       0       0
       0       0       0       0       0       0       0       0       0       0
       0       0       0       0       0       0       0       0       0       0
       0       0       0       0       0       0       0       0       0       0
       0       0       0       0       0       0       0       0       0       0
       0       0       0       0       0       0       0       0       0       0
       0       0       0       0       0       0       0       0       0       0
       0       0       0       0       0       0       0       0       0       0
       0       0       0       0       0       0       0       0       0       0
       0       0       0       0       0       0       0       0       0       0
       0       0       0       0       0       0       0       0       0       0
       0       0       0       0       0       0       0       0       0       0
       0       0       0       0       0       0       0       0       0       0
       0       0       0       0       0       0       0       0       0       0
       0       0       0       0       0       0       0       0       0       0
       0       0       0       0       0       0       0       0       0       0
       0       0       0       0       0       0       0       0       0       0
       0       0       0       0       0       0       0       0       0       0
       0       0       0       0       0       0       0       0       0       0
       0       0       0       0       0       0       0       0       0       0
       0       0       0       0       0       0       0       0       0       0
       0       0       0       0       0       0       0       0       0       0
       0       0       0       0       0       0       0       0       0       0
       0       0       0       0       0       0       0       0       0       0
       0       0       0       0       0       0       0       0       0       0
       0       0       0       0       0       0       0       0       0       0
       0       0       0       0       0       0       0       0       0       0
       0       0       0       0       0       0       0       0       0       0
       0       0       0       0       0       0       0       0       0       0
       0       0       0       0       0       0       0       0       0       0
       0       0       0       0       0       0       0       0       0       0
       0       0       0       0       0       0       0       0       0       0
       0       0       0       0       0       0       0       0       0       0
       0       0       0       0       0       0       0       0       0       0
       0       0       0       0       0       0       0       0       0       0
       0       0       0       0       0       0       0       0       0       0
       0       0       0       0       0       0       0       0       0       0
       0       0       0       0       0       0       0       0       0       0
       0       0       0       0       0       0       0       0       0       0
       0       0       0       0       0       0       0       0       0       0
       0       0       0       0       0       0       0       0       0       0
       0       0       0       0       0       0       0       0       0       0
       0       0       0       0       0       0       0       0       0       0
       0       0       0       0       0       0       0       0       0       0
       0       0       0       0       0       0       0       0       0       0
       0       0       0       0       0       0       0       0       0       0
       0       0       0       0       0       0       0       0       0       0
       0       0       0       0       0       0       0       0       0       0
       0       0       0       0       0       0       0       0       0       0
       0       0       0       0       0       0       0       0       0       0
       0       0       0       0       0       0       0       0       0       0
       0       0       0       0       0       0       0       0       0       0
       0       0       0       0       0       0       0       0       0       0
       0       0       0       0       0       0       0       0       0       0
       0       0       0       0       0       0       0       0       0       0
       0       0       0       0       0       0       0       0       0       0
       0       0       0       0       0       0       0       0       0       0
       0       0       0       0       0       0       0       0       0       0
       0       0       0       0       0       0       0       0       0       0
       0       0       0       0       0       0       0       0       0       0
       0       0       0       0       0       0       0       0       0       0
       0       0       0       0       0       0       0       0       0       0
       0       0       0       0       0       0       0       0       0       0
       0       0       0       0       0       0       0       0       0       0
       0       0       0       0       0       0       0       0       0       0
       0       0       0       0       0       0       0       0       0       0
       0       0       0       0       0       0       0       0       0       0
       0       0       0       0       0       0       0       0       0       0
       0       0       0       0       0       0       0       0       0       0
       0       0       0       0       0       0       0       0       0       0
       0       0       0       0       0       0       0       0       0       0
       0       0       0       0       0       0       0       0       0       0
       0       0       0       0       0       0       0       0       0       0
       0       0       0       0       0       0       0       0       0       0
       0       0       0       0       0       0       0       0       0       0
       0       0       0       0       0       0       0       0       0       0
       0       0       0       0       0       0       0       0       0       0
       0       0       0       0       0       0       0       0       0       0
       0       0       0       0       0       0       0       0       0       0
       0       0       0       0       0       0       0       0       0       0
       0       0       0       0       0       0       0       0       0       0
       0       0       0       0       0       0       0       0       0       0
       0       0       0       0       0       0       0       0       0       0
       0       0       0       0       0       0       0       0       0       0
       0       0       0       0       0       0       0       0       0       0
       0       0       0       0       0       0       0       0       0       0
       0       0       0       0       0       0       0       0       0       0
       0       0       0       0       0       0       0       0       0       0
       0       0       0       0       0       0       0       0       0       0
       0       0       0       0       0       0       0       0       0       0
       0       0       0       0       0       0       0       0       0       0
       0       0       0       0       0       0       0       0       0       0
       0       0       0       0       0       0       0       0       0       0
       0       0       0       0       0       0       0       0       0       0
       0       0       0       0       0       0       0       0       0       0
       0       0       0       0       0       0       0       0       0       0
       0       0       0       0       0       0       0       0       0       0
       0       0       0       0       0       0       0       0       0       0
       0       0       0       0       0       0       0       0       0       0
       0       0       0       0       0       0       0       0       0       0
       0       0       0       0       0       0       0       0       0       0
       0       0       0       0       0       0       0       0       0       0
       0       0       0       0       0       0       0       0       0       0
       0       0       0       0       0       0       0       0       0       0
       0       0       0       0       0       0       0       0       0       0
       0       0       0       0       0       0       0       0       0       0
       0       0       0       0       0       0       0       0       0       0
       0       0       0       0       0       0       0       0       0       0
       0       0       0       0       0       0       0       0       0       0
       0       0       0       0       0       0       0       0       0       0
       0       0       0       0       0       0       0       0       0       0
       0       0       0       0       0       0       0       0       0       0
       0       0       0       0       0       0       0       0       0       0
       0       0       0       0       0       0       0       0       0       0
       0       0       0       0       0       0       0       0       0       0
       0       0       0       0       0       0       0       0       0       0
       0       0       0       0       0       0       0       0       0       0
       0       0       0       0       0       0       0       0       0       0
       0       0       0       0       0       0       0       0       0       0
       0       0       0       0       0       0       0       0       0       0
       0       0       0       0       0       0       0       0       0       0
       0       0       0       0       0       0       0       0       0       0
       0       0       0       0       0       0       0       0       0       0
       0       0       0       0       0       0       0       0       0       0
       0       0       0       0       0       0       0       0       0       0
       0       0       0       0       0       0       0       0       0       0
       0       0       0       0       0       0       0       0       0       0
       0       0       0       0       0       0       0       0       0       0
       0       0       0       0       0       0       0       0       0       0
       0       0       0       0       0       0       0       0       0       0
       0       0       0       0       0       0       0       0       0       0
       0       0       0       0       0       0       0       0       0       0
       0       0       0       0       0       0       0       0       0       0
       0       0       0       0       0       0       0       0       0       0
       0       0       0       0       0       0       0       0       0       0
       0       0       0       0       0       0       0       0       0       0
       0       0       0       0       0       0       0       0       0       0
       0       0       0       0       0       0       0       0       0       0
       0       0       0       0       0       0       0       0       0       0
       0       0       0       0       0       0       0       0       0       0
       0       0       0       0       0       0       0       0       0       0
       0       0       0       0       0       0       0       0       0       0
       0       0       0       0       0       0       0       0       0       0
       0       0       0       0       0       0       0       0       0       0
       0       0       0       0       0       0       0       0       0       0
       0       0       0       0       0       0       0       0       0       0
       0       0       0       0       0       0       0       0       0       0
       0       0       0       0       0       0       0       0       0       0
       0       0       0       0       0       0       0       0       0       0
       0       0       0       0       0       0       0       0       0       0
       0       0       0       0       0       0       0       0       0       0
       0       0       0       0       0       0       0       0       0       0
       0       0       0       0       0       0       0       0       0       0
       0       0       0       0       0       0       0       0       0       0
       0       0       0       0       0       0       0       0       0       0
       0       0       0       0       0       0       0       0       0       0
       0       0       0       0       0       0       0       0       0       0
       0       0       0       0       0       0       0       0       0       0
       0       0       0       0       0       0       0       0       0       0
       0       0       0       0       0       0       0       0       0       0
       0       0       0       0       0       0       0       0       0       0
       0       0       0       0       0       0       0       0       0       0
       0       0       0       0       0       0       0       0       0       0
       0       0       0       0       0       0       0       0       0       0
       0       0       0       0       0       0       0       0       0       0
       0       0       0       0       0       0       0       0       0       0
       0       0       0       0       0       0       0       0       0       0
       0       0       0       0       0       0       0       0       0       0
       0       0       0       0       0       0       0       0       0       0
       0       0       0       0       0       0       0       0       0       0
       0       0       0       0       0       0       0       0       0       0
       0       0       0       0       0       0       0       0       0       0
       0       0       0       0       0       0       0       0       0       0
       0       0       0       0       0       0       0       0       0       0
       0       0       0       0       0       0       0       0       0       0
       0       0       0       0       0       0       0       0       0       0
       0       0       0       0       0       0       0       0       0       0
       0       0       0       0       0       0       0       0       0       0
       0       0       0       0       0       0       0       0       0       0
       0       0       0       0       0       0       0       0       0       0
       0       0       0       0       0       0       0       0       0       0
       0       0       0       0       0       0       0       0       0       0
       0       0       0       0       0       0       0       0       0       0
       0       0       0       0       0       0       0       0       0       0
       0       0       0       0       0       0       0       0       0       0
       0       0       0       0       0       0       0       0       0       0
       0       0       0       0       0       0       0       0       0       0
       0       0       0       0       0       0       0       0       0       0
       0       0       0       0       0       0       0       0       0       0
       0       0       0       0       0       0       0       0       0       0
       0       0       0       0       0       0       0       0       0       0
       0       0       0       0       0       0       0       0       0       0
       0       0       0       0       0       0       0       0       0       0
       0       0       0       0       0       0       0       0       0       0
       0       0       0       0       0       0       0       0       0       0
       0       0       0       0       0       0       0       0       0       0
       0       0       0       0       0       0       0       0       0       0
       0       0       0       0       0       0       0       0       0       0
       0       0       0       0       0       0       0       0       0       0
       0       0       0       0       0       0       0       0       0       0
       0       0       0       0       0       0       0       0       0       0
       0       0       0       0       0       0       0       0       0       0
       0       0       0       0       0       0       0       0       0       0
       0       0       0       0       0       0       0       0       0       0
       0       0       0       0       0       0       0       0       0       0
       0       0       0       0       0       0       0       0       0       0
       0       0       0       0       0       0       0       0       0       0
       0       0       0       0       0       0       0       0       0       0
       0       0       0       0       0       0       0       0       0       0
       0       0       0       0       0       0       0       0       0       0
       0       0       0       0       0       0       0       0       0       0
       0       0       0       0       0       0       0       0       0       0
       0       0       0       0       0       0       0       0       0       0
       0       0       0       0       0       0       0       0       0       0
       0       0       0       0       0       0       0       0       0       0
       0       0       0       0       0       0       0       0       0       0
       0       0       0       0       0       0       0       0       0       0
       0       0       0       0       0       0       0       0       0       0
       0       0       0       0       0       0       0       0       0       0
       0       0       0       0       0       0       0       0       0       0
       0       0       0       0       0       0       0       0       0       0
       0       0       0       0       0       0       0       0       0       0
       0       0       0       0       0       0       0       0       0       0
       0       0       0       0       0       0       0       0       0       0
       0       0       0       0       0       0       0       0       0       0
       0       0       0       0       0       0       0       0       0       0
       0       0       0       0       0       0       0       0       0       0
       0       0       0       0       0       0       0       0       0       0
       0       0       0       0       0       0       0       0       0       0
       0       0       0       0       0       0       0       0       0       0
       0       0       0       0       0       0       0       0       0       0
       0       0       0       0       0       0       0       0       0       0
       0       0       0       0       0       0       0       0       0       0
       0       0       0       0       0       0       0       0       0       0
       0       0       0       0       0       0       0       0       0       0
       0       0       0       0       0       0       0       0       0       0
       0       0       0       0       0       0       0       0       0       0
       0       0       0       0       0       0       0       0       0       0
       0       0       0       0       0       0       0       0       0       0
       0       0       0       0       0       0       0       0       0       0
       0       0       0       0       0       0       0       0       0       0
       0       0       0       0       0       0       0       0       0       0
       0       0       0       0       0       0       0       0       0       0
       0       0       0       0       0       0       0       0       0       0
       0       0       0       0       0       0       0       0       0       0
       0       0       0       0       0       0       0       0       0       0
       0       0       0       0       0       0       0       0       0       0
       0       0       0       0       0       0       0       0       0       0
       0       0       0       0       0       0       0       0       0       0
       0       0       0       0       0       0       0       0       0       0
       0       0       0       0       0       0       0       0       0       0
       0       0       0       0       0       0       0       0       0       0
       0       0       0       0       0       0       0       0       0       0
       0       0       0       0       0       0       0       0       0       0
       0       0       0       0       0       0       0       0       0       0
       0       0       0       0       0       0       0       0       0       0
       0       0       0       0       0       0       0       0       0       0
       0       0       0       0       0       0       0       0       0       0
       0       0       0       0       0       0       0       0       0       0
       0       0       0       0       0       0       0       0       0       0
       0       0       0       0       0       0       0       0       0       0
       0       0       0       0       0       0       0       0       0       0
       0       0       0       0       0       0       0       0       0       0
       0       0       0       0       0       0       0       0       0       0
       0       0       0       0       0       0       0       0       0       0
       0       0       0       0       0       0       0       0       0       0
       0       0       0       0       0       0       0       0       0       0
       0       0       0       0       0       0       0       0       0       0
       0       0       0       0       0       0       0       0       0       0
       0       0       0       0       0       0       0       0       0       0
       0       0       0       0       0       0       0       0       0       0
       0       0       0       0       0       0       0       0       0       0
       0       0       0       0       0       0       0       0       0       0
       0       0       0       0       0       0       0       0       0       0
       0       0       0       0       0       0       0       0       0       0
       0       0       0       0       0       0       0       0       0       0
       0       0       0       0       0       0       0       0       0       0
       0       0       0       0       0       0       0       0       0       0
       0       0       0       0       0       0       0       0       0       0
       0       0       0       0       0       0       0       0       0       0
       0       0       0       0       0       0       0       0       0       0
       0       0       0       0       0       0       0       0       0       0
       0       0       0       0       0       0       0       0       0       0
       0       0       0       0       0       0       0       0       0       0
       0       0       0       0       0       0       0       0       0       0
       0       0       0       0       0       0       0       0       0       0
       0       0       0       0       0       0       0       0       0       0
       0       0       0       0       0       0       0       0       0       0
       0       0       0       0       0       0       0       0       0       0
       0       0       0       0       0       0       0       0       0       0
       0       0       0       0       0       0       0       0       0       0
       0       0       0       0       0       0       0       0       0       0
       0       0       0       0       0       0       0       0       0       0
       0       0       0       0       0       0       0       0       0       0
       0       0       0       0       0       0       0       0       0       0
       0       0       0       0       0       0       0       0       0       0
       0       0       0       0       0       0       0       0       0       0
       0       0       0       0       0       0       0       0       0       0
       0       0       0       0       0       0       0       0       0       0
       0       0       0       0       0       0       0       0       0       0
       0       0       0       0       0       0       0       0       0       0
       0       0       0       0       0       0       0       0       0       0
       0       0       0       0       0       0       0       0       0       0
       0       0       0       0       0       0       0       0       0       0
       0       0       0       0       0       0       0       0       0       0
       0       0       0       0       0       0       0       0       0       0
       0       0       0       0       0       0       0       0       0       0
       0       0       0       0       0       0       0       0       0       0
       0       0       0       0       0       0       0       0       0       0
       0       0       0       0       0       0       0       0       0       0
       0       0       0       0       0       0       0       0       0       0
       0       0       0       0       0       0       0       0       0       0
       0       0       0       0       0       0       0       0       0       0
       0       0       0       0       0       0       0       0       0       0
       0       0       0       0       0       0       0       0       0       0
       0       0       0       0       0       0       0       0       0       0
       0       0       0       0       0       0       0       0       0       0
       0       0       0       0       0       0       0       0       0       0
       0       0       0       0       0       0       0       0       0       0
       0       0       0       0       0       0       0       0       0       0
       0       0       0       0       0       0       0       0       0       0
       0       0       0       0       0       0       0       0       0       0
       0       0       0       0       0       0       0       0       0       0
       0       0       0       0       0       0       0       0       0       0
       0       0       0       0       0       0       0       0       0       0
       0       0       0       0       0       0       0       0       0       0
       0       0       0       0       0       0       0       0       0       0
       0       0       0       0       0       0       0       0       0       0
       0       0       0       0       0       0       0       0       0       0
       0       0       0       0       0       0       0       0       0       0
       0       0       0       0       0       0       0       0       0       0
       0       0       0       0       0       0       0       0       0       0
       0       0       0       0       0       0       0       0       0       0
       0       0       0       0       0       0       0       0       0       0
       0       0       0       0       0       0       0       0       0       0
       0       0       0       0       0       0       0       0       0       0
       0       0       0       0       0       0       0       0       0       0
       0       0       0       0       0       0       0       0       0       0
       0       0       0       0       0       0       0       0       0       0
       0       0       0       0       0       0       0       0       0       0
       0       0       0       0       0       0       0       0       0       0
       0       0       0       0       0       0       0       0       0       0
       0       0       0       0       0       0       0       0       0       0
       0       0       0       0       0       0       0       0       0       0
       0       0       0       0       0       0       0       0       0       0
       0       0       0       0       0       0       0       0       0       0
       0       0       0       0       0       0       0       0       0       0
       0       0       0       0       0       0       0       0       0       0
       0       0       0       0       0       0       0       0       0       0
       0       0       0       0       0       0       0       0       0       0
       0       0       0       0       0       0       0       0       0       0
       0       0       0       0       0       0       0       0       0       0
       0       0       0       0       0       0       0       0       0       0
       0       0       0       0       0       0       0       0       0       0
       0       0       0       0       0       0       0       0       0       0
       0       0       0       0       0       0       0       0       0       0
       0       0       0       0       0       0       0       0       0       0
       0       0       0       0       0       0       0       0       0       0
       0       0       0       0       0       0       0       0       0       0
       0       0       0       0       0       0       0       0       0       0
       0       0       0       0       0       0       0       0       0       0
       0       0       0       0       0       0       0       0       0       0
       0       0       0       0       0       0       0       0       0       0
       0       0       0       0       0       0       0       0       0       0
       0       0       0       0       0       0       0       0       0       0
       0       0       0       0       0       0       0       0       0       0
       0       0       0       0       0       0       0       0       0       0
       0       0       0       0       0       0       0       0       0       0
       0       0       0       0       0       0       0       0       0       0
       0       0       0       0       0       0       0       0       0       0
       0       0       0       0       0       0       0       0       0       0
       0       0       0       0       0       0       0       0       0       0
       0       0       0       0       0       0       0       0       0       0
       0       0       0       0       0       0       0       0       0       0
       0       0       0       0       0       0       0       0       0       0
       0       0       0       0       0       0       0       0       0       0
       0       0       0       0       0       0       0       0       0       0
       0       0       0       0       0       0       0       0       0       0
       0       0       0       0       0       0       0       0       0       0
       0       0       0       0       0       0       0       0       0       0
       0       0       0       0       0       0       0       0       0       0
       0       0       0       0       0       0       0       0       0       0
       0       0       0       0       0       0       0       0       0       0
       0       0       0       0       0       0       0       0       0       0
       0       0       0       0       0       0       0       0       0       0
       0       0       0       0       0       0       0       0       0       0
       0       0       0       0       0       0       0       0       0       0
       0       0       0       0       0       0       0       0       0       0
       0       0       0       0       0       0       0       0       0       0
       0       0       0       0       0       0       0       0       0       0
       0       0       0       0       0       0       0       0       0       0
       0       0       0       0       0       0       0       0       0       0
       0       0       0       0       0       0       0       0       0       0
       0       0       0       0       0       0       0       0       0       0
       0       0       0       0       0       0       0       0       0       0
       0       0       0       0       0       0       0       0       0       0
       0       0       0       0       0       0       0       0       0       0
       0       0       0       0       0       0       0       0       0       0
       0       0       0       0       0       0       0       0       0       0
       0       0       0       0       0       0       0       0       0       0
       0       0       0       0       0       0       0       0       0       0
       0       0       0       0       0       0       0       0       0       0
       0       0       0       0       0       0       0       0       0       0
       0       0       0       0       0       0       0       0       0       0
       0       0       0       0       0       0       0       0       0       0
       0       0       0       0       0       0       0       0       0       0
       0       0       0       0       0       0       0       0       0       0
       0       0       0       0       0       0       0       0       0       0
       0       0       0       0       0       0       0       0       0       0
       0       0       0       0       0       0       0       0       0       0
       0       0       0       0       0       0       0       0       0       0
       0       0       0       0       0       0       0       0       0       0
       0       0       0       0       0       0       0       0       0       0
       0       0       0       0       0       0       0       0       0       0
       0       0       0       0       0       0       0       0       0       0
       0       0       0       0       0       0       0       0       0       0
       0       0       0       0       0       0       0       0       0       0
       0       0       0       0       0       0       0       0       0       0
       0       0       0       0       0       0       0       0       0       0
       0       0       0       0       0       0       0       0       0       0
       0       0       0       0       0       0       0       0       0       0
       0       0       0       0       0       0       0       0       0       0
       0       0       0       0       0       0       0       0       0       0
       0       0       0       0       0       0       0       0       0       0
       0       0       0       0       0       0       0       0       0       0
       0       0       0       0       0       0       0       0       0       0
       0       0       0       0       0       0       0       0       0       0
       0       0       0       0       0       0       0       0       0       0
       0       0       0       0       0       0       0       0       0       0
       0       0       0       0       0       0       0       0       0       0
       0       0       0       0       0       0       0       0       0       0
       0       0       0       0       0       0       0       0       0       0
       0       0       0       0       0       0       0       0       0       0
       0       0       0       0       0       0       0       0       0       0
       0       0       0       0       0       0       0       0       0       0
       0       0       0       0       0       0       0       0       0       0
       0       0       0       0       0       0       0       0       0       0
       0       0       0       0       0       0       0       0       0       0
       0       0       0       0       0       0       0       0       0       0
       0       0       0       0       0       0       0       0       0       0
       0       0       0       0       0       0       0       0       0       0
       0       0       0       0       0       0       0       0       0       0
       0       0       0       0       0       0       0       0       0       0
       0       0       0       0       0       0       0       0       0       0
       0       0       0       0       0       0       0       0       0       0
       0       0       0       0       0       0       0       0       0       0
       0       0       0       0       0       0       0       0       0       0
       0       0       0       0       0       0       0       0       0       0
       0       0       0       0       0       0       0       0       0       0
       0       0       0       0       0       0       0       0       0       0
       0       0       0       0       0       0       0       0       0       0
       0       0       0       0       0       0       0       0       0       0
       0       0       0       0       0       0       0       0       0       0
       0       0       0       0       0       0       0       0       0       0
       0       0       0       0       0       0       0       0       0       0
       0       0       0       0       0       0       0       0       0       0
       0       0       0       0       0       0       0       0       0       0
       0       0       0       0       0       0       0       0       0       0
       0       0       0       0       0       0       0       0       0       0
       0       0       0       0       0       0       0       0       0       0
       0       0       0       0       0       0       0       0       0       0
       0       0       0       0       0       0       0       0       0       0
       0       0       0       0       0       0       0       0       0       0
       0       0       0       0       0       0       0       0       0       0
       0       0       0       0       0       0       0       0       0       0
       0       0       0       0       0       0       0       0       0       0
       0       0       0       0       0       0       0       0       0       0
       0       0       0       0       0       0       0       0       0       0
       0       0       0       0       0       0       0       0       0       0
       0       0       0       0       0       0       0       0       0       0
       0       0       0       0       0       0       0       0       0       0
       0       0       0       0       0       0       0       0       0       0
       0       0       0       0       0       0       0       0       0       0
       0       0       0       0       0       0       0       0       0       0
       0       0       0       0       0       0       0       0       0       0
       0       0       0       0       0       0       0       0       0       0
       0       0       0       0       0       0       0       0       0       0
       0       0       0       0       0       0       0       0       0       0
       0       0       0       0       0       0       0       0       0       0
       0       0       0       0       0       0       0       0       0       0
       0       0       0       0       0       0       0       0       0       0
       0       0       0       0       0       0       0       0       0       0
       0       0       0       0       0       0       0       0       0       0
       0       0       0       0       0       0       0       0       0       0
       0       0       0       0       0       0       0       0       0       0
       0       0       0       0       0       0       0       0       0       0
       0       0       0       0       0       0       0       0       0       0
       0       0       0       0       0       0       0       0       0       0
       0       0       0       0       0       0       0       0       0       0
       0       0       0       0       0       0       0       0       0       0
       0       0       0       0       0       0       0       0       0       0
       0       0       0       0       0       0       0       0       0       0
       0       0       0       0       0       0       0       0       0       0
       0       0       0       0       0       0       0       0       0       0
       0       0       0       0       0       0       0       0       0       0
       0       0       0       0       0       0       0       0       0       0
       0       0       0       0       0       0       0       0       0       0
       0       0       0       0       0       0       0       0       0       0
       0       0       0       0       0       0       0       0       0       0
       0       0       0       0       0       0       0       0       0       0
       0       0       0       0       0       0       0       0       0       0
       0       0       0       0       0       0       0       0       0       0
       0       0       0       0       0       0       0       0       0       0
       0       0       0       0       0       0       0       0       0       0
       0       0       0       0       0       0       0       0       0       0
       0       0       0       0       0       0       0       0       0       0
       0       0       0       0       0       0       0       0       0       0
       0       0       0       0       0       0       0       0       0       0
       0       0       0       0       0       0       0       0       0       0
       0       0       0       0       0       0       0       0       0       0
       0       0       0       0       0       0       0       0       0       0
       0       0       0       0       0       0       0       0       0       0
       0       0       0       0       0       0       0       0       0       0
       0       0       0       0       0       0       0       0       0       0
       0       0       0       0       0       0       0       0       0       0
       0       0       0       0       0       0       0       0       0       0
       0       0       0       0       0       0       0       0       0       0
       0       0       0       0       0       0       0       0       0       0
       0       0       0       0       0       0       0       0       0       0
       0       0       0       0       0       0       0       0       0       0
       0       0       0       0       0       0       0       0       0       0
       0       0       0       0       0       0       0       0       0       0
       0       0       0       0       0       0       0       0       0       0
       0       0       0       0       0       0       0       0       0       0
       0       0       0       0       0       0       0       0       0       0
       0       0       0       0       0       0       0       0       0       0
       0       0       0       0       0       0       0       0       0       0
       0       0       0       0       0       0       0       0       0       0
       0       0       0       0       0       0       0       0       0       0
       0       0       0       0       0       0       0       0       0       0
       0       0       0       0       0       0       0       0       0       0
       0       0       0       0       0       0       0       0       0       0
       0       0       0       0       0       0       0       0       0       0
       0       0       0       0       0       0       0       0       0       0
       0       0       0       0       0       0       0       0       0       0
       0       0       0       0       0       0       0       0       0       0
       0       0       0       0       0       0       0       0       0       0
       0       0       0       0       0       0       0       0       0       0
       0       0       0       0       0       0       0       0       0       0
       0       0       0       0       0       0       0       0       0       0
       0       0       0       0       0       0       0       0       0       0
       0       0       0       0       0       0       0       0       0       0
       0       0       0       0       0       0       0       0       0       0
       0       0       0       0       0       0       0       0       0       0
       0       0       0       0       0       0       0       0       0       0
       0       0       0       0       0       0       0       0       0       0
       0       0       0       0       0       0       0       0       0       0
       0       0       0       0       0       0       0       0       0       0
       0       0       0       0       0       0       0       0       0       0
       0       0       0       0       0       0       0       0       0       0
       0       0       0       0       0       0       0       0       0       0
       0       0       0       0       0       0       0       0       0       0
       0       0       0       0       0       0       0       0       0       0
       0       0       0       0       0       0       0       0       0       0
       0       0       0       0       0       0       0       0       0       0
       0       0       0       0       0       0       0       0       0       0
       0       0       0       0       0       0       0       0       0       0
       0       0       0       0       0       0       0       0       0       0
       0       0       0       0       0       0       0       0       0       0
       0       0       0       0       0       0       0       0       0       0
       0       0       0       0       0       0       0       0       0       0
       0       0       0       0       0       0       0       0       0       0
       0       0       0       0       0       0       0       0       0       0
       0       0       0       0       0       0       0       0       0       0
       0       0       0       0       0       0       0       0       0       0
       0       0       0       0       0       0       0       0       0       0
       0       0       0       0       0       0       0       0       0       0
       0       0       0       0       0       0       0       0       0       0
       0       0       0       0       0       0       0       0       0       0
       0       0       0       0       0       0       0       0       0       0
       0       0       0       0       0       0       0       0       0       0
       0       0       0       0       0       0       0       0       0       0
       0       0       0       0       0       0       0       0       0       0
       0       0       0       0       0       0       0       0       0       0
       0       0       0       0       0       0       0       0       0       0
       0       0       0       0       0       0       0       0       0       0
       0       0       0       0       0       0       0       0       0       0
       0       0       0       0       0       0       0       0       0       0
       0       0       0       0       0       0       0       0       0       0
       0       0       0       0       0       0       0       0       0       0
       0       0       0       0       0       0       0       0       0       0
       0       0       0       0       0       0       0       0       0       0
       0       0       0       0       0       0       0       0       0       0
       0       0       0       0       0       0       0       0       0       0
       0       0       0       0       0       0       0       0       0       0
       0       0       0       0       0       0       0       0       0       0
       0       0       0       0       0       0       0       0       0       0
       0       0       0       0       0       0       0       0       0       0
       0       0       0       0       0       0       0       0       0       0
       0       0       0       0       0       0       0       0       0       0
       0       0       0       0       0       0       0       0       0       0
       0       0       0       0       0       0       0       0       0       0
       0       0       0       0       0       0       0       0       0       0
       0       0       0       0       0       0       0       0       0       0
       0       0       0       0       0       0       0       0       0       0
       0       0       0       0       0       0       0       0       0       0
       0       0       0       0       0       0       0       0       0       0
       0       0       0       0       0       0       0       0       0       0
       0       0       0       0       0       0       0       0       0       0
       0       0       0       0       0       0       0       0       0       0
       0       0       0       0       0       0       0       0       0       0
       0       0       0       0       0       0       0       0       0       0
       0       0       0       0       0       0       0       0       0       0
       0       0       0       0       0       0       0       0       0       0
       0       0       0       0       0       0       0       0       0       0
       0       0       0       0       0       0       0       0       0       0
       0       0       0       0       0       0       0       0       0       0
       0       0       0       0       0       0       0       0       0       0
       0       0       0       0       0       0       0       0       0       0
       0       0       0       0       0       0       0       0       0       0
       0       0       0       0       0       0       0       0       0       0
       0       0       0       0       0       0       0       0       0       0
       0       0       0       0       0       0       0       0       0       0
       0       0       0       0       0       0       0       0       0       0
       0       0       0       0       0       0       0       0       0       0
       0       0       0       0       0       0       0       0       0       0
       0       0       0       0       0       0       0       0       0       0
       0       0       0       0       0       0       0       0       0       0
       0       0       0       0       0       0       0       0       0       0
       0       0       0       0       0       0       0       0       0       0
       0       0       0       0       0       0       0       0       0       0
       0       0       0       0       0       0       0       0       0       0
       0       0       0       0       0       0       0       0       0       0
       0       0       0       0       0       0       0       0       0       0
       0       0       0       0       0       0       0       0       0       0
       0       0       0       0       0       0       0       0       0       0
       0       0       0       0       0       0       0       0       0       0
       0       0       0       0       0       0       0       0       0       0
       0       0       0       0       0       0       0       0       0       0
       0       0       0       0       0       0       0       0       0       0
       0       0       0       0       0       0       0       0       0       0
       0       0       0       0       0       0       0       0       0       0
       0       0       0       0       0       0       0       0       0       0
       0       0       0       0       0       0       0       0       0       0
       0       0       0       0       0       0       0       0       0       0
       0       0       0       0       0       0       0       0       0       0
       0       0       0       0       0       0       0       0       0       0
       0       0       0       0       0       0       0       0       0       0
       0       0       0       0       0       0       0       0       0       0
       0       0       0       0       0       0       0       0       0       0
       0       0       0       0       0       0       0       0       0       0
       0       0       0       0       0       0       0       0       0       0
       0       0       0       0       0       0       0       0       0       0
       0       0       0       0       0       0       0       0       0       0
       0       0       0       0       0       0       0       0       0       0
       0       0       0       0       0       0       0       0       0       0
       0       0       0       0       0       0       0       0       0       0
       0       0       0       0       0       0       0       0       0       0
       0       0       0       0       0       0       0       0       0       0
       0       0       0       0       0       0       0       0       0       0
       0       0       0       0       0       0       0       0       0       0
       0       0       0       0       0       0       0       0       0       0
       0       0       0       0       0       0       0       0       0       0
       0       0       0       0       0       0       0       0       0       0
       0       0       0       0       0       0       0       0       0       0
       0       0       0       0       0       0       0       0       0       0
       0       0       0       0       0       0       0       0       0       0
       0       0       0       0       0       0       0       0       0       0
       0       0       0       0       0       0       0       0       0       0
       0       0       0       0       0       0       0       0       0       0
       0       0       0       0       0       0       0       0       0       0
       0       0       0       0       0       0       0       0       0       0
       0       0       0       0       0       0       0       0       0       0
       0       0       0       0       0       0       0       0       0       0
       0       0       0       0       0       0       0       0       0       0
       0       0       0       0       0       0       0       0       0       0
       0       0       0       0       0       0       0       0       0       0
       0       0       0       0       0       0       0       0       0       0
       0       0       0       0       0       0       0       0       0       0
       0       0       0       0       0       0       0       0       0       0
       0       0       0       0       0       0       0       0       0       0
       0       0       0       0       0       0       0       0       0       0
       0       0       0       0       0       0       0       0       0       0
       0       0       0       0       0       0       0       0       0       0
       0       0       0       0       0       0       0       0       0       0
       0       0       0       0       0       0       0       0       0       0
       0       0       0       0       0       0       0       0       0       0
       0       0       0       0       0       0       0       0       0       0
       0       0       0       0       0       0       0       0       0       0
       0       0       0       0       0       0       0       0       0       0
       0       0       0       0       0       0       0       0       0       0
       0       0       0       0       0       0       0       0       0       0
       0       0       0       0       0       0       0       0       0       0
       0       0       0       0       0       0       0       0       0       0
       0       0       0       0       0       0       0       0       0       0
       0       0       0       0       0       0       0       0       0       0
       0       0       0       0       0       0       0       0       0       0
       0       0       0       0       0       0       0       0       0       0
       0       0       0       0       0       0       0       0       0       0
       0       0       0       0       0       0       0       0       0       0
       0       0       0       0       0       0       0       0       0       0
       0       0       0       0       0       0       0       0       0       0
       0       0       0       0       0       0       0       0       0       0
       0       0       0       0       0       0       0       0       0       0
       0       0       0       0       0       0       0       0       0       0
       0       0       0       0       0       0       0       0       0       0
       0       0       0       0       0       0       0       0       0       0
       0       0       0       0       0       0       0       0       0       0
       0       0       0       0       0       0       0       0       0       0
       0       0       0       0       0       0       0       0       0       0
       0       0       0       0       0       0       0       0       0       0
       0       0       0       0       0       0       0       0       0       0
       0       0       0       0       0       0       0       0       0       0
       0       0       0       0       0       0       0       0       0       0
       0       0       0       0       0       0       0       0       0       0
       0       0       0       0       0       0       0       0       0       0
       0       0       0       0       0       0       0       0       0       0
       0       0       0       0       0       0       0       0       0       0
       0       0       0       0       0       0       0       0       0       0
       0       0       0       0       0       0       0       0       0       0
       0       0       0       0       0       0       0       0       0       0
       0       0       0       0       0       0       0       0       0       0
       0       0       0       0       0       0       0       0       0       0
       0       0       0       0       0       0       0       0       0       0
       0       0       0       0       0       0       0       0       0       0
       0       0       0       0       0       0       0       0       0       0
       0       0       0       0       0       0       0       0       0       0
       0       0       0       0       0       0       0       0       0       0
       0       0       0       0       0       0       0       0       0       0
       0       0       0       0       0       0       0       0       0       0
       0       0       0       0       0       0       0       0       0       0
       0       0       0       0       0       0       0       0       0       0
       0       0       0       0       0       0       0       0       0       0
       0       0       0       0       0       0       0       0       0       0
       0       0       0       0       0       0       0       0       0       0
       0       0       0       0       0       0       0       0       0       0
       0       0       0       0       0       0       0       0       0       0
       0       0       0       0       0       0       0       0       0       0
       0       0       0       0       0       0       0       0       0       0
       0       0       0       0       0       0       0       0       0       0
       0       0       0       0       0       0       0       0       0       0
       0       0       0       0       0       0       0       0       0       0
       0       0       0       0       0       0       0       0       0       0
       0       0       0       0       0       0       0       0       0       0
       0       0       0       0       0       0       0       0       0       0
       0       0       0       0       0       0       0       0       0       0
       0       0       0       0       0       0       0       0       0       0
       0       0       0       0       0       0       0       0       0       0
       0       0       0       0       0       0       0       0       0       0
       0       0       0       0       0       0       0       0       0       0
       0       0       0       0       0       0       0       0       0       0
       0       0       0       0       0       0       0       0       0       0
       0       0       0       0       0       0       0       0       0       0
       0       0       0       0       0       0       0       0       0       0
       0       0       0       0       0       0       0       0       0       0
       0       0       0       0       0       0       0       0       0       0
       0       0       0       0       0       0       0       0       0       0
       0       0       0       0       0       0       0       0       0       0
       0       0       0       0       0       0       0       0       0       0
       0       0       0       0       0       0       0       0       0       0
       0       0       0       0       0       0       0       0       0       0
       0       0       0       0       0       0       0       0       0       0
       0       0       0       0       0       0       0       0       0       0
       0       0       0       0       0       0       0       0       0       0
       0       0       0       0       0       0       0       0       0       0
       0       0       0       0       0       0       0       0       0       0
       0       0       0       0       0       0       0       0       0       0
       0       0       0       0       0       0       0       0       0       0
       0       0       0       0       0       0       0       0       0       0
       0       0       0       0       0       0       0       0       0       0
       0       0       0       0       0       0       0       0       0       0
       0       0       0       0       0       0       0       0       0       0
       0       0       0       0       0       0       0       0       0       0
       0       0       0       0       0       0       0       0       0       0
       0       0       0       0       0       0       0       0       0       0
       0       0       0       0       0       0       0       0       0       0
       0       0       0       0       0       0       0       0       0       0
       0       0       0       0       0       0       0       0       0       0
       0       0       0       0       0       0       0       0       0       0
       0       0       0       0       0       0       0       0       0       0
       0       0       0       0       0       0       0       0       0       0
       0       0       0       0       0       0       0       0       0       0
       0       0       0       0       0       0       0       0       0       0
       0       0       0       0       0       0       0       0       0       0
       0       0       0       0       0       0       0       0       0       0
       0       0       0       0       0       0       0       0       0       0
       0       0       0       0       0       0       0       0       0       0
       0       0       0       0       0       0       0       0       0       0
       0       0       0       0       0       0       0       0       0       0
       0       0       0       0       0       0       0       0       0       0
       0       0       0       0       0       0       0       0       0       0
       0       0       0       0       0       0       0       0       0       0
       0       0       0       0       0       0       0       0       0       0
       0       0       0       0       0       0       0       0       0       0
       0       0       0       0       0       0       0       0       0       0
       0       0       0       0       0       0       0       0       0       0
       0       0       0       0       0       0       0       0       0       0
       0       0       0       0       0       0       0       0       0       0
       0       0       0       0       0       0       0       0       0       0
       0       0       0       0       0       0       0       0       0       0
       0       0       0       0       0       0       0       0       0       0
       0       0       0       0       0       0       0       0       0       0
       0       0       0       0       0       0       0       0       0       0
       0       0       0       0       0       0       0       0       0       0
       0       0       0       0       0       0       0       0       0       0
       0       0       0       0       0       0       0       0       0       0
       0       0       0       0       0       0       0       0       0       0
       0       0       0       0       0       0       0       0       0       0
       0       0       0       0       0       0       0       0       0       0
       0       0       0       0       0       0       0       0       0       0
       0       0       0       0       0       0       0       0       0       0
       0       0       0       0       0       0       0       0       0       0
       0       0       0       0       0       0       0       0       0       0
       0       0       0       0       0       0       0       0       0       0
       0       0       0       0       0       0       0       0       0       0
       0       0       0       0       0       0       0       0       0       0
       0       0       0       0       0       0       0       0       0       0
       0       0       0       0       0       0       0       0       0       0
       0       0       0       0       0       0       0       0       0       0
       0       0       0       0       0       0       0       0       0       0
       0       0       0       0       0       0       0       0       0       0
       0       0       0       0       0       0       0       0       0       0
       0       0       0       0       0       0       0       0       0       0
       0       0       0       0       0       0       0       0       0       0
       0       0       0       0       0       0       0       0       0       0
       0       0       0       0       0       0       0       0       0       0
       0       0       0       0       0       0       0       0       0       0
       0       0       0       0       0       0       0       0       0       0
       0       0       0       0       0       0       0       0       0       0
       0       0       0       0       0       0       0       0       0       0
       0       0       0       0       0       0       0       0       0       0
       0       0       0       0       0       0       0       0       0       0
       0       0       0       0       0       0       0       0       0       0
       0       0       0       0       0       0       0       0       0       0
       0       0       0       0       0       0       0       0       0       0
       0       0       0       0       0       0       0       0       0       0
       0       0       0       0       0       0       0       0       0       0
       0       0       0       0       0       0       0       0       0       0
       0       0       0       0       0       0       0       0       0       0
       0       0       0       0       0       0       0       0       0       0
       0       0       0       0       0       0       0       0       0       0
       0       0       0       0       0       0       0       0       0       0
       0       0       0       0       0       0       0       0       0       0
       0       0       0       0       0       0       0       0       0       0
       0       0       0       0       0       0       0       0       0       0
       0       0       0       0       0       0       0       0       0       0
       0       0       0       0       0       0       0       0       0       0
       0       0       0       0       0       0       0       0       0       0
       0       0       0       0       0       0       0       0       0       0
       0       0       0       0       0       0       0       0       0       0
       0       0       0       0       0       0       0       0       0       0
       0       0       0       0       0       0       0       0       0       0
       0       0       0       0       0       0       0       0       0       0
       0       0       0       0       0       0       0       0       0       0
       0       0       0       0       0       0       0       0       0       0
       0       0       0       0       0       0       0       0       0       0
       0       0       0       0       0       0       0       0       0       0
       0       0       0       0       0       0       0       0       0       0
       0       0       0       0       0       0       0       0       0       0
       0       0       0       0       0       0       0       0       0       0
       0       0       0       0       0       0       0       0       0       0
       0       0       0       0       0       0       0       0       0       0
       0       0       0       0       0       0       0       0       0       0
       0       0       0       0       0       0       0       0       0       0
       0       0       0       0       0       0       0       0       0       0
       0       0       0       0       0       0       0       0       0       0
       0       0       0       0       0       0       0       0       0       0
       0       0       0       0       0       0       0       0       0       0
       0       0       0       0       0       0       0       0       0       0
       0       0       0       0       0       0       0       0       0       0
       0       0       0       0       0       0       0       0       0       0
       0       0       0       0       0       0       0       0       0       0
       0       0       0       0       0       0       0       0       0       0
       0       0       0       0       0       0       0       0       0       0
       0       0       0       0       0       0       0       0       0       0
       0       0       0       0       0       0       0       0       0       0
       0       0       0       0       0       0       0       0       0       0
       0       0       0       0       0       0       0       0       0       0
       0       0       0       0       0       0       0       0       0       0
       0       0       0       0       0       0       0       0       0       0
       0       0       0       0       0       0       0       0       0       0
       0       0       0       0       0       0       0       0       0       0
       0       0       0       0       0       0       0       0       0       0
       0       0       0       0       0       0       0       0       0       0
       0       0       0       0       0       0       0       0       0       0
       0       0       0       0       0       0       0       0       0       0
       0       0       0       0       0       0       0       0       0       0
       0       0       0       0       0       0       0       0       0       0
       0       0       0       0       0       0       0       0       0       0
       0       0       0       0       0       0       0       0       0       0
       0       0       0       0       0       0       0       0       0       0
       0       0       0       0       0       0       0       0       0       0
       0       0       0       0       0       0       0       0       0       0
       0       0       0       0       0       0       0       0       0       0
       0       0       0       0       0       0       0       0       0       0
       0       0       0       0       0       0       0       0       0       0
       0       0       0       0       0       0       0       0       0       0
       0       0       0       0       0       0       0       0       0       0
       0       0       0       0       0       0       0       0       0       0
       0       0       0       0       0       0       0       0       0       0
       0       0       0       0       0       0       0       0       0       0
       0       0       0       0       0       0       0       0       0       0
       0       0       0       0       0       0       0       0       0       0
       0       0       0       0       0       0       0       0       0       0
       0       0       0       0       0       0       0       0       0       0
       0       0       0       0       0       0       0       0       0       0
       0       0       0       0       0       0       0       0       0       0
       0       0       0       0       0       0       0       0       0       0
       0       0       0       0       0       0       0       0       0       0
       0       0       0       0       0       0       0       0       0       0
       0       0       0       0       0       0       0       0       0       0
       0       0       0       0       0       0       0       0       0       0
       0       0       0       0       0       0       0       0       0       0
       0       0       0       0       0       0       0       0       0       0
       0       0       0       0       0       0       0       0       0       0
       0       0       0       0       0       0       0       0       0       0
       0       0       0       0       0       0       0       0       0       0
       0       0       0       0       0       0       0       0       0       0
       0       0       0       0       0       0       0       0       0       0
       0       0       0       0       0       0       0       0       0       0
       0       0       0       0       0       0       0       0       0       0
       0       0       0       0       0       0       0       0       0       0
       0       0       0       0       0       0       0       0       0       0
       0       0       0       0       0       0       0       0       0       0
       0       0       0       0       0       0       0       0       0       0
       0       0       0       0       0       0       0       0       0       0
       0       0       0       0       0       0       0       0       0       0
       0       0       0       0       0       0       0       0       0       0
       0       0       0       0       0       0       0       0       0       0
       0       0       0       0       0       0       0       0       0       0
       0       0       0       0       0       0       0       0       0       0
       0       0       0       0       0       0       0       0       0       0
       0       0       0       0       0       0       0       0       0       0
       0       0       0       0       0       0       0       0       0       0
       0       0       0       0       0       0       0       0       0       0
       0       0       0       0       0       0       0       0       0       0
       0       0       0       0       0       0       0       0       0       0
       0       0       0       0       0       0       0       0       0       0
       0       0       0       0       0       0       0       0       0       0
       0       0       0       0       0       0       0       0       0       0
       0       0       0       0       0       0       0       0       0       0
       0       0       0       0       0       0       0       0       0       0
       0       0       0       0       0       0       0       0       0       0
       0       0       0       0       0       0       0       0       0       0
       0       0       0       0       0       0       0       0       0       0
       0       0       0       0       0       0       0       0       0       0
       0       0       0       0       0       0       0       0       0       0
       0       0       0       0       0       0       0       0       0       0
       0       0       0       0       0       0       0       0       0       0
       0       0       0       0       0       0       0       0       0       0
       0       0       0       0       0       0       0       0       0       0
       0       0       0       0       0       0       0       0       0       0
       0       0       0       0       0       0       0       0       0       0
       0       0       0       0       0       0       0       0       0       0
       0       0       0       0       0       0       0       0       0       0
       0       0       0       0       0       0       0       0       0       0
       0       0       0       0       0       0       0       0       0       0
       0       0       0       0       0       0       0       0       0       0
       0       0       0       0       0       0       0       0       0       0
       0       0       0       0       0       0       0       0       0       0
       0       0       0       0       0       0       0       0       0       0
       0       0       0       0       0       0       0       0       0       0
       0       0       0       0       0       0       0       0       0       0
       0       0       0       0       0       0       0       0       0       0
       0       0       0       0       0       0       0       0       0       0
       0       0       0       0       0       0       0       0       0       0
       0       0       0       0       0       0       0       0       0       0
       0       0       0       0       0       0       0       0       0       0
       0       0       0       0       0       0       0       0       0       0
       0       0       0       0       0       0       0       0       0       0
       0       0       0       0       0       0       0       0       0       0
       0       0       0       0       0       0       0       0       0       0
       0       0       0       0       0       0       0       0       0       0
       0       0       0       0       0       0       0       0       0       0
       0       0       0       0       0       0       0       0       0       0
       0       0       0       0       0       0       0       0       0       0
       0       0       0       0       0       0       0       0       0       0
       0       0       0       0       0       0       0       0       0       0
       0       0       0       0       0       0       0       0       0       0
       0       0       0       0       0       0       0       0       0       0
       0       0       0       0       0       0       0       0       0       0
       0       0       0       0       0       0       0       0       0       0
       0       0       0       0       0       0       0       0       0       0
       0       0       0       0       0       0       0       0       0       0
       0       0       0       0       0       0       0       0       0       0
       0       0       0       0       0       0       0       0       0       0
       0       0       0       0       0       0       0       0       0       0
       0       0       0       0       0       0       0       0       0       0
       0       0       0       0       0       0       0       0       0       0
       0       0       0       0       0       0       0       0       0       0
       0       0       0       0       0       0       0       0       0       0
       0       0       0       0       0       0       0       0       0       0
       0       0       0       0       0       0       0       0       0       0
       0       0       0       0       0       0       0       0       0       0
       0       0       0       0       0       0       0       0       0       0
       0       0       0       0       0       0       0       0       0       0
       0       0       0       0       0       0       0       0       0       0
       0       0       0       0       0       0       0       0       0       0
       0       0       0       0       0       0       0       0       0       0
       0       0       0       0       0       0       0       0       0       0
       0       0       0       0       0       0       0       0       0       0
       0       0       0       0       0       0       0       0       0       0
       0       0       0       0       0       0       0       0       0       0
       0       0       0       0       0       0       0       0       0       0
       0       0       0       0       0       0       0       0       0       0
       0       0       0       0       0       0       0       0       0       0
       0       0       0       0       0       0       0       0       0       0
       0       0       0       0       0       0       0       0       0       0
       0       0       0       0       0       0       0       0       0       0
       0       0       0       0       0       0       0       0       0       0
       0       0       0       0       0       0       0       0       0       0
       0       0       0       0       0       0       0       0       0       0
       0       0       0       0       0       0       0       0       0       0
       0       0       0       0       0       0       0       0       0       0
       0       0       0       0       0       0       0       0       0       0
       0       0       0       0       0       0       0       0       0       0
       0       0       0       0       0       0       0       0       0       0
       0       0       0       0       0       0       0       0       0       0
       0       0       0       0       0       0       0       0       0       0
       0       0       0       0       0       0       0       0       0       0
       0       0       0       0       0       0       0       0       0       0
       0       0       0       0       0       0       0       0       0       0
       0       0       0       0       0       0       0       0       0       0
       0       0       0       0       0       0       0       0       0       0
       0       0       0       0       0       0       0       0       0       0
       0       0       0       0       0       0       0       0       0       0
       0       0       0       0       0       0       0       0       0       0
       0       0       0       0       0       0       0       0       0       0
       0       0       0       0       0       0       0       0       0       0
       0       0       0       0       0       0       0       0       0       0
       0       0       0       0       0       0       0       0       0       0
       0       0       0       0       0       0       0       0       0       0
       0       0       0       0       0       0       0       0       0       0
       0       0       0       0       0       0       0       0       0       0
       0       0       0       0       0       0       0       0       0       0
       0       0       0       0       0       0       0       0       0       0
       0       0       0       0       0       0       0       0       0       0
       0       0       0       0       0       0       0       0       0       0
       0       0       0       0       0       0       0       0       0       0
       0       0       0       0       0       0       0       0       0       0
       0       0       0       0       0       0       0       0       0       0
       0       0       0       0       0       0       0       0       0       0
       0       0       0       0       0       0       0       0       0       0
       0       0       0       0       0       0       0       0       0       0
       0       0       0       0       0       0       0       0       0       0
       0       0       0       0       0       0       0       0       0       0
       0       0       0       0       0       0       0       0       0       0
       0       0       0       0       0       0       0       0       0       0
       0       0       0       0       0       0       0       0       0       0
       0       0       0       0       0       0       0       0       0       0
       0       0       0       0       0       0       0       0       0       0
       0       0       0       0       0       0       0       0       0       0
       0       0       0       0       0       0       0       0       0       0
       0       0       0       0       0       0       0       0       0       0
       0       0       0       0       0       0       0       0       0       0
       0       0       0       0       0       0       0       0       0       0
       0       0       0       0       0       0       0       0       0       0
       0       0       0       0       0       0       0       0       0       0
       0       0       0       0       0       0       0       0       0       0
       0       0       0       0       0       0       0       0       0       0
       0       0       0       0       0       0       0       0       0       0
       0       0       0       0       0       0       0       0       0       0
       0       0       0       0       0       0       0       0       0       0
       0       0       0       0       0       0       0       0       0       0
       0       0       0       0       0       0       0       0       0       0
       0       0       0       0       0       0       0       0       0       0
       0       0       0       0       0       0       0       0       0       0
       0       0       0       0       0       0       0       0       0       0
       0       0       0       0       0       0       0       0       0       0
       0       0       0       0       0       0       0       0       0       0
       0       0       0       0       0       0       0       0       0       0
       0       0       0       0       0       0       0       0       0       0
       0       0       0       0       0       0       0       0       0       0
       0       0       0       0       0       0       0       0       0       0
       0       0       0       0       0       0       0       0       0       0
       0       0       0       0       0       0       0       0       0       0
       0       0       0       0       0       0       0       0       0       0
       0       0       0       0       0       0       0       0       0       0
       0       0       0       0       0       0       0       0       0       0
       0       0       0       0       0       0       0       0       0       0
       0       0       0       0       0       0       0       0       0       0
       0       0       0       0       0       0       0       0       0       0
       0       0       0       0       0       0       0       0       0       0
       0       0       0       0       0       0       0       0       0       0
       0       0       0       0       0       0       0       0       0       0
       0       0       0       0       0       0       0       0       0       0
       0       0       0       0       0       0       0       0       0       0
       0       0       0       0       0       0       0       0       0       0
       0       0       0       0       0       0       0       0       0       0
       0       0       0       0       0       0       0       0       0       0
       0       0       0       0       0       0       0       0       0       0
       0       0       0       0       0       0       0       0       0       0
       0       0       0       0       0       0       0       0       0       0
       0       0       0       0       0       0       0       0       0       0
       0       0       0       0       0       0       0       0       0       0
       0       0       0       0       0       0       0       0       0       0
       0       0       0       0       0       0       0       0       0       0
       0       0       0       0       0       0       0       0       0       0
       0       0       0       0       0       0       0       0       0       0
       0       0       0       0       0       0       0       0       0       0
       0       0       0       0       0       0       0       0       0       0
       0       0       0       0       0       0       0       0       0       0
       0       0       0       0       0       0       0       0       0       0
       0       0       0       0       0       0       0       0       0       0
       0       0       0       0       0       0       0       0       0       0
       0       0       0       0       0       0       0       0       0       0
       0       0       0       0       0       0       0       0       0       0
       0       0       0       0       0       0       0       0       0       0
       0       0       0       0       0       0       0       0       0       0
       0       0       0       0       0       0       0       0       0       0
       0       0       0       0       0       0       0       0       0       0
       0       0       0       0       0       0       0       0       0       0
       0       0       0       0       0       0       0       0       0       0
       0       0       0       0       0       0       0       0       0       0
       0       0       0       0       0       0       0       0       0       0
       0       0       0       0       0       0       0       0       0       0
       0       0       0       0       0       0       0       0       0       0
       0       0       0       0       0       0       0       0       0       0
       0       0       0       0       0       0       0       0       0       0
       0       0       0       0       0       0       0       0       0       0
       0       0       0       0       0       0       0       0       0       0
       0       0       0       0       0       0       0       0       0       0
       0       0       0       0       0       0       0       0       0       0
       0       0       0       0       0       0       0       0       0       0
       0       0       0       0       0       0       0       0       0       0
       0       0       0       0       0       0       0       0       0       0
       0       0       0       0       0       0       0       0       0       0
       0       0       0       0       0       0       0       0       0       0
       0       0       0       0       0       0       0       0       0       0
       0       0       0       0       0       0       0       0       0       0
       0       0       0       0       0       0       0       0       0       0
       0       0       0       0       0       0       0       0       0       0
       0       0       0       0       0       0       0       0       0       0
       0       0       0       0       0       0       0       0       0       0
       0       0       0       0       0       0       0       0       0       0
       0       0       0       0       0       0       0       0       0       0
       0       0       0       0       0       0       0       0       0       0
       0       0       0       0       0       0       0       0       0       0
       0       0       0       0       0       0       0       0       0       0
       0       0       0       0       0       0       0       0       0       0
       0       0       0       0       0       0       0       0       0       0
       0       0       0       0       0       0       0       0       0       0
       0       0       0       0       0       0       0       0       0       0
       0       0       0       0       0       0       0       0       0       0
       0       0       0       0       0       0       0       0       0       0
       0       0       0       0       0       0       0       0       0       0
       0       0       0       0       0       0       0       0       0       0
       0       0       0       0       0       0       0       0       0       0
       0       0       0       0       0       0       0       0       0       0
       0       0       0       0       0       0       0       0       0       0
       0       0       0       0       0       0       0       0       0       0
       0       0       0       0       0       0       0       0       0       0
       0       0       0       0       0       0       0       0       0       0
       0       0       0       0       0       0       0       0       0       0
       0       0       0       0       0       0       0       0       0       0
       0       0       0       0       0       0       0       0       0       0
       0       0       0       0       0       0       0       0       0       0
       0       0       0       0       0       0       0       0       0       0
       0       0       0       0       0       0       0       0       0       0
       0       0       0       0       0       0       0       0       0       0
       0       0       0       0       0       0       0       0       0       0
       0       0       0       0       0       0       0       0       0       0
       0       0       0       0       0       0       0       0       0       0
       0       0       0       0       0       0       0       0       0       0
       0       0       0       0       0       0       0       0       0       0
       0       0       0       0       0       0       0       0       0       0
       0       0       0       0       0       0       0       0       0       0
       0       0       0       0       0       0       0       0       0       0
       0       0       0       0       0       0       0       0       0       0
       0       0       0       0       0       0       0       0       0       0
       0       0       0       0       0       0       0       0       0       0
       0       0       0       0       0       0       0       0       0       0
       0       0       0       0       0       0       0       0       0       0
       0       0       0       0       0       0       0       0       0       0
       0       0       0       0       0       0       0       0       0       0
       0       0       0       0       0       0       0       0       0       0
       0       0       0       0       0       0       0       0       0       0
       0       0       0       0       0       0       0       0       0       0
       0       0       0       0       0       0       0       0       0       0
       0       0       0       0       0       0       0       0       0       0
       0       0       0       0       0       0       0       0       0       0
       0       0       0       0       0       0       0       0       0       0
       0       0       0       0       0       0       0       0       0       0
       0       0       0       0       0       0       0       0       0       0
       0       0       0       0       0       0       0       0       0       0
       0       0       0       0       0       0       0       0       0       0
       0       0       0       0       0       0       0       0       0       0
       0       0       0       0       0       0       0       0       0       0
       0       0       0       0       0       0       0       0       0       0
       0       0       0       0       0       0       0       0       0       0
       0       0       0       0       0       0       0       0       0       0
       0       0       0       0       0       0       0       0       0       0
       0       0       0       0       0       0       0       0       0       0
       0       0       0       0       0       0       0       0       0       0
       0       0       0       0       0       0       0       0       0       0
       0       0       0       0       0       0       0       0       0       0
       0       0       0       0       0       0       0       0       0       0
       0       0       0       0       0       0       0       0       0       0
       0       0       0       0       0       0       0       0       0       0
       0       0       0       0       0       0       0       0       0       0
       0       0       0       0       0       0       0       0       0       0
       0       0       0       0       0       0       0       0       0       0
       0       0       0       0       0       0       0       0       0       0
       0       0       0       0       0       0       0       0       0       0
       0       0       0       0       0       0       0       0       0       0
       0       0       0       0       0       0       0       0       0       0
       0       0       0       0       0       0       0       0       0       0
       0       0       0       0       0       0       0       0       0       0
       0       0       0       0       0       0       0       0       0       0
       0       0       0       0       0       0       0       0       0       0
       0       0       0       0       0       0       0       0       0       0
       0       0       0       0       0       0       0       0       0       0
       0       0       0       0       0       0       0       0       0       0
       0       0       0       0       0       0       0       0       0       0
       0       0       0       0       0       0       0       0       0       0
       0       0       0       0       0       0       0       0       0       0
       0       0       0       0       0       0       0       0       0       0
       0       0       0       0       0       0       0       0       0       0
       0       0       0       0       0       0       0       0       0       0
       0       0       0       0       0       0       0       0       0       0
       0       0       0       0       0       0       0       0       0       0
       0       0       0       0       0       0       0       0       0       0
       0       0       0       0       0       0       0       0       0       0
       0       0       0       0       0       0       0       0       0       0
       0       0       0       0       0       0       0       0       0       0
       0       0       0       0       0       0       0       0       0       0
       0       0       0       0       0       0       0       0       0       0
       0       0       0       0       0       0       0       0       0       0
       0       0       0       0       0       0       0       0       0       0
       0       0       0       0       0       0       0       0       0       0
       0       0       0       0       0       0       0       0       0       0
       0       0       0       0       0       0       0       0       0       0
       0       0       0       0       0       0       0       0       0       0
       0       0       0       0       0       0       0       0       0       0
       0       0       0       0       0       0       0       0       0       0
       0       0       0       0       0       0       0       0       0       0
       0       0       0       0       0       0       0       0       0       0
       0       0       0       0       0       0       0       0       0       0
       0       0       0       0       0       0       0       0       0       0
       0       0       0       0       0       0       0       0       0       0
       0       0       0       0       0       0       0       0       0       0
       0       0       0       0       0       0       0       0       0       0
       0       0       0       0       0       0       0       0       0       0
       0       0       0       0       0       0       0       0       0       0
       0       0       0       0       0       0       0       0       0       0
       0       0       0       0       0       0       0       0       0       0
       0       0       0       0       0       0       0       0       0       0
       0       0       0       0       0       0       0       0       0       0
       0       0       0       0       0       0       0       0       0       0
       0       0       0       0       0       0       0       0       0       0
       0       0       0       0       0       0       0       0       0       0
       0       0       0       0       0       0       0       0       0       0
       0       0       0       0       0       0       0       0       0       0
       0       0       0       0       0       0       0       0       0       0
       0       0       0       0       0       0       0       0       0       0
       0       0       0       0       0       0       0       0       0       0
       0       0       0       0       0       0       0       0       0       0
       0       0       0       0       0       0       0       0       0       0
       0       0       0       0       0       0       0       0       0       0
       0       0       0       0       0       0       0       0       0       0
       0       0       0       0       0       0       0       0       0       0
       0       0       0       0       0       0       0       0       0       0
       0       0       0       0       0       0       0       0       0       0
       0       0       0       0       0       0       0       0       0       0
       0       0       0       0       0       0       0       0       0       0
       0       0       0       0       0       0       0       0       0       0
       0       0       0       0       0       0       0       0       0       0
       0       0       0       0       0       0       0       0       0       0
       0       0       0       0       0       0       0       0       0       0
       0       0       0       0       0       0       0       0       0       0
       0       0       0       0       0       0       0       0       0       0
       0       0       0       0       0       0       0       0       0       0
       0       0       0       0       0       0       0       0       0       0
       0       0       0       0       0       0       0       0       0       0
       0       0       0       0       0       0       0       0       0       0
       0       0       0       0       0       0       0       0       0       0
       0       0       0       0       0       0       0       0       0       0
       0       0       0       0       0       0       0       0       0       0
       0       0       0       0       0       0       0       0       0       0
       0       0       0       0       0       0       0       0       0       0
       0       0       0       0       0       0       0       0       0       0
       0       0       0       0       0       0       0       0       0       0
       0       0       0       0       0       0       0       0       0       0
       0       0       0       0       0       0       0       0       0       0
       0       0       0       0       0       0       0       0       0       0
       0       0       0       0       0       0       0       0       0       0
       0       0       0       0       0       0       0       0       0       0
       0       0       0       0       0       0       0       0       0       0
       0       0       0       0       0       0       0       0       0       0
       0       0       0       0       0       0       0       0       0       0
       0       0       0       0       0       0       0       0       0       0
       0       0       0       0       0       0       0       0       0       0
       0       0       0       0       0       0       0       0       0       0
       0       0       0       0       0       0       0       0       0       0
       0       0       0       0       0       0       0       0       0       0
       0       0       0       0       0       0       0       0       0       0
       0       0       0       0       0       0       0       0       0       0
       0       0       0       0       0       0       0       0       0       0
       0       0       0       0       0       0       0       0       0       0
       0       0       0       0       0       0       0       0       0       0
       0       0       0       0       0       0       0       0       0       0
       0       0       0       0       0       0       0       0       0       0
       0       0       0       0       0       0       0       0       0       0
       0       0       0       0       0       0       0       0       0       0
       0       0       0       0       0       0       0       0       0       0
       0       0       0       0       0       0       0       0       0       0
       0       0       0       0       0       0       0       0       0       0
       0       0       0       0       0       0       0       0       0       0
       0       0       0       0       0       0       0       0       0       0
       0       0       0       0       0       0       0       0       0       0
       0       0       0       0       0       0       0       0       0       0
       0       0       0       0       0       0       0       0       0       0
       0       0       0       0       0       0       0       0       0       0
       0       0       0       0       0       0       0       0       0       0
       0       0       0       0       0       0       0       0       0       0
       0       0       0       0       0       0       0       0       0       0
       0       0       0       0       0       0       0       0       0       0
       0       0       0       0       0       0       0       0       0       0
       0       0       0       0       0       0       0       0       0       0
       0       0       0       0       0       0       0       0       0       0
       0       0       0       0       0       0       0       0       0       0
       0       0       0       0       0       0       0       0       0       0
       0       0       0       0       0       0       0       0       0       0
       0       0       0       0       0       0       0       0       0       0
       0       0       0       0       0       0       0       0       0       0
       0       0       0       0       0       0       0       0       0       0
       0       0       0       0       0       0       0       0       0       0
       0       0       0       0       0       0       0       0       0       0
       0       0       0       0       0       0       0       0       0       0
       0       0       0       0       0       0       0       0       0       0
       0       0       0       0       0       0       0       0       0       0
       0       0       0       0       0       0       0       0       0       0
       0       0       0       0       0       0       0       0       0       0
       0       0       0       0       0       0       0       0       0       0
       0       0       0       0       0       0       0       0       0       0
       0       0       0       0       0       0       0       0       0       0
       0       0       0       0       0       0       0       0       0       0
       0       0       0       0       0       0       0       0       0       0
       0       0       0       0       0       0       0       0       0       0
       0       0       0       0       0       0       0       0       0       0
       0       0       0       0       0       0       0       0       0       0
       0       0       0       0       0       0       0       0       0       0
       0       0       0       0       0       0       0       0       0       0
       0       0       0       0       0       0       0       0       0       0
       0       0       0       0       0       0       0       0       0       0
       0       0       0       0       0       0       0       0       0       0
       0       0       0       0       0       0       0       0       0       0
       0       0       0       0       0       0       0       0       0       0
       0       0       0       0       0       0       0       0       0       0
       0       0       0       0       0       0       0       0       0       0
       0       0       0       0       0       0       0       0       0       0
       0       0       0       0       0       0       0       0       0       0
       0       0       0       0       0       0       0       0       0       0
       0       0       0       0       0       0       0       0       0       0
       0       0       0       0       0       0       0       0       0       0
       0       0       0       0       0       0       0       0       0       0
       0       0       0       0       0       0       0       0       0       0
       0       0       0       0       0       0       0       0       0       0
       0       0       0       0       0       0       0       0       0       0
       0       0       0       0       0       0       0       0       0       0
       0       0       0       0       0       0       0       0       0       0
       0       0       0       0       0       0       0       0       0       0
       0       0       0       0       0       0       0       0       0       0
       0       0       0       0       0       0       0       0       0       0
       0       0       0       0       0       0       0       0       0       0
       0       0       0       0       0       0       0       0       0       0
       0       0       0       0       0       0       0       0       0       0
       0       0       0       0       0       0       0       0       0       0
       0       0       0       0       0       0       0       0       0       0
       0       0       0       0       0       0       0       0       0       0
       0       0       0       0       0       0       0       0       0       0
       0       0       0       0       0       0       0       0       0       0
       0       0       0       0       0       0       0       0       0       0
       0       0       0       0       0       0       0       0       0       0
       0       0       0       0       0       0       0       0       0       0
       0       0       0       0       0       0       0       0       0       0
       0       0       0       0       0       0       0       0       0       0
       0       0       0       0       0       0       0       0       0       0
       0       0       0       0       0       0       0       0       0       0
       0       0       0       0       0       0       0       0       0       0
       0       0       0       0       0       0       0       0       0       0
       0       0       0       0       0       0       0       0       0       0
       0       0       0       0       0       0       0       0       0       0
       0       0       0       0       0       0       0       0       0       0
       0       0       0       0       0       0       0       0       0       0
       0       0       0       0       0       0       0       0       0       0
       0       0       0       0       0       0       0       0       0       0
       0       0       0       0       0       0       0       0       0       0
       0       0       0       0       0       0       0       0       0       0
       0       0       0       0       0       0       0       0       0       0
       0       0       0       0       0       0       0       0       0       0
       0       0       0       0       0       0       0       0       0       0
       0       0       0       0       0       0       0       0       0       0
       0       0       0       0       0       0       0       0       0       0
       0       0       0       0       0       0       0       0       0       0
       0       0       0       0       0       0       0       0       0       0
       0       0       0       0       0       0       0       0       0       0
       0       0       0       0       0       0       0       0       0       0
       0       0       0       0       0       0       0       0       0       0
       0       0       0       0       0       0       0       0       0       0
       0       0       0       0       0       0       0       0       0       0
       0       0       0       0       0       0       0       0       0       0
       0       0       0       0       0       0       0       0       0       0
       0       0       0       0       0       0       0       0       0       0
       0       0       0       0       0       0       0       0       0       0
       0       0       0       0       0       0       0       0       0       0
       0       0       0       0       0       0       0       0       0       0
       0       0       0       0       0       0       0       0       0       0
       0       0       0       0       0       0       0       0       0       0
       0       0       0       0       0       0       0       0       0       0
       0       0       0       0       0       0       0       0       0       0
       0       0       0       0       0       0       0       0       0       0
       0       0       0       0       0       0       0       0       0       0
       0       0       0       0       0       0       0       0       0       0
       0       0       0       0       0       0       0       0       0       0
       0       0       0       0       0       0       0       0       0       0
       0       0       0       0       0       0       0       0       0       0
       0       0       0       0       0       0       0       0       0       0
       0       0       0       0       0       0       0       0       0       0
       0       0       0       0       0       0       0       0       0       0
       0       0       0       0       0       0       0       0       0       0
       0       0       0       0       0       0       0       0       0       0
       0       0       0       0       0       0       0       0       0       0
       0       0       0       0       0       0       0       0       0       0
       0       0       0       0       0       0       0       0       0       0
       0       0       0       0       0       0       0       0       0       0
       0       0       0       0       0       0       0       0       0       0
       0       0       0       0       0       0       0       0       0       0
       0       0       0       0       0       0       0       0       0       0
       0       0       0       0       0       0       0       0       0       0
       0       0       0       0       0       0       0       0       0       0
       0       0       0       0       0       0       0       0       0       0
       0       0       0       0       0       0       0       0       0       0
       0       0       0       0       0       0       0       0       0       0
       0       0       0       0       0       0       0       0       0       0
       0       0       0       0       0       0       0       0       0       0
       0       0       0       0       0       0       0       0       0       0
       0       0       0       0       0       0       0       0       0       0
       0       0       0       0       0       0       0       0       0       0
       0       0       0       0       0       0       0       0       0       0
       0       0       0       0       0       0       0       0       0       0
       0       0       0       0       0       0       0       0       0       0
       0       0       0       0       0       0       0       0       0       0
       0       0       0       0       0       0       0       0       0       0
       0       0       0       0       0       0       0       0       0       0
       0       0       0       0       0       0       0       0       0       0
       0       0       0       0       0       0       0       0       0       0
       0       0       0       0       0       0       0       0       0       0
       0       0       0       0       0       0       0       0       0       0
       0       0       0       0       0       0       0       0       0       0
       0       0       0       0       0       0       0       0       0       0
       0       0       0       0       0       0       0       0       0       0
       0       0       0       0       0       0       0       0       0       0
       0       0       0       0       0       0       0       0       0       0
       0       0       0       0       0       0       0       0       0       0
       0       0       0       0       0       0       0       0       0       0
       0       0       0       0       0       0       0       0       0       0
       0       0       0       0       0       0       0       0       0       0
       0       0       0       0       0       0       0       0       0       0
       0       0       0       0       0       0       0       0       0       0
       0       0       0       0       0       0       0       0       0       0
       0       0       0       0       0       0       0       0       0       0
       0       0       0       0       0       0       0       0       0       0
       0       0       0       0       0       0       0       0       0       0
       0       0       0       0       0       0       0       0       0       0
       0       0       0       0       0       0       0       0       0       0
       0       0       0       0       0       0       0       0       0       0
       0       0       0       0       0       0       0       0       0       0
       0       0       0       0       0       0       0       0       0       0
       0       0       0       0       0       0       0       0       0       0
       0       0       0       0       0       0       0       0       0       0
       0       0       0       0       0       0       0       0       0       0
       0       0       0       0       0       0       0       0       0       0
       0       0       0       0       0       0       0       0       0       0
       0       0       0       0       0       0       0       0       0       0
       0       0       0       0       0       0       0       0       0       0
       0       0       0       0       0       0       0       0       0       0
       0       0       0       0       0       0       0       0       0       0
       0       0       0       0       0       0       0       0       0       0
       0       0       0       0       0       0       0       0       0       0
       0       0       0       0       0       0       0       0       0       0
       0       0       0       0       0       0       0       0       0       0
       0       0       0       0       0       0       0       0       0       0
       0       0       0       0       0       0       0       0       0       0
       0       0       0       0       0       0       0       0       0       0
       0       0       0       0       0       0       0       0       0       0
       0       0       0       0       0       0       0       0       0       0
       0       0       0       0       0       0       0       0       0       0
       0       0       0       0       0       0       0       0       0       0
       0       0       0       0       0       0       0       0       0       0
       0       0       0       0       0       0       0       0       0       0
       0       0       0       0       0       0       0       0       0       0
       0       0       0       0       0       0       0       0       0       0
       0       0       0       0       0       0       0       0       0       0
       0       0       0       0       0       0       0       0       0       0
       0       0       0       0       0       0       0       0       0       0
       0       0       0       0       0       0       0       0       0       0
       0       0       0       0       0       0       0       0       0       0
       0       0       0       0       0       0       0       0       0       0
       0       0       0       0       0       0       0       0       0       0
       0       0       0       0       0       0       0       0       0       0
       0       0       0       0       0       0       0       0       0       0
       0       0       0       0       0       0       0       0       0       0
       0       0       0       0       0       0       0       0       0       0
       0       0       0       0       0       0       0       0       0       0
       0       0       0       0       0       0       0       0       0       0
       0       0       0       0       0       0       0       0       0       0
       0       0       0       0       0       0       0       0       0       0
       0       0       0       0       0       0       0       0       0       0
       0       0       0       0       0       0       0       0       0       0
       0       0       0       0       0       0       0       0       0       0
       0       0       0       0       0       0       0       0       0       0
       0       0       0       0       0       0       0       0       0       0
       0       0       0       0       0       0       0       0       0       0
       0       0       0       0       0       0       0       0       0       0
       0       0       0       0       0       0       0       0       0       0
       0       0       0       0       0       0       0       0       0       0
       0       0       0       0       0       0       0       0       0       0
       0       0       0       0       0       0       0       0       0       0
       0       0       0       0       0       0       0       0       0       0
       0       0       0       0       0       0       0       0       0       0
       0       0       0       0       0       0       0       0       0       0
       0       0       0       0       0       0       0       0       0       0
       0       0       0       0       0       0       0       0       0       0
       0       0       0       0       0       0       0       0       0       0
       0       0       0       0       0       0       0       0       0       0
       0       0       0       0       0       0       0       0       0       0
       0       0       0       0       0       0       0       0       0       0
       0       0       0       0       0       0       0       0       0       0
       0       0       0       0       0       0       0       0       0       0
       0       0       0       0       0       0       0       0       0       0
       0       0       0       0       0       0       0       0       0       0
       0       0       0       0       0       0       0       0       0       0
       0       0       0       0       0       0       0       0       0       0
       0       0       0       0       0       0       0       0       0       0
       0       0       0       0       0       0       0       0       0       0
       0       0       0       0       0       0       0       0       0       0
       0       0       0       0       0       0       0       0       0       0
       0       0       0       0       0       0       0       0       0       0
       0       0       0       0       0       0       0       0       0       0
       0       0       0       0       0       0       0       0       0       0
       0       0       0       0       0       0       0       0       0       0
       0       0       0       0       0       0       0       0       0       0
       0       0       0       0       0       0       0       0       0       0
       0       0       0       0       0       0       0       0       0       0
       0       0       0       0       0       0       0       0       0       0
       0       0       0       0       0       0       0       0       0       0
       0       0       0       0       0       0       0       0       0       0
       0       0       0       0       0       0       0       0       0       0
       0       0       0       0       0       0       0       0       0       0
       0       0       0       0       0       0       0       0       0       0
       0       0       0       0       0       0       0       0       0       0
       0       0       0       0       0       0       0       0       0       0
       0       0       0       0       0       0       0       0       0       0
       0       0       0       0       0       0       0       0       0       0
       0       0       0       0       0       0       0       0       0       0
       0       0       0       0       0       0       0       0       0       0
       0       0       0       0       0       0       0       0       0       0
       0       0       0       0       0       0       0       0       0       0
       0       0       0       0       0       0       0       0       0       0
       0       0       0       0       0       0       0       0       0       0
       0       0       0       0       0       0       0       0       0       0
       0       0       0       0       0       0       0       0       0       0
       0       0       0       0       0       0       0       0       0       0
       0       0       0       0       0       0       0       0       0       0
       0       0       0       0       0       0       0       0       0       0
       0       0       0       0       0       0       0       0       0       0
       0       0       0       0       0       0       0       0       0       0
       0       0       0       0       0       0       0       0       0       0
       0       0       0       0       0       0       0       0       0       0
       0       0       0       0       0       0       0       0       0       0
       0       0       0       0       0       0       0       0       0       0
       0       0       0       0       0       0       0       0       0       0
       0       0       0       0       0       0       0       0       0       0
       0       0       0       0       0       0       0       0       0       0
       0       0       0       0       0       0       0       0       0       0
       0       0       0       0       0       0       0       0       0       0
       0       0       0       0       0       0       0       0       0       0
       0       0       0       0       0       0       0       0       0       0
       0       0       0       0       0       0       0       0       0       0
       0       0       0       0       0       0       0       0       0       0
       0       0       0       0       0       0       0       0       0       0
       0       0       0       0       0       0       0       0       0       0
       0       0       0       0       0       0       0       0       0       0
       0       0       0       0       0       0       0       0       0       0
       0       0       0       0       0       0       0       0       0       0
       0       0       0       0       0       0       0       0       0       0
       0       0       0       0       0       0       0       0       0       0
       0       0       0       0       0       0       0       0       0       0
       0       0       0       0       0       0       0       0       0       0
       0       0       0       0       0       0       0       0       0       0
       0       0       0       0       0       0       0       0       0       0
       0       0       0       0       0       0       0       0       0       0
       0       0       0       0       0       0       0       0       0       0
       0       0       0       0       0       0       0       0       0       0
       0       0       0       0       0       0       0       0       0       0
       0       0       0       0       0       0       0       0       0       0
       0       0       0       0       0       0       0       0       0       0
       0       0       0       0       0       0       0       0       0       0
       0       0       0       0       0       0       0       0       0       0
       0       0       0       0       0       0       0       0       0       0
       0       0       0       0       0       0       0       0       0       0
       0       0       0       0       0       0       0       0       0       0
       0       0       0       0       0       0       0       0       0       0
       0       0       0       0       0       0       0       0       0       0
       0       0       0       0       0       0       0       0       0       0
       0       0       0       0       0       0       0       0       0       0
       0       0       0       0       0       0       0       0       0       0
       0       0       0       0       0       0       0       0       0       0
       0       0       0       0       0       0       0       0       0       0
       0       0       0       0       0       0       0       0       0       0
       0       0       0       0       0       0       0       0       0       0
       0       0       0       0       0       0       0       0       0       0
       0       0       0       0       0       0       0       0       0       0
       0       0       0       0       0       0       0       0       0       0
       0       0       0       0       0       0       0       0       0       0
       0       0       0       0       0       0       0       0       0       0
       0       0       0       0       0       0       0       0       0       0
       0       0       0       0       0       0       0       0       0       0
       0       0       0       0       0       0       0       0       0       0
       0       0       0       0       0       0       0       0       0       0
       0       0       0       0       0       0       0       0       0       0
       0       0       0       0       0       0       0       0       0       0
       0       0       0       0       0       0       0       0       0       0
       0       0       0       0       0       0       0       0       0       0
       0       0       0       0       0       0       0       0       0       0
       0       0       0       0       0       0       0       0       0       0
       0       0       0       0       0       0       0       0       0       0
       0       0       0       0       0       0       0       0       0       0
       0       0       0       0       0       0       0       0       0       0
       0       0       0       0       0       0       0       0       0       0
       0       0       0       0       0       0       0       0       0       0
       0       0       0       0       0       0       0       0       0       0
       0       0       0       0       0       0       0       0       0       0
       0       0       0       0       0       0       0       0       0       0
       0       0       0       0       0       0       0       0       0       0
       0       0       0       0       0       0       0       0       0       0
       0       0       0       0       0       0       0       0       0       0
       0       0       0       0       0       0       0       0       0       0
       0       0       0       0       0       0       0       0       0       0
       0       0       0       0       0       0       0       0       0       0
       0       0       0       0       0       0       0       0       0       0
       0       0       0       0       0       0       0       0       0       0
       0       0       0       0       0       0       0       0       0       0
       0       0       0       0       0       0       0       0       0       0
       0       0       0       0       0       0       0       0       0       0
       0       0       0       0       0       0       0       0       0       0
       0       0       0       0       0       0       0       0       0       0
       0       0       0       0       0       0       0       0       0       0
       0       0       0       0       0       0       0       0       0       0
       0       0       0       0       0       0       0       0       0       0
       0       0       0       0       0       0       0       0       0       0
       0       0       0       0       0       0       0       0       0       0
       0       0       0       0       0       0       0       0       0       0
       0       0       0       0       0       0       0       0       0       0
       0       0       0       0       0       0       0       0       0       0
       0       0       0       0       0       0       0       0       0       0
       0       0       0       0       0       0       0       0       0       0
       0       0       0       0       0       0       0       0       0       0
       0       0       0       0       0       0       0       0       0       0
       0       0       0       0       0       0       0       0       0       0
       0       0       0       0       0       0       0       0       0       0
       0       0       0       0       0       0       0       0       0       0
       0       0       0       0       0       0       0       0       0       0
       0       0       0       0       0       0       0       0       0       0
       0       0       0       0       0       0       0       0       0       0
       0       0       0       0       0       0       0       0       0       0
       0       0       0       0       0       0       0       0       0       0
       0       0       0       0       0       0       0       0       0       0
       0       0       0       0       0       0       0       0       0       0
       0       0       0       0       0       0       0       0       0       0
       0       0       0       0       0       0       0       0       0       0
       0       0       0       0       0       0       0       0       0       0
       0       0       0       0       0       0       0       0       0       0
       0       0       0       0       0       0       0       0       0       0
       0       0       0       0       0       0       0       0       0       0
       0       0       0       0       0       0       0       0       0       0
       0       0       0       0       0       0       0       0       0       0
       0       0       0       0       0       0       0       0       0       0
       0       0       0       0       0       0       0       0       0       0
       0       0       0       0       0       0       0       0       0       0
       0       0       0       0       0       0       0       0       0       0
       0       0       0       0       0       0       0       0       0       0
       0       0       0       0       0       0       0       0       0       0
       0       0       0       0       0       0       0       0       0       0
       0       0       0       0       0       0       0       0       0       0
       0       0       0       0       0       0       0       0       0       0
       0       0       0       0       0       0       0       0       0       0
       0       0       0       0       0       0       0       0       0       0
       0       0       0       0       0       0       0       0       0       0
       0       0       0       0       0       0       0       0       0       0
       0       0       0       0       0       0       0       0       0       0
       0       0       0       0       0       0       0       0       0       0
       0       0       0       0       0       0       0       0       0       0
       0       0       0       0       0       0       0       0       0       0
       0       0       0       0       0       0       0       0       0       0
       0       0       0       0       0       0       0       0       0       0
       0       0       0       0       0       0       0       0       0       0
       0       0       0       0       0       0       0       0       0       0
       0       0       0       0       0       0       0       0       0       0
       0       0       0       0       0       0       0       0       0       0
       0       0       0       0       0       0       0       0       0       0
       0       0       0       0       0       0       0       0       0       0
       0       0       0       0       0       0       0       0       0       0
       0       0       0       0       0       0       0       0       0       0
       0       0       0       0       0       0       0       0       0       0
       0       0       0       0       0       0       0       0       0       0
       0       0       0       0       0       0       0       0       0       0
       0       0       0       0       0       0       0       0       0       0
       0       0       0       0       0       0       0       0       0       0
       0       0       0       0       0       0       0       0       0       0
       0       0       0       0       0       0       0       0       0       0
       0       0       0       0       0       0       0       0       0       0
       0       0       0       0       0       0       0       0       0       0
       0       0       0       0       0       0       0       0       0       0
       0       0       0       0       0       0       0       0       0       0
       0       0       0       0       0       0       0       0       0       0
       0       0       0       0       0       0       0       0       0       0
       0       0       0       0       0       0       0       0       0       0
       0       0       0       0       0       0       0       0       0       0
       0       0       0       0       0       0       0       0       0       0
       0       0       0       0       0       0       0       0       0       0
       0       0       0       0       0       0       0       0       0       0
       0       0       0       0       0       0       0       0       0       0
       0       0       0       0       0       0       0       0       0       0
       0       0       0       0       0       0       0       0       0       0
       0       0       0       0       0       0       0       0       0       0
       0       0       0       0       0       0       0       0       0       0
       0       0       0       0       0       0       0       0       0       0
       0       0       0       0       0       0       0       0       0       0
       0       0       0       0       0       0       0       0       0       0
       0       0       0       0       0       0       0       0       0       0
       0       0       0       0       0       0       0       0       0       0
       0       0       0       0       0       0       0       0       0       0
       0       0       0       0       0       0       0       0       0       0
       0       0       0       0       0       0       0       0       0       0
       0       0       0       0       0       0       0       0       0       0
       0       0       0       0       0       0       0       0       0       0
       0       0       0       0       0       0       0       0       0       0
       0       0       0       0       0       0       0       0       0       0
       0       0       0       0       0       0       0       0       0       0
       0       0       0       0       0       0       0       0       0       0
       0       0       0       0       0       0       0       0       0       0
       0       0       0       0       0       0       0       0       0       0
       0       0       0       0       0       0       0       0       0       0
       0       0       0       0       0       0       0       0       0       0
       0       0       0       0       0       0       0       0       0       0
       0       0       0       0       0       0       0       0       0       0
       0       0       0       0       0       0       0       0       0       0
       0       0       0       0       0       0       0       0       0       0
       0       0       0       0       0       0       0       0       0       0
       0       0       0       0       0       0       0       0       0       0
       0       0       0       0       0       0       0       0       0       0
       0       0       0       0       0       0       0       0       0       0
       0       0       0       0       0       0       0       0       0       0
       0       0       0       0       0       0       0       0       0       0
       0       0       0       0       0       0       0       0       0       0
       0       0       0       0       0       0       0       0       0       0
       0       0       0       0       0       0       0       0       0       0
       0       0       0       0       0       0       0       0       0       0
       0       0       0       0       0       0       0       0       0       0
       0       0       0       0       0       0       0       0       0       0
       0       0       0       0       0       0       0       0       0       0
       0       0       0       0       0       0       0       0       0       0
       0       0       0       0       0       0       0       0       0       0
       0       0       0       0       0       0       0       0       0       0
       0       0       0       0       0       0       0       0       0       0
       0       0       0       0       0       0       0       0       0       0
       0       0       0       0       0       0       0       0       0       0
       0       0       0       0       0       0       0       0       0       0
       0       0       0       0       0       0       0       0       0       0
       0       0       0       0       0       0       0       0       0       0
       0       0       0       0       0       0       0       0       0       0
       0       0       0       0       0       0       0       0       0       0
       0       0       0       0       0       0       0       0       0       0
       0       0       0       0       0       0       0       0       0       0
       0       0       0       0       0       0       0       0       0       0
       0       0       0       0       0       0       0       0       0       0
       0       0       0       0       0       0       0       0       0       0
       0       0       0       0       0       0       0       0       0       0
       0       0       0       0       0       0       0       0       0       0
       0       0       0       0       0       0       0       0       0       0
       0       0       0       0       0       0       0       0       0       0
       0       0       0       0       0       0       0       0       0       0
       0       0       0       0       0       0       0       0       0       0
       0       0       0       0       0       0       0       0       0       0
       0       0       0       0       0       0       0       0       0       0
       0       0       0       0       0       0       0       0       0       0
       0       0       0       0       0       0       0       0       0       0
       0       0       0       0       0       0       0       0       0       0
       0       0       0       0       0       0       0       0       0       0
       0       0       0       0       0       0       0       0       0       0
       0       0       0       0       0       0       0       0       0       0
       0       0       0       0       0       0       0       0       0       0
       0       0       0       0       0       0       0       0       0       0
       0       0       0       0       0       0       0       0       0       0
       0       0       0       0       0       0       0       0       0       0
       0       0       0       0       0       0       0       0       0       0
       0       0       0       0       0       0       0       0       0       0
       0       0       0       0       0       0       0       0       0       0
       0       0       0       0       0       0       0       0       0       0
       0       0       0       0       0       0       0       0       0       0
       0       0       0       0       0       0       0       0       0       0
       0       0       0       0       0       0       0       0       0       0
       0       0       0       0       0       0       0       0       0       0
       0       0       0       0       0       0       0       0       0       0
       0       0       0       0       0       0       0       0       0       0
       0       0       0       0       0       0       0       0       0       0
       0       0       0       0       0       0       0       0       0       0
       0       0       0       0       0       0       0       0       0       0
       0       0       0       0       0       0       0       0       0       0
       0       0       0       0       0       0       0       0       0       0
       0       0       0       0       0       0       0       0       0       0
       0       0       0       0       0       0       0       0       0       0
       0       0       0       0       0       0       0       0       0       0
       0       0       0       0       0       0       0       0       0       0
       0       0       0       0       0       0       0       0       0       0
       0       0       0       0       0       0       0       0       0       0
       0       0       0       0       0       0       0       0       0       0
       0       0       0       0       0       0       0       0       0       0
       0       0       0       0       0       0       0       0       0       0
       0       0       0       0       0       0       0       0       0       0
       0       0       0       0       0       0       0       0       0       0
       0       0       0       0       0       0       0       0       0       0
       0       0       0       0       0       0       0       0       0       0
       0       0       0       0       0       0       0       0       0       0
       0       0       0       0       0       0       0       0       0       0
       0       0       0       0       0       0       0       0       0       0
       0       0       0       0       0       0       0       0       0       0
       0       0       0       0       0       0       0       0       0       0
       0       0       0       0       0       0       0       0       0       0
       0       0       0       0       0       0       0       0       0       0
       0       0       0       0       0       0       0       0       0       0
       0       0       0       0       0       0       0       0       0       0
       0       0       0       0       0       0       0       0       0       0
       0       0       0       0       0       0       0       0       0       0
       0       0       0       0       0       0       0       0       0       0
       0       0       0       0       0       0       0       0       0       0
       0       0       0       0       0       0       0       0       0       0
       0       0       0       0       0       0       0       0       0       0
       0       0       0       0       0       0       0       0       0       0
       0       0       0       0       0       0       0       0       0       0
       0       0       0       0       0       0       0       0       0       0
       0       0       0       0       0       0       0       0       0       0
       0       0       0       0       0       0       0       0       0       0
       0       0       0       0       0       0       0       0       0       0
       0       0       0       0       0       0       0       0       0       0
       0       0       0       0       0       0       0       0       0       0
       0       0       0       0       0       0       0       0       0       0
       0       0       0       0       0       0       0       0       0       0
       0       0       0       0       0       0       0       0       0       0
       0       0       0       0       0       0       0       0       0       0
       0       0       0       0       0       0       0       0       0       0
       0       0       0       0       0       0       0       0       0       0
       0       0       0       0       0       0       0       0       0       0
       0       0       0       0       0       0       0       0       0       0
       0       0       0       0       0       0       0       0       0       0
       0       0       0       0       0       0       0       0       0       0
       0       0       0       0       0       0       0       0       0       0
       0       0       0       0       0       0       0       0       0       0
       0       0       0       0       0       0       0       0       0       0
       0       0       0       0       0       0       0       0       0       0
       0       0       0       0       0       0       0       0       0       0
       0       0       0       0       0       0       0       0       0       0
       0       0       0       0       0       0       0       0       0       0
       0       0       0       0       0       0       0       0       0       0
       0       0       0       0       0       0       0       0       0       0
       0       0       0       0       0       0       0       0       0       0
       0       0       0       0       0       0       0       0       0       0
       0       0       0       0       0       0       0       0       0       0
       0       0       0       0       0       0       0       0       0       0
       0       0       0       0       0       0       0       0       0       0
       0       0       0       0       0       0       0       0       0       0
       0       0       0       0       0       0       0       0       0       0
       0       0       0       0       0       0       0       0       0       0
       0       0       0       0       0       0       0       0       0       0
       0       0       0       0       0       0       0       0       0       0
       0       0       0       0       0       0       0       0       0       0
       0       0       0       0       0       0       0       0       0       0
       0       0       0       0       0       0       0       0       0       0
       0       0       0       0       0       0       0       0       0       0
       0       0       0       0       0       0       0       0       0       0
       0       0       0       0       0       0       0       0       0       0
       0       0       0       0       0       0       0       0       0       0
       0       0       0       0       0       0       0       0       0       0
       0       0       0       0       0       0       0       0       0       0
       0       0       0       0       0       0       0       0       0       0
       0       0       0       0       0       0       0       0       0       0
       0       0       0       0       0       0       0       0       0       0
       0       0       0       0       0       0       0       0       0       0
       0       0       0       0       0       0       0       0       0       0
       0       0       0       0       0       0       0       0       0       0
       0       0       0       0       0       0       0       0       0       0
       0       0       0       0       0       0       0       0       0       0
       0       0       0       0       0       0       0       0       0       0
       0       0       0       0       0       0       0       0       0       0
       0       0       0       0       0       0       0       0       0       0
       0       0       0       0       0       0       0       0       0       0
       0       0       0       0       0       0       0       0       0       0
       0       0       0       0       0       0       0       0       0       0
       0       0       0       0       0       0       0       0       0       0
       0       0       0       0       0       0       0       0       0       0
       0       0       0       0       0       0       0       0       0       0
       0       0       0       0       0       0       0       0       0       0
       0       0       0       0       0       0       0       0       0       0
       0       0       0       0       0       0       0       0       0       0
       0       0       0       0       0       0       0       0       0       0
       0       0       0       0       0       0       0       0       0       0
       0       0       0       0       0       0       0       0       0       0
       0       0       0       0       0       0       0       0       0       0
       0       0       0       0       0       0       0       0       0       0
       0       0       0       0       0       0       0       0       0       0
       0       0       0       0       0       0       0       0       0       0
       0       0       0       0       0       0       0       0       0       0
       0       0       0       0       0       0       0       0       0       0
       0       0       0       0       0       0       0       0       0       0
       0       0       0       0       0       0       0       0       0       0
       0       0       0       0       0       0       0       0       0       0
       0       0       0       0       0       0       0       0       0       0
       0       0       0       0       0       0       0       0       0       0
       0       0       0       0       0       0       0       0       0       0
       0       0       0       0       0       0       0       0       0       0
       0       0       0       0       0       0       0       0       0       0
       0       0       0       0       0       0       0       0       0       0
       0       0       0       0       0       0       0       0       0       0
       0       0       0       0       0       0       0       0       0       0
       0       0       0       0       0       0       0       0       0       0
       0       0       0       0       0       0       0       0       0       0
       0       0       0       0       0       0       0       0       0       0
       0       0       0       0       0       0       0       0       0       0
       0       0       0       0       0       0       0       0       0       0
       0       0       0       0       0       0       0       0       0       0
       0       0       0       0       0       0       0       0       0       0
       0       0       0       0       0       0       0       0       0       0
       0       0       0       0       0       0       0       0       0       0
       0       0       0       0       0       0       0       0       0       0
       0       0       0       0       0       0       0       0       0       0
       0       0       0       0       0       0       0       0       0       0
       0       0       0       0       0       0       0       0       0       0
       0       0       0       0       0       0       0       0       0       0
       0       0       0       0       0       0       0       0       0       0
       0       0       0       0       0       0       0       0       0       0
       0       0       0       0       0       0       0       0       0       0
       0       0       0       0       0       0       0       0       0       0
       0       0       0       0       0       0       0       0       0       0
       0       0       0       0       0       0       0       0       0       0
       0       0       0       0       0       0       0       0       0       0
       0       0       0       0       0       0       0       0       0       0
       0       0       0       0       0       0       0       0       0       0
       0       0       0       0       0       0       0       0       0       0
       0       0       0       0       0       0       0       0       0       0
       0       0       0       0       0       0       0       0       0       0
       0       0       0       0       0       0       0       0       0       0
       0       0       0       0       0       0       0       0       0       0
       0       0       0       0       0       0       0       0       0       0
       0       0       0       0       0       0       0       0       0       0
       0       0       0       0       0       0       0       0       0       0
       0       0       0       0       0       0       0       0       0       0
       0       0       0       0       0       0       0       0       0       0
       0       0       0       0       0       0       0       0       0       0
       0       0       0       0       0       0       0       0       0       0
       0       0       0       0       0       0       0       0       0       0
       0       0       0       0       0       0       0       0       0       0
       0       0       0       0       0       0       0       0       0       0
       0       0       0       0       0       0       0       0       0       0
       0       0       0       0       0       0       0       0       0       0
       0       0       0       0       0       0       0       0       0       0
       0       0       0       0       0       0       0       0       0       0
       0       0       0       0       0       0       0       0       0       0
       0       0       0       0       0       0       0       0       0       0
       0       0       0       0       0       0       0       0       0       0
       0       0       0       0       0       0       0       0       0       0
       0       0       0       0       0       0       0       0       0       0
       0       0       0       0       0       0       0       0       0       0
       0       0       0       0       0       0       0       0       0       0
       0       0       0       0       0       0       0       0       0       0
       0       0       0       0       0       0       0       0       0       0
       0       0       0       0       0       0       0       0       0       0
       0       0       0       0       0       0       0       0       0       0
       0       0       0       0       0       0       0       0       0       0
       0       0       0       0       0       0       0       0       0       0
       0       0       0       0       0       0       0       0       0       0
       0       0       0       0       0       0       0       0       0       0
       0       0       0       0       0       0       0       0       0       0
       0       0       0       0       0       0       0       0       0       0
       0       0       0       0       0       0       0       0       0       0
       0       0       0       0       0       0       0       0       0       0
       0       0       0       0       0       0       0       0       0       0
       0       0       0       0       0       0       0       0       0       0
       0       0       0       0       0       0       0       0       0       0
       0       0       0       0       0       0       0       0       0       0
       0       0       0       0       0       0       0       0       0       0
       0       0       0       0       0       0       0       0       0       0
       0       0       0       0       0       0       0       0       0       0
       0       0       0       0       0       0       0       0       0       0
       0       0       0       0       0       0       0       0       0       0
       0       0       0       0       0       0       0       0       0       0
       0       0       0       0       0       0       0       0       0       0
       0       0       0       0       0       0       0       0       0       0
       0       0       0       0       0       0       0       0       0       0
       0       0       0       0       0       0       0       0       0       0
       0       0       0       0       0       0       0       0       0       0
       0       0       0       0       0       0       0       0       0       0
       0       0       0       0       0       0       0       0       0       0
       0       0       0       0       0       0       0       0       0       0
       0       0       0       0       0       0       0       0       0       0
       0       0       0       0       0       0       0       0       0       0
       0       0       0       0       0       0       0       0       0       0
       0       0       0       0       0       0       0       0       0       0
       0       0       0       0       0       0       0       0       0       0
       0       0       0       0       0       0       0       0       0       0
       0       0       0       0       0       0       0       0       0       0
       0       0       0       0       0       0       0       0       0       0
       0       0       0       0       0       0       0       0       0       0
       0       0       0       0       0       0       0       0       0       0
       0       0       0       0       0       0       0       0       0       0
       0       0       0       0       0       0       0       0       0       0
       0       0       0       0       0       0       0       0       0       0
       0       0       0       0       0       0       0       0       0       0
       0       0       0       0       0       0       0       0       0       0
       0       0       0       0       0       0       0       0       0       0
       0       0       0       0       0       0       0       0       0       0
       0       0       0       0       0       0       0       0       0       0
       0       0       0       0       0       0       0       0       0       0
       0       0       0       0       0       0       0       0       0       0
       0       0       0       0       0       0       0       0       0       0
       0       0       0       0       0       0       0       0       0       0
       0       0       0       0       0       0       0       0       0       0
       0       0       0       0       0       0       0       0       0       0
       0       0       0       0       0       0       0       0       0       0
       0       0       0       0       0       0       0       0       0       0
       0       0       0       0       0       0       0       0       0       0
       0       0       0       0       0       0       0       0       0       0
       0       0       0       0       0       0       0       0       0       0
       0       0       0       0       0       0       0       0       0       0
       0       0       0       0       0       0       0       0       0       0
       0       0       0       0       0       0       0       0       0       0
       0       0       0       0       0       0       0       0       0       0
       0       0       0       0       0       0       0       0       0       0
       0       0       0       0       0       0       0       0       0       0
       0       0       0       0       0       0       0       0       0       0
       0       0       0       0       0       0       0       0       0       0
       0       0       0       0       0       0       0       0       0       0
       0       0       0       0       0       0       0       0       0       0
       0       0       0       0       0       0       0       0       0       0
       0       0       0       0       0       0       0       0       0       0
       0       0       0       0       0       0       0       0       0       0
       0       0       0       0       0       0       0       0       0       0
       0       0       0       0       0       0       0       0       0       0
       0       0       0       0       0       0       0       0       0       0
       0       0       0       0       0       0       0       0       0       0
       0       0       0       0       0       0       0       0       0       0
       0       0       0       0       0       0       0       0       0       0
       0       0       0       0       0       0       0       0       0       0
       0       0       0       0       0       0       0       0       0       0
       0       0       0       0       0       0       0       0       0       0
       0       0       0       0       0       0       0       0       0       0
       0       0       0       0       0       0       0       0       0       0
       0       0       0       0       0       0       0       0       0       0
       0       0       0       0       0       0       0       0       0       0
       0       0       0       0       0       0       0       0       0       0
       0       0       0       0       0       0       0       0       0       0
       0       0       0       0       0       0       0       0       0       0
       0       0       0       0       0       0       0       0       0       0
       0       0       0       0       0       0       0       0       0       0
       0       0       0       0       0       0       0       0       0       0
       0       0       0       0       0       0       0       0       0       0
       0       0       0       0       0       0       0       0       0       0
       0       0       0       0       0       0       0       0       0       0
       0       0       0       0       0       0       0       0       0       0
       0       0       0       0       0       0       0       0       0       0
       0       0       0       0       0       0       0       0       0       0
       0       0       0       0       0       0       0       0       0       0
       0       0       0       0       0       0       0       0       0       0
       0       0       0       0       0       0       0       0       0       0
       0       0       0       0       0       0       0       0       0       0
       0       0       0       0       0       0       0       0       0       0
       0       0       0       0       0       0       0       0       0       0
       0       0       0       0       0       0       0       0       0       0
       0       0       0       0       0       0       0       0       0       0
       0       0       0       0       0       0       0       0       0       0
       0       0       0       0       0       0       0       0       0       0
       0       0       0       0       0       0       0       0       0       0
       0       0       0       0       0       0       0       0       0       0
       0       0       0       0       0       0       0       0       0       0
       0       0       0       0       0       0       0       0       0       0
       0       0       0       0       0       0       0       0       0       0
       0       0       0       0       0       0       0       0       0       0
       0       0       0       0       0       0       0       0       0       0
       0       0       0       0       0       0       0       0       0       0
       0       0       0       0       0       0       0       0       0       0
       0       0       0       0       0       0       0       0       0       0
       0       0       0       0       0       0       0       0       0       0
       0       0       0       0       0       0       0       0       0       0
       0       0       0       0       0       0       0       0       0       0
       0       0       0       0       0       0       0       0       0       0
       0       0       0       0       0       0       0       0       0       0
       0       0       0       0       0       0       0       0       0       0
       0       0       0       0       0       0       0       0       0       0
       0       0       0       0       0       0       0       0       0       0
       0       0       0       0       0       0       0       0       0       0
       0       0       0       0       0       0       0       0       0       0
       0       0       0       0       0       0       0       0       0       0
       0       0       0       0       0       0       0       0       0       0
       0       0       0       0       0       0       0       0       0       0
       0       0       0       0       0       0       0       0       0       0
       0       0       0       0       0       0       0       0       0       0
       0       0       0       0       0       0       0       0       0       0
       0       0       0       0       0       0       0       0       0       0
       0       0       0       0       0       0       0       0       0       0
       0       0       0       0       0       0       0       0       0       0
       0       0       0       0       0       0       0       0       0       0
       0       0       0       0       0       0       0       0       0       0
       0       0       0       0       0       0       0       0       0       0
       0       0       0       0       0       0       0       0       0       0
       0       0       0       0       0       0       0       0       0       0
       0       0       0       0       0       0       0       0       0       0
       0       0       0       0       0       0       0       0       0       0
       0       0       0       0       0       0       0       0       0       0
       0       0       0       0       0       0       0       0       0       0
       0       0       0       0       0       0       0       0       0       0
       0       0       0       0       0       0       0       0       0       0
       0       0       0       0       0       0       0       0       0       0
       0       0       0       0       0       0       0       0       0       0
       0       0       0       0       0       0       0       0       0       0
       0       0       0       0       0       0       0       0       0       0
       0       0       0       0       0       0       0       0       0       0
       0       0       0       0       0       0       0       0       0       0
       0       0       0       0       0       0       0       0       0       0
       0       0       0       0       0       0       0       0       0       0
       0       0       0       0       0       0       0       0       0       0
       0       0       0       0       0       0       0       0       0       0
       0       0       0       0       0       0       0       0       0       0
       0       0       0       0       0       0       0       0       0       0
       0       0       0       0       0       0       0       0       0       0
       0       0       0       0       0       0       0       0       0       0
       0       0       0       0       0       0       0       0       0       0
       0       0       0       0       0       0       0       0       0       0
       0       0       0       0       0       0       0       0       0       0
       0       0       0       0       0       0       0       0       0       0
       0       0       0       0       0       0       0       0       0       0
       0       0       0       0       0       0       0       0       0       0
       0       0       0       0       0       0       0       0       0       0
       0       0       0       0       0       0       0       0       0       0
       0       0       0       0       0       0       0       0       0       0
       0       0       0       0       0       0       0       0       0       0
       0       0       0       0       0       0       0       0       0       0
       0       0       0       0       0       0       0       0       0       0
       0       0       0       0       0       0       0       0       0       0
       0       0       0       0       0       0       0       0       0       0
       0       0       0       0       0       0       0       0       0       0
       0       0       0       0       0       0       0       0       0       0
       0       0       0       0       0       0       0       0       0       0
       0       0       0       0       0       0       0       0       0       0
       0       0       0       0       0       0       0       0       0       0
       0       0       0       0       0       0       0       0       0       0
       0       0       0       0       0       0       0       0       0       0
       0       0       0       0       0       0       0       0       0       0
       0       0       0       0       0       0       0       0       0       0
       0       0       0       0       0       0       0       0       0       0
       0       0       0       0       0       0       0       0       0       0
       0       0       0       0       0       0       0       0       0       0
       0       0       0       0       0       0       0       0       0       0
       0       0       0       0       0       0       0       0       0       0
       0       0       0       0       0       0       0       0       0       0
       0       0       0       0       0       0       0       0       0       0
       0       0       0       0       0       0       0       0       0       0
       0       0       0       0       0       0       0       0       0       0
       0       0       0       0       0       0       0       0       0       0
       0       0       0       0       0       0       0       0       0       0
       0       0       0       0       0       0       0       0       0       0
       0       0       0       0       0       0       0       0       0       0
       0       0       0       0       0       0       0       0       0       0
       0       0       0       0       0       0       0       0       0       0
       0       0       0       0       0       0       0       0       0       0
       0       0       0       0       0       0       0       0       0       0
       0       0       0       0       0       0       0       0       0       0
       0       0       0       0       0       0       0       0       0       0
       0       0       0       0       0       0       0       0       0       0
       0       0       0       0       0       0       0       0       0       0
       0       0       0       0       0       0       0       0       0       0
       0       0       0       0       0       0       0       0       0       0
       0       0       0       0       0       0       0       0       0       0
       0       0       0       0       0       0       0       0       0       0
       0       0       0       0       0       0       0       0       0       0
       0       0       0       0       0       0       0       0       0       0
       0       0       0       0       0       0       0       0       0       0
       0       0       0       0       0       0       0       0       0       0
       0       0       0       0       0       0       0       0       0       0
       0       0       0       0       0       0       0       0       0       0
       0       0       0       0       0       0       0       0       0       0
       0       0       0       0       0       0       0       0       0       0
       0       0       0       0       0       0       0       0       0       0
       0       0       0       0       0       0       0       0       0       0
       0       0       0       0       0       0       0       0       0       0
       0       0       0       0       0       0       0       0       0       0
       0       0       0       0       0       0       0       0       0       0
       0       0       0       0       0       0       0       0       0       0
       0       0       0       0       0       0       0       0       0       0
       0       0       0       0       0       0       0       0       0       0
       0       0       0       0       0       0       0       0       0       0
       0       0       0       0       0       0       0       0       0       0
       0       0       0       0       0       0       0       0       0       0
       0       0       0       0       0       0       0       0       0       0
       0       0       0       0       0       0       0       0       0       0
       0       0       0       0       0       0       0       0       0       0
       0       0       0       0       0       0       0       0       0       0
       0       0       0       0       0       0       0       0       0       0
       0       0       0       0       0       0       0       0       0       0
       0       0       0       0       0       0       0       0       0       0
       0       0       0       0       0       0       0       0       0       0
       0       0       0       0       0       0       0       0       0       0
       0       0       0       0       0       0       0       0       0       0
       0       0       0       0       0       0       0       0       0       0
       0       0       0       0       0       0       0       0       0       0
       0       0       0       0       0       0       0       0       0       0
       0       0       0       0       0       0       0       0       0       0
       0       0       0       0       0       0       0       0       0       0
       0       0       0       0       0       0       0       0       0       0
       0       0       0       0       0       0       0       0       0       0
       0       0       0       0       0       0       0       0       0       0
       0       0       0       0       0       0       0       0       0       0
       0       0       0       0       0       0       0       0       0       0
       0       0       0       0       0       0       0       0       0       0
       0       0       0       0       0       0       0       0       0       0
       0       0       0       0       0       0       0       0       0       0
       0       0       0       0       0       0       0       0       0       0
       0       0       0       0       0       0       0       0       0       0
       0       0       0       0       0       0       0       0       0       0
       0       0       0       0       0       0       0       0       0       0
       0       0       0       0       0       0       0       0       0       0
       0       0       0       0       0       0       0       0       0       0
       0       0       0       0       0       0       0       0       0       0
       0       0       0       0       0       0       0       0       0       0
       0       0       0       0       0       0       0       0       0       0
       0       0       0       0       0       0       0       0       0       0
       0       0       0       0       0       0       0       0       0       0
       0       0       0       0       0       0       0       0       0       0
       0       0       0       0       0       0       0       0       0       0
       0       0       0       0       0       0       0       0       0       0
       0       0       0       0       0       0       0       0       0       0
       0       0       0       0       0       0       0       0       0       0
       0       0       0       0       0       0       0       0       0       0
       0       0       0       0       0       0       0       0       0       0
       0       0       0       0       0       0       0       0       0       0
       0       0       0       0       0       0       0       0       0       0
       0       0       0       0       0       0       0       0       0       0
       0       0       0       0       0       0       0       0       0       0
       0       0       0       0       0       0       0       0       0       0
       0       0       0       0       0       0       0       0       0       0
       0       0       0       0       0       0       0       0       0       0
       0       0       0       0       0       0       0       0       0       0
       0       0       0       0       0       0       0       0       0       0
       0       0       0       0       0       0       0       0       0       0
       0       0       0       0       0       0       0       0       0       0
       0       0       0       0       0       0       0       0       0       0
       0       0       0       0       0       0       0       0       0       0
       0       0       0       0       0       0       0       0       0       0
       0       0       0       0       0       0       0       0       0       0
       0       0       0       0       0       0       0       0       0       0
       0       0       0       0       0       0       0       0       0       0
       0       0       0       0       0       0       0       0       0       0
       0       0       0       0       0       0       0       0       0       0
       0       0       0       0       0       0       0       0       0       0
       0       0       0       0       0       0       0       0       0       0
       0       0       0       0       0       0       0       0       0       0
       0       0       0       0       0       0       0       0       0       0
       0       0       0       0       0       0       0       0       0       0
       0       0       0       0       0       0       0       0       0       0
       0       0       0       0       0       0       0       0       0       0
       0       0       0       0       0       0       0       0       0       0
       0       0       0       0       0       0       0       0       0       0
       0       0       0       0       0       0       0       0       0       0
       0       0       0       0       0       0       0       0       0       0
       0       0       0       0       0       0       0       0       0       0
       0       0       0       0       0       0       0       0       0       0
       0       0       0       0       0       0       0       0       0       0
       0       0       0       0       0       0       0       0       0       0
       0       0       0       0       0       0       0       0       0       0
       0       0       0       0       0       0       0       0       0       0
       0       0       0       0       0       0       0       0       0       0
       0       0       0       0       0       0       0       0       0       0
       0       0       0       0       0       0       0       0       0       0
       0       0       0       0       0       0       0       0       0       0
       0       0       0       0       0       0       0       0       0       0
       0       0       0       0       0       0       0       0       0       0
       0       0       0       0       0       0       0       0       0       0
       0       0       0       0       0       0       0       0       0       0
       0       0       0       0       0       0       0       0       0       0
       0       0       0       0       0       0       0       0       0       0
       0       0       0       0       0       0       0       0       0       0
       0       0       0       0       0       0       0       0       0       0
       0       0       0       0       0       0       0       0       0       0
       0       0       0       0       0       0       0       0       0       0
       0       0       0       0       0       0       0       0       0       0
       0       0       0       0       0       0       0       0       0       0
       0       0       0       0       0       0       0       0       0       0
       0       0       0       0       0       0       0       0       0       0
       0       0       0       0       0       0       0       0       0       0
%FLAG IROTAT                                                                    
%FORMAT(10I8)                                                                   
       0       0       0       0       0       0       0       0       0       0
       0       0       0       0       0       0       0       0       0       0
       0       0       0       0       0       0       0       0       0       0
       0       0       0       0       0       0       0       0       0       0
       0       0       0       0       0       0       0       0       0       0
       0       0       0       0       0       0       0       0       0       0
       0       0       0       0       0       0       0       0       0       0
       0       0       0       0       0       0       0       0       0       0
       0       0       0       0       0       0       0       0       0       0
       0       0       0       0       0       0       0       0       0       0
       0       0       0       0       0       0       0       0       0       0
       0       0       0       0       0       0       0       0       0       0
       0       0       0       0       0       0       0       0       0       0
       0       0       0       0       0       0       0       0       0       0
       0       0       0       0       0       0       0       0       0       0
       0       0       0       0       0       0       0       0       0       0
       0       0       0       0       0       0       0       0       0       0
       0       0       0       0       0       0       0       0       0       0
       0       0       0       0       0       0       0       0       0       0
       0       0       0       0       0       0       0       0       0       0
       0       0       0       0       0       0       0       0       0       0
       0       0       0       0       0       0       0       0       0       0
       0       0       0       0       0       0       0       0       0       0
       0       0       0       0       0       0       0       0       0       0
       0       0       0       0       0       0       0       0       0       0
       0       0       0       0       0       0       0       0       0       0
       0       0       0       0       0       0       0       0       0       0
       0       0       0       0       0       0       0       0       0       0
       0       0       0       0       0       0       0       0       0       0
       0       0       0       0       0       0       0       0       0       0
       0       0       0       0       0       0       0       0       0       0
       0       0       0       0       0       0       0       0       0       0
       0       0       0       0       0       0       0       0       0       0
       0       0       0       0       0       0       0       0       0       0
       0       0       0       0       0       0       0       0       0       0
       0       0       0       0       0       0       0       0       0       0
       0       0       0       0       0       0       0       0       0       0
       0       0       0       0       0       0       0       0       0       0
       0       0       0       0       0       0       0       0       0       0
       0       0       0       0       0       0       0       0       0       0
       0       0       0       0       0       0       0       0       0       0
       0       0       0       0       0       0       0       0       0       0
       0       0       0       0       0       0       0       0       0       0
       0       0       0       0       0       0       0       0       0       0
       0       0       0       0       0       0       0       0       0       0
       0       0       0       0       0       0       0       0       0       0
       0       0       0       0       0       0       0       0       0       0
       0       0       0       0       0       0       0       0       0       0
       0       0       0       0       0       0       0       0       0       0
       0       0       0       0       0       0       0       0       0       0
       0       0       0       0       0       0       0       0       0       0
       0       0       0       0       0       0       0       0       0       0
       0       0       0       0       0       0       0       0       0       0
       0       0       0       0       0       0       0       0       0       0
       0       0       0       0       0       0       0       0       0       0
       0       0       0       0       0       0       0       0       0       0
       0       0       0       0       0       0       0       0       0       0
       0       0       0       0       0       0       0       0       0       0
       0       0       0       0       0       0       0       0       0       0
       0       0       0       0       0       0       0       0       0       0
       0       0       0       0       0       0       0       0       0       0
       0       0       0       0       0       0       0       0       0       0
       0       0       0       0       0       0       0       0       0       0
       0       0       0       0       0       0       0       0       0       0
       0       0       0       0       0       0       0       0       0       0
       0       0       0       0       0       0       0       0       0       0
       0       0       0       0       0       0       0       0       0       0
       0       0       0       0       0       0       0       0       0       0
       0       0       0       0       0       0       0       0       0       0
       0       0       0       0       0       0       0       0       0       0
       0       0       0       0       0       0       0       0       0       0
       0       0       0       0       0       0       0       0       0       0
       0       0       0       0       0       0       0       0       0       0
       0       0       0       0       0       0       0       0       0       0
       0       0       0       0       0       0       0       0       0       0
       0       0       0       0       0       0       0       0       0       0
       0       0       0       0       0       0       0       0       0       0
       0       0       0       0       0       0       0       0       0       0
       0       0       0       0       0       0       0       0       0       0
       0       0       0       0       0       0       0       0       0       0
       0       0       0       0       0       0       0       0       0       0
       0       0       0       0       0       0       0       0       0       0
       0       0       0       0       0       0       0       0       0       0
       0       0       0       0       0       0       0       0       0       0
       0       0       0       0       0       0       0       0       0       0
       0       0       0       0       0       0       0       0       0       0
       0       0       0       0       0       0       0       0       0       0
       0       0       0       0       0       0       0       0       0       0
       0       0       0       0       0       0       0       0       0       0
       0       0       0       0       0       0       0       0       0       0
       0       0       0       0       0       0       0       0       0       0
       0       0       0       0       0       0       0       0       0       0
       0       0       0       0       0       0       0       0       0       0
       0       0       0       0       0       0       0       0       0       0
       0       0       0       0       0       0       0       0       0       0
       0       0       0       0       0       0       0       0       0       0
       0       0       0       0       0       0       0       0       0       0
       0       0       0       0       0       0       0       0       0       0
       0       0       0       0       0       0       0       0       0       0
       0       0       0       0       0       0       0       0       0       0
       0       0       0       0       0       0       0       0       0       0
       0       0       0       0       0       0       0       0       0       0
       0       0       0       0       0       0       0       0       0       0
       0       0       0       0       0       0       0       0       0       0
       0       0       0       0       0       0       0       0       0       0
       0       0       0       0       0       0       0       0       0       0
       0       0       0       0       0       0       0       0       0       0
       0       0       0       0       0       0       0       0       0       0
       0       0       0       0       0       0       0       0       0       0
       0       0       0       0       0       0       0       0       0       0
       0       0       0       0       0       0       0       0       0       0
       0       0       0       0       0       0       0       0       0       0
       0       0       0       0       0       0       0       0       0       0
       0       0       0       0       0       0       0       0       0       0
       0       0       0       0       0       0       0       0       0       0
       0       0       0       0       0       0       0       0       0       0
       0       0       0       0       0       0       0       0       0       0
       0       0       0       0       0       0       0       0       0       0
       0       0       0       0       0       0       0       0       0       0
       0       0       0       0       0       0       0       0       0       0
       0       0       0       0       0       0       0       0       0       0
       0       0       0       0       0       0       0       0       0       0
       0       0       0       0       0       0       0       0       0       0
       0       0       0       0       0       0       0       0       0       0
       0       0       0       0       0       0       0       0       0       0
       0       0       0       0       0       0       0       0       0       0
       0       0       0       0       0       0       0       0       0       0
       0       0       0       0       0       0       0       0       0       0
       0       0       0       0       0       0       0       0       0       0
       0       0       0       0       0       0       0       0       0       0
       0       0       0       0       0       0       0       0       0       0
       0       0       0       0       0       0       0       0       0       0
       0       0       0       0       0       0       0       0       0       0
       0       0       0       0       0       0       0       0       0       0
       0       0       0       0       0       0       0       0       0       0
       0       0       0       0       0       0       0       0       0       0
       0       0       0       0       0       0       0       0       0       0
       0       0       0       0       0       0       0       0       0       0
       0       0       0       0       0       0       0       0       0       0
       0       0       0       0       0       0       0       0       0       0
       0       0       0       0       0       0       0       0       0       0
       0       0       0       0       0       0       0       0       0       0
       0       0       0       0       0       0       0       0       0       0
       0       0       0       0       0       0       0       0       0       0
       0       0       0       0       0       0       0       0       0       0
       0       0       0       0       0       0       0       0       0       0
       0       0       0       0       0       0       0       0       0       0
       0       0       0       0       0       0       0       0       0       0
       0       0       0       0       0       0       0       0       0       0
       0       0       0       0       0       0       0       0       0       0
       0       0       0       0       0       0       0       0       0       0
       0       0       0       0       0       0       0       0       0       0
       0       0       0       0       0       0       0       0       0       0
       0       0       0       0       0       0       0       0       0       0
       0       0       0       0       0       0       0       0       0       0
       0       0       0       0       0       0       0       0       0       0
       0       0       0       0       0       0       0       0       0       0
       0       0       0       0       0       0       0       0       0       0
       0       0       0       0       0       0       0       0       0       0
       0       0       0       0       0       0       0       0       0       0
       0       0       0       0       0       0       0       0       0       0
       0       0       0       0       0       0       0       0       0       0
       0       0       0       0       0       0       0       0       0       0
       0       0       0       0       0       0       0       0       0       0
       0       0       0       0       0       0       0       0       0       0
       0       0       0       0       0       0       0       0       0       0
       0       0       0       0       0       0       0       0       0       0
       0       0       0       0       0       0       0       0       0       0
       0       0       0       0       0       0       0       0       0       0
       0       0       0       0       0       0       0       0       0       0
       0       0       0       0       0       0       0       0       0       0
       0       0       0       0       0       0       0       0       0       0
       0       0       0       0       0       0       0       0       0       0
       0       0       0       0       0       0       0       0       0       0
       0       0       0       0       0       0       0       0       0       0
       0       0       0       0       0       0       0       0       0       0
       0       0       0       0       0       0       0       0       0       0
       0       0       0       0       0       0       0       0       0       0
       0       0       0       0       0       0       0       0       0       0
       0       0       0       0       0       0       0       0       0       0
       0       0       0       0       0       0       0       0       0       0
       0       0       0       0       0       0       0       0       0       0
       0       0       0       0       0       0       0       0       0       0
       0       0       0       0       0       0       0       0       0       0
       0       0       0       0       0       0       0       0       0       0
       0       0       0       0       0       0       0       0       0       0
       0       0       0       0       0       0       0       0       0       0
       0       0       0       0       0       0       0       0       0       0
       0       0       0       0       0       0       0       0       0       0
       0       0       0       0       0       0       0       0       0       0
       0       0       0       0       0       0       0       0       0       0
       0       0       0       0       0       0       0       0       0       0
       0       0       0       0       0       0       0       0       0       0
       0       0       0       0       0       0       0       0       0       0
       0       0       0       0       0       0       0       0       0       0
       0       0       0       0       0       0       0       0       0       0
       0       0       0       0       0       0       0       0       0       0
       0       0       0       0       0       0       0       0       0       0
       0       0       0       0       0       0       0       0       0       0
       0       0       0       0       0       0       0       0       0       0
       0       0       0       0       0       0       0       0       0       0
       0       0       0       0       0       0       0       0       0       0
       0       0       0       0       0       0       0       0       0       0
       0       0       0       0       0       0       0       0       0       0
       0       0       0       0       0       0       0       0       0       0
       0       0       0       0       0       0       0       0       0       0
       0       0       0       0       0       0       0       0       0       0
       0       0       0       0       0       0       0       0       0       0
       0       0       0       0       0       0       0       0       0       0
       0       0       0       0       0       0       0       0       0       0
       0       0       0       0       0       0       0       0       0       0
       0       0       0       0       0       0       0       0       0       0
       0       0       0       0       0       0       0       0       0       0
       0       0       0       0       0       0       0       0       0       0
       0       0       0       0       0       0       0       0       0       0
       0       0       0       0       0       0       0       0       0       0
       0       0       0       0       0       0       0       0       0       0
       0       0       0       0       0       0       0       0       0       0
       0       0       0       0       0       0       0       0       0       0
       0       0       0       0       0       0       0       0       0       0
       0       0       0       0       0       0       0       0       0       0
       0       0       0       0       0       0       0       0       0       0
       0       0       0       0       0       0       0       0       0       0
       0       0       0       0       0       0       0       0       0       0
       0       0       0       0       0       0       0       0       0       0
       0       0       0       0       0       0       0       0       0       0
       0       0       0       0       0       0       0       0       0       0
       0       0       0       0       0       0       0       0       0       0
       0       0       0       0       0       0       0       0       0       0
       0       0       0       0       0       0       0       0       0       0
       0       0       0       0       0       0       0       0       0       0
       0       0       0       0       0       0       0       0       0       0
       0       0       0       0       0       0       0       0       0       0
       0       0       0       0       0       0       0       0       0       0
       0       0       0       0       0       0       0       0       0       0
       0       0       0       0       0       0       0       0       0       0
       0       0       0       0       0       0       0       0       0       0
       0       0       0       0       0       0       0       0       0       0
       0       0       0       0       0       0       0       0       0       0
       0       0       0       0       0       0       0       0       0       0
       0       0       0       0       0       0       0       0       0       0
       0       0       0       0       0       0       0       0       0       0
       0       0       0       0       0       0       0       0       0       0
       0       0       0       0       0       0       0       0       0       0
       0       0       0       0       0       0       0       0       0       0
       0       0       0       0       0       0       0       0       0       0
       0       0       0       0       0       0       0       0       0       0
       0       0       0       0       0       0       0       0       0       0
       0       0       0       0       0       0       0       0       0       0
       0       0       0       0       0       0       0       0       0       0
       0       0       0       0       0       0       0       0       0       0
       0       0       0       0       0       0       0       0       0       0
       0       0       0       0       0       0       0       0       0       0
       0       0       0       0       0       0       0       0       0       0
       0       0       0       0       0       0       0       0       0       0
       0       0       0       0       0       0       0       0       0       0
       0       0       0       0       0       0       0       0       0       0
       0       0       0       0       0       0       0       0       0       0
       0       0       0       0       0       0       0       0       0       0
       0       0       0       0       0       0       0       0       0       0
       0       0       0       0       0       0       0       0       0       0
       0       0       0       0       0       0       0       0       0       0
       0       0       0       0       0       0       0       0       0       0
       0       0       0       0       0       0       0       0       0       0
       0       0       0       0       0       0       0       0       0       0
       0       0       0       0       0       0       0       0       0       0
       0       0       0       0       0       0       0       0       0       0
       0       0       0       0       0       0       0       0       0       0
       0       0       0       0       0       0       0       0       0       0
       0       0       0       0       0       0       0       0       0       0
       0       0       0       0       0       0       0       0       0       0
       0       0       0       0       0       0       0       0       0       0
       0       0       0       0       0       0       0       0       0       0
       0       0       0       0       0       0       0       0       0       0
       0       0       0       0       0       0       0       0       0       0
       0       0       0       0       0       0       0       0       0       0
       0       0       0       0       0       0       0       0       0       0
       0       0       0       0       0       0       0       0       0       0
       0       0       0       0       0       0       0       0       0       0
       0       0       0       0       0       0       0       0       0       0
       0       0       0       0       0       0       0       0       0       0
       0       0       0       0       0       0       0       0       0       0
       0       0       0       0       0       0       0       0       0       0
       0       0       0       0       0       0       0       0       0       0
       0       0       0       0       0       0       0       0       0       0
       0       0       0       0       0       0       0       0       0       0
       0       0       0       0       0       0       0       0       0       0
       0       0       0       0       0       0       0       0       0       0
       0       0       0       0       0       0       0       0       0       0
       0       0       0       0       0       0       0       0       0       0
       0       0       0       0       0       0       0       0       0       0
       0       0       0       0       0       0       0       0       0       0
       0       0       0       0       0       0       0       0       0       0
       0       0       0       0       0       0       0       0       0       0
       0       0       0       0       0       0       0       0       0       0
       0       0       0       0       0       0       0       0       0       0
       0       0       0       0       0       0       0       0       0       0
       0       0       0       0       0       0       0       0       0       0
       0       0       0       0       0       0       0       0       0       0
       0       0       0       0       0       0       0       0       0       0
       0       0       0       0       0       0       0       0       0       0
       0       0       0       0       0       0       0       0       0       0
       0       0       0       0       0       0       0       0       0       0
       0       0       0       0       0       0       0       0       0       0
       0       0       0       0       0       0       0       0       0       0
       0       0       0       0       0       0       0       0       0       0
       0       0       0       0       0       0       0       0       0       0
       0       0       0       0       0       0       0       0       0       0
       0       0       0       0       0       0       0       0       0       0
       0       0       0       0       0       0       0       0       0       0
       0       0       0       0       0       0       0       0       0       0
       0       0       0       0       0       0       0       0       0       0
       0       0       0       0       0       0       0       0       0       0
       0       0       0       0       0       0       0       0       0       0
       0       0       0       0       0       0       0       0       0       0
       0       0       0       0       0       0       0       0       0       0
       0       0       0       0       0       0       0       0       0       0
       0       0       0       0       0       0       0       0       0       0
       0       0       0       0       0       0       0       0       0       0
       0       0       0       0       0       0       0       0       0       0
       0       0       0       0       0       0       0       0       0       0
       0       0       0       0       0       0       0       0       0       0
       0       0       0       0       0       0       0       0       0       0
       0       0       0       0       0       0       0       0       0       0
       0       0       0       0       0       0       0       0       0       0
       0       0       0       0       0       0       0       0       0       0
       0       0       0       0       0       0       0       0       0       0
       0       0       0       0       0       0       0       0       0       0
       0       0       0       0       0       0       0       0       0       0
       0       0       0       0       0       0       0       0       0       0
       0       0       0       0       0       0       0       0       0       0
       0       0       0       0       0       0       0       0       0       0
       0       0       0       0       0       0       0       0       0       0
       0       0       0       0       0       0       0       0       0       0
       0       0       0       0       0       0       0       0       0       0
       0       0       0       0       0       0       0       0       0       0
       0       0       0       0       0       0       0       0       0       0
       0       0       0       0       0       0       0       0       0       0
       0       0       0       0       0       0       0       0       0       0
       0       0       0       0       0       0       0       0       0       0
       0       0       0       0       0       0       0       0       0       0
       0       0       0       0       0       0       0       0       0       0
       0       0       0       0       0       0       0       0       0       0
       0       0       0       0       0       0       0       0       0       0
       0       0       0       0       0       0       0       0       0       0
       0       0       0       0       0       0       0       0       0       0
       0       0       0       0       0       0       0       0       0       0
       0       0       0       0       0       0       0       0       0       0
       0       0       0       0       0       0       0       0       0       0
       0       0       0       0       0       0       0       0       0       0
       0       0       0       0       0       0       0       0       0       0
       0       0       0       0       0       0       0       0       0       0
       0       0       0       0       0       0       0       0       0       0
       0       0       0       0       0       0       0       0       0       0
       0       0       0       0       0       0       0       0       0       0
       0       0       0       0       0       0       0       0       0       0
       0       0       0       0       0       0       0       0       0       0
       0       0       0       0       0       0       0       0       0       0
       0       0       0       0       0       0       0       0       0       0
       0       0       0       0       0       0       0       0       0       0
       0       0       0       0       0       0       0       0       0       0
       0       0       0       0       0       0       0       0       0       0
       0       0       0       0       0       0       0       0       0       0
       0       0       0       0       0       0       0       0       0       0
       0       0       0       0       0       0       0       0       0       0
       0       0       0       0       0       0       0       0       0       0
       0       0       0       0       0       0       0       0       0       0
       0       0       0       0       0       0       0       0       0       0
       0       0       0       0       0       0       0       0       0       0
       0       0       0       0       0       0       0       0       0       0
       0       0       0       0       0       0       0       0       0       0
       0       0       0       0       0       0       0       0       0       0
       0       0       0       0       0       0       0       0       0       0
       0       0       0       0       0       0       0       0       0       0
       0       0       0       0       0       0       0       0       0       0
       0       0       0       0       0       0       0       0       0       0
       0       0       0       0       0       0       0       0       0       0
       0       0       0       0       0       0       0       0       0       0
       0       0       0       0       0       0       0       0       0       0
       0       0       0       0       0       0       0       0       0       0
       0       0       0       0       0       0       0       0       0       0
       0       0       0       0       0       0       0       0       0       0
       0       0       0       0       0       0       0       0       0       0
       0       0       0       0       0       0       0       0       0       0
       0       0       0       0       0       0       0       0       0       0
       0       0       0       0       0       0       0       0       0       0
       0       0       0       0       0       0       0       0       0       0
       0       0       0       0       0       0       0       0       0       0
       0       0       0       0       0       0       0       0       0       0
       0       0       0       0       0       0       0       0       0       0
       0       0       0       0       0       0       0       0       0       0
       0       0       0       0       0       0       0       0       0       0
       0       0       0       0       0       0       0       0       0       0
       0       0       0       0       0       0       0       0       0       0
       0       0       0       0       0       0       0       0       0       0
       0       0       0       0       0       0       0       0       0       0
       0       0       0       0       0       0       0       0       0       0
       0       0       0       0       0       0       0       0       0       0
       0       0       0       0       0       0       0       0       0       0
       0       0       0       0       0       0       0       0       0       0
       0       0       0       0       0       0       0       0       0       0
       0       0       0       0       0       0       0       0       0       0
       0       0       0       0       0       0       0       0       0       0
       0       0       0       0       0       0       0       0       0       0
       0       0       0       0       0       0       0       0       0       0
       0       0       0       0       0       0       0       0       0       0
       0       0       0       0       0       0       0       0       0       0
       0       0       0       0       0       0       0       0       0       0
       0       0       0       0       0       0       0       0       0       0
       0       0       0       0       0       0       0       0       0       0
       0       0       0       0       0       0       0       0       0       0
       0       0       0       0       0       0       0       0       0       0
       0       0       0       0       0       0       0       0       0       0
       0       0       0       0       0       0       0       0       0       0
       0       0       0       0       0       0       0       0       0       0
       0       0       0       0       0       0       0       0       0       0
       0       0       0       0       0       0       0       0       0       0
       0       0       0       0       0       0       0       0       0       0
       0       0       0       0       0       0       0       0       0       0
       0       0       0       0       0       0       0       0       0       0
       0       0       0       0       0       0       0       0       0       0
       0       0       0       0       0       0       0       0       0       0
       0       0       0       0       0       0       0       0       0       0
       0       0       0       0       0       0       0       0       0       0
       0       0       0       0       0       0       0       0       0       0
       0       0       0       0       0       0       0       0       0       0
       0       0       0       0       0       0       0       0       0       0
       0       0       0       0       0       0       0       0       0       0
       0       0       0       0       0       0       0       0       0       0
       0       0       0       0       0       0       0       0       0       0
       0       0       0       0       0       0       0       0       0       0
       0       0       0       0       0       0       0       0       0       0
       0       0       0       0       0       0       0       0       0       0
       0       0       0       0       0       0       0       0       0       0
       0       0       0       0       0       0       0       0       0       0
       0       0       0       0       0       0       0       0       0       0
       0       0       0       0       0       0       0       0       0       0
       0       0       0       0       0       0       0       0       0       0
       0       0       0       0       0       0       0       0       0       0
       0       0       0       0       0       0       0       0       0       0
       0       0       0       0       0       0       0       0       0       0
       0       0       0       0       0       0       0       0       0       0
       0       0       0       0       0       0       0       0       0       0
       0       0       0       0       0       0       0       0       0       0
       0       0       0       0       0       0       0       0       0       0
       0       0       0       0       0       0       0       0       0       0
       0       0       0       0       0       0       0       0       0       0
       0       0       0       0       0       0       0       0       0       0
       0       0       0       0       0       0       0       0       0       0
       0       0       0       0       0       0       0       0       0       0
       0       0       0       0       0       0       0       0       0       0
       0       0       0       0       0       0       0       0       0       0
       0       0       0       0       0       0       0       0       0       0
       0       0       0       0       0       0       0       0       0       0
       0       0       0       0       0       0       0       0       0       0
       0       0       0       0       0       0       0       0       0       0
       0       0       0       0       0       0       0       0       0       0
       0       0       0       0       0       0       0       0       0       0
       0       0       0       0       0       0       0       0       0       0
       0       0       0       0       0       0       0       0       0       0
       0       0       0       0       0       0       0       0       0       0
       0       0       0       0       0       0       0       0       0       0
       0       0       0       0       0       0       0       0       0       0
       0       0       0       0       0       0       0       0       0       0
       0       0       0       0       0       0       0       0       0       0
       0       0       0       0       0       0       0       0       0       0
       0       0       0       0       0       0       0       0       0       0
       0       0       0       0       0       0       0       0       0       0
       0       0       0       0       0       0       0       0       0       0
       0       0       0       0       0       0       0       0       0       0
       0       0       0       0       0       0       0       0       0       0
       0       0       0       0       0       0       0       0       0       0
       0       0       0       0       0       0       0       0       0       0
       0       0       0       0       0       0       0       0       0       0
       0       0       0       0       0       0       0       0       0       0
       0       0       0       0       0       0       0       0       0       0
       0       0       0       0       0       0       0       0       0       0
       0       0       0       0       0       0       0       0       0       0
       0       0       0       0       0       0       0       0       0       0
       0       0       0       0       0       0       0       0       0       0
       0       0       0       0       0       0       0       0       0       0
       0       0       0       0       0       0       0       0       0       0
       0       0       0       0       0       0       0       0       0       0
       0       0       0       0       0       0       0       0       0       0
       0       0       0       0       0       0       0       0       0       0
       0       0       0       0       0       0       0       0       0       0
       0       0       0       0       0       0       0       0       0       0
       0       0       0       0       0       0       0       0       0       0
       0       0       0       0       0       0       0       0       0       0
       0       0       0       0       0       0       0       0       0       0
       0       0       0       0       0       0       0       0       0       0
       0       0       0       0       0       0       0       0       0       0
       0       0       0       0       0       0       0       0       0       0
       0       0       0       0       0       0       0       0       0       0
       0       0       0       0       0       0       0       0       0       0
       0       0       0       0       0       0       0       0       0       0
       0       0       0       0       0       0       0       0       0       0
       0       0       0       0       0       0       0       0       0       0
       0       0       0       0       0       0       0       0       0       0
       0       0       0       0       0       0       0       0       0       0
       0       0       0       0       0       0       0       0       0       0
       0       0       0       0       0       0       0       0       0       0
       0       0       0       0       0       0       0       0       0       0
       0       0       0       0       0       0       0       0       0       0
       0       0       0       0       0       0       0       0       0       0
       0       0       0       0       0       0       0       0       0       0
       0       0       0       0       0       0       0       0       0       0
       0       0       0       0       0       0       0       0       0       0
       0       0       0       0       0       0       0       0       0       0
       0       0       0       0       0       0       0       0       0       0
       0       0       0       0       0       0       0       0       0       0
       0       0       0       0       0       0       0       0       0       0
       0       0       0       0       0       0       0       0       0       0
       0       0       0       0       0       0       0       0       0       0
       0       0       0       0       0       0       0       0       0       0
       0       0       0       0       0       0       0       0       0       0
       0       0       0       0       0       0       0       0       0       0
       0       0       0       0       0       0       0       0       0       0
       0       0       0       0       0       0       0       0       0       0
       0       0       0       0       0       0       0       0       0       0
       0       0       0       0       0       0       0       0       0       0
       0       0       0       0       0       0       0       0       0       0
       0       0       0       0       0       0       0       0       0       0
       0       0       0       0       0       0       0       0       0       0
       0       0       0       0       0       0       0       0       0       0
       0       0       0       0       0       0       0       0       0       0
       0       0       0       0       0       0       0       0       0       0
       0       0       0       0       0       0       0       0       0       0
       0       0       0       0       0       0       0       0       0       0
       0       0       0       0       0       0       0       0       0       0
       0       0       0       0       0       0       0       0       0       0
       0       0       0       0       0       0       0       0       0       0
       0       0       0       0       0       0       0       0       0       0
       0       0       0       0       0       0       0       0       0       0
       0       0       0       0       0       0       0       0       0       0
       0       0       0       0       0       0       0       0       0       0
       0       0       0       0       0       0       0       0       0       0
       0       0       0       0       0       0       0       0       0       0
       0       0       0       0       0       0       0       0       0       0
       0       0       0       0       0       0       0       0       0       0
       0       0       0       0       0       0       0       0       0       0
       0       0       0       0       0       0       0       0       0       0
       0       0       0       0       0       0       0       0       0       0
       0       0       0       0       0       0       0       0       0       0
       0       0       0       0       0       0       0       0       0       0
       0       0       0       0       0       0       0       0       0       0
       0       0       0       0       0       0       0       0       0       0
       0       0       0       0       0       0       0       0       0       0
       0       0       0       0       0       0       0       0       0       0
       0       0       0       0       0       0       0       0       0       0
       0       0       0       0       0       0       0       0       0       0
       0       0       0       0       0       0       0       0       0       0
       0       0       0       0       0       0       0       0       0       0
       0       0       0       0       0       0       0       0       0       0
       0       0       0       0       0       0       0       0       0       0
       0       0       0       0       0       0       0       0       0       0
       0       0       0       0       0       0       0       0       0       0
       0       0       0       0       0       0       0       0       0       0
       0       0       0       0       0       0       0       0       0       0
       0       0       0       0       0       0       0       0       0       0
       0       0       0       0       0       0       0       0       0       0
       0       0       0       0       0       0       0       0       0       0
       0       0       0       0       0       0       0       0       0       0
       0       0       0       0       0       0       0       0       0       0
       0       0       0       0       0       0       0       0       0       0
       0       0       0       0       0       0       0       0       0       0
       0       0       0       0       0       0       0       0       0       0
       0       0       0       0       0       0       0       0       0       0
       0       0       0       0       0       0       0       0       0       0
       0       0       0       0       0       0       0       0       0       0
       0       0       0       0       0       0       0       0       0       0
       0       0       0       0       0       0       0       0       0       0
       0       0       0       0       0       0       0       0       0       0
       0       0       0       0       0       0       0       0       0       0
       0       0       0       0       0       0       0       0       0       0
       0       0       0       0       0       0       0       0       0       0
       0       0       0       0       0       0       0       0       0       0
       0       0       0       0       0       0       0       0       0       0
       0       0       0       0       0       0       0       0       0       0
       0       0       0       0       0       0       0       0       0       0
       0       0       0       0       0       0       0       0       0       0
       0       0       0       0       0       0       0       0       0       0
       0       0       0       0       0       0       0       0       0       0
       0       0       0       0       0       0       0       0       0       0
       0       0       0       0       0       0       0       0       0       0
       0       0       0       0       0       0       0       0       0       0
       0       0       0       0       0       0       0       0       0       0
       0       0       0       0       0       0       0       0       0       0
       0       0       0       0       0       0       0       0       0       0
       0       0       0       0       0       0       0       0       0       0
       0       0       0       0       0       0       0       0       0       0
       0       0       0       0       0       0       0       0       0       0
       0       0       0       0       0       0       0       0       0       0
       0       0       0       0       0       0       0       0       0       0
       0       0       0       0       0       0       0       0       0       0
       0       0       0       0       0       0       0       0       0       0
       0       0       0       0       0       0       0       0       0       0
       0       0       0       0       0       0       0       0       0       0
       0       0       0       0       0       0       0       0       0       0
       0       0       0       0       0       0       0       0       0       0
       0       0       0       0       0       0       0       0       0       0
       0       0       0       0       0       0       0       0       0       0
       0       0       0       0       0       0       0       0       0       0
       0       0       0       0       0       0       0       0       0       0
       0       0       0       0       0       0       0       0       0       0
       0       0       0       0       0       0       0       0       0       0
       0       0       0       0       0       0       0       0       0       0
       0       0       0       0       0       0       0       0       0       0
       0       0       0       0       0       0       0       0       0       0
       0       0       0       0       0       0       0       0       0       0
       0       0       0       0       0       0       0       0       0       0
       0       0       0       0       0       0       0       0       0       0
       0       0       0       0       0       0       0       0       0       0
       0       0       0       0       0       0       0       0       0       0
       0       0       0       0       0       0       0       0       0       0
       0       0       0       0       0       0       0       0       0       0
       0       0       0       0       0       0       0       0       0       0
       0       0       0       0       0       0       0       0       0       0
       0       0       0       0       0       0       0       0       0       0
       0       0       0       0       0       0       0       0       0       0
       0       0       0       0       0       0       0       0       0       0
       0       0       0       0       0       0       0       0       0       0
       0       0       0       0       0       0       0       0       0       0
       0       0       0       0       0       0       0       0       0       0
       0       0       0       0       0       0       0       0       0       0
       0       0       0       0       0       0       0       0       0       0
       0       0       0       0       0       0       0       0       0       0
       0       0       0       0       0       0       0       0       0       0
       0       0       0       0       0       0       0       0       0       0
       0       0       0       0       0       0       0       0       0       0
       0       0       0       0       0       0       0       0       0       0
       0       0       0       0       0       0       0       0       0       0
       0       0       0       0       0       0       0       0       0       0
       0       0       0       0       0       0       0       0       0       0
       0       0       0       0       0       0       0       0       0       0
       0       0       0       0       0       0       0       0       0       0
       0       0       0       0       0       0       0       0       0       0
       0       0       0       0       0       0       0       0       0       0
       0       0       0       0       0       0       0       0       0       0
       0       0       0       0       0       0       0       0       0       0
       0       0       0       0       0       0       0       0       0       0
       0       0       0       0       0       0       0       0       0       0
       0       0       0       0       0       0       0       0       0       0
       0       0       0       0       0       0       0       0       0       0
       0       0       0       0       0       0       0       0       0       0
       0       0       0       0       0       0       0       0       0       0
       0       0       0       0       0       0       0       0       0       0
       0       0       0       0       0       0       0       0       0       0
       0       0       0       0       0       0       0       0       0       0
       0       0       0       0       0       0       0       0       0       0
       0       0       0       0       0       0       0       0       0       0
       0       0       0       0       0       0       0       0       0       0
       0       0       0       0       0       0       0       0       0       0
       0       0       0       0       0       0       0       0       0       0
       0       0       0       0       0       0       0       0       0       0
       0       0       0       0       0       0       0       0       0       0
       0       0       0       0       0       0       0       0       0       0
       0       0       0       0       0       0       0       0       0       0
       0       0       0       0       0       0       0       0       0       0
       0       0       0       0       0       0       0       0       0       0
       0       0       0       0       0       0       0       0       0       0
       0       0       0       0       0       0       0       0       0       0
       0       0       0       0       0       0       0       0       0       0
       0       0       0       0       0       0       0       0       0       0
       0       0       0       0       0       0       0       0       0       0
       0       0       0       0       0       0       0       0       0       0
       0       0       0       0       0       0       0       0       0       0
       0       0       0       0       0       0       0       0       0       0
       0       0       0       0       0       0       0       0       0       0
       0       0       0       0       0       0       0       0       0       0
       0       0       0       0       0       0       0       0       0       0
       0       0       0       0       0       0       0       0       0       0
       0       0       0       0       0       0       0       0       0       0
       0       0       0       0       0       0       0       0       0       0
       0       0       0       0       0       0       0       0       0       0
       0       0       0       0       0       0       0       0       0       0
       0       0       0       0       0       0       0       0       0       0
       0       0       0       0       0       0       0       0       0       0
       0       0       0       0       0       0       0       0       0       0
       0       0       0       0       0       0       0       0       0       0
       0       0       0       0       0       0       0       0       0       0
       0       0       0       0       0       0       0       0       0       0
       0       0       0       0       0       0       0       0       0       0
       0       0       0       0       0       0       0       0       0       0
       0       0       0       0       0       0       0       0       0       0
       0       0       0       0       0       0       0       0       0       0
       0       0       0       0       0       0       0       0       0       0
       0       0       0       0       0       0       0       0       0       0
       0       0       0       0       0       0       0       0       0       0
       0       0       0       0       0       0       0       0       0       0
       0       0       0       0       0       0       0       0       0       0
       0       0       0       0       0       0       0       0       0       0
       0       0       0       0       0       0       0       0       0       0
       0       0       0       0       0       0       0       0       0       0
       0       0       0       0       0       0       0       0       0       0
       0       0       0       0       0       0       0       0       0       0
       0       0       0       0       0       0       0       0       0       0
       0       0       0       0       0       0       0       0       0       0
       0       0       0       0       0       0       0       0       0       0
       0       0       0       0       0       0       0       0       0       0
       0       0       0       0       0       0       0       0       0       0
       0       0       0       0       0       0       0       0       0       0
       0       0       0       0       0       0       0       0       0       0
       0       0       0       0       0       0       0       0       0       0
       0       0       0       0       0       0       0       0       0       0
       0       0       0       0       0       0       0       0       0       0
       0       0       0       0       0       0       0       0       0       0
       0       0       0       0       0       0       0       0       0       0
       0       0       0       0       0       0       0       0       0       0
       0       0       0       0       0       0       0       0       0       0
       0       0       0       0       0       0       0       0       0       0
       0       0       0       0       0       0       0       0       0       0
       0       0       0       0       0       0       0       0       0       0
       0       0       0       0       0       0       0       0       0       0
       0       0       0       0       0       0       0       0       0       0
       0       0       0       0       0       0       0       0       0       0
       0       0       0       0       0       0       0       0       0       0
       0       0       0       0       0       0       0       0       0       0
       0       0       0       0       0       0       0       0       0       0
       0       0       0       0       0       0       0       0       0       0
       0       0       0       0       0       0       0       0       0       0
       0       0       0       0       0       0       0       0       0       0
       0       0       0       0       0       0       0       0       0       0
       0       0       0       0       0       0       0       0       0       0
       0       0       0       0       0       0       0       0       0       0
       0       0       0       0       0       0       0       0       0       0
       0       0       0       0       0       0       0       0       0       0
       0       0       0       0       0       0       0       0       0       0
       0       0       0       0       0       0       0       0       0       0
       0       0       0       0       0       0       0       0       0       0
       0       0       0       0       0       0       0       0       0       0
       0       0       0       0       0       0       0       0       0       0
       0       0       0       0       0       0       0       0       0       0
       0       0       0       0       0       0       0       0       0       0
       0       0       0       0       0       0       0       0       0       0
       0       0       0       0       0       0       0       0       0       0
       0       0       0       0       0       0       0       0       0       0
       0       0       0       0       0       0       0       0       0       0
       0       0       0       0       0       0       0       0       0       0
       0       0       0       0       0       0       0       0       0       0
       0       0       0       0       0       0       0       0       0       0
       0       0       0       0       0       0       0       0       0       0
       0       0       0       0       0       0       0       0       0       0
       0       0       0       0       0       0       0       0       0       0
       0       0       0       0       0       0       0       0       0       0
       0       0       0       0       0       0       0       0       0       0
       0       0       0       0       0       0       0       0       0       0
       0       0       0       0       0       0       0       0       0       0
       0       0       0       0       0       0       0       0       0       0
       0       0       0       0       0       0       0       0       0       0
       0       0       0       0       0       0       0       0       0       0
       0       0       0       0       0       0       0       0       0       0
       0       0       0       0       0       0       0       0       0       0
       0       0       0       0       0       0       0       0       0       0
       0       0       0       0       0       0       0       0       0       0
       0       0       0       0       0       0       0       0       0       0
       0       0       0       0       0       0       0       0       0       0
       0       0       0       0       0       0       0       0       0       0
       0       0       0       0       0       0       0       0       0       0
       0       0       0       0       0       0       0       0       0       0
       0       0       0       0       0       0       0       0       0       0
       0       0       0       0       0       0       0       0       0       0
       0       0       0       0       0       0       0       0       0       0
       0       0       0       0       0       0       0       0       0       0
       0       0       0       0       0       0       0       0       0       0
       0       0       0       0       0       0       0       0       0       0
       0       0       0       0       0       0       0       0       0       0
       0       0       0       0       0       0       0       0       0       0
       0       0       0       0       0       0       0       0       0       0
       0       0       0       0       0       0       0       0       0       0
       0       0       0       0       0       0       0       0       0       0
       0       0       0       0       0       0       0       0       0       0
       0       0       0       0       0       0       0       0       0       0
       0       0       0       0       0       0       0       0       0       0
       0       0       0       0       0       0       0       0       0       0
       0       0       0       0       0       0       0       0       0       0
       0       0       0       0       0       0       0       0       0       0
       0       0       0       0       0       0       0       0       0       0
       0       0       0       0       0       0       0       0       0       0
       0       0       0       0       0       0       0       0       0       0
       0       0       0       0       0       0       0       0       0       0
       0       0       0       0       0       0       0       0       0       0
       0       0       0       0       0       0       0       0       0       0
       0       0       0       0       0       0       0       0       0       0
       0       0       0       0       0       0       0       0       0       0
       0       0       0       0       0       0       0       0       0       0
       0       0       0       0       0       0       0       0       0       0
       0       0       0       0       0       0       0       0       0       0
       0       0       0       0       0       0       0       0       0       0
       0       0       0       0       0       0       0       0       0       0
       0       0       0       0       0       0       0       0       0       0
       0       0       0       0       0       0       0       0       0       0
       0       0       0       0       0       0       0       0       0       0
       0       0       0       0       0       0       0       0       0       0
       0       0       0       0       0       0       0       0       0       0
       0       0       0       0       0       0       0       0       0       0
       0       0       0       0       0       0       0       0       0       0
       0       0       0       0       0       0       0       0       0       0
       0       0       0       0       0       0       0       0       0       0
       0       0       0       0       0       0       0       0       0       0
       0       0       0       0       0       0       0       0       0       0
       0       0       0       0       0       0       0       0       0       0
       0       0       0       0       0       0       0       0       0       0
       0       0       0       0       0       0       0       0       0       0
       0       0       0       0       0       0       0       0       0       0
       0       0       0       0       0       0       0       0       0       0
       0       0       0       0       0       0       0       0       0       0
       0       0       0       0       0       0       0       0       0       0
       0       0       0       0       0       0       0       0       0       0
       0       0       0       0       0       0       0       0       0       0
       0       0       0       0       0       0       0       0       0       0
       0       0       0       0       0       0       0       0       0       0
       0       0       0       0       0       0       0       0       0       0
       0       0       0       0       0       0       0       0       0       0
       0       0       0       0       0       0       0       0       0       0
       0       0       0       0       0       0       0       0       0       0
       0       0       0       0       0       0       0       0       0       0
       0       0       0       0       0       0       0       0       0       0
       0       0       0       0       0       0       0       0       0       0
       0       0       0       0       0       0       0       0       0       0
       0       0       0       0       0       0       0       0       0       0
       0       0       0       0       0       0       0       0       0       0
       0       0       0       0       0       0       0       0       0       0
       0       0       0       0       0       0       0       0       0       0
       0       0       0       0       0       0       0       0       0       0
       0       0       0       0       0       0       0       0       0       0
       0       0       0       0       0       0       0       0       0       0
       0       0       0       0       0       0       0       0       0       0
       0       0       0       0       0       0       0       0       0       0
       0       0       0       0       0       0       0       0       0       0
       0       0       0       0       0       0       0       0       0       0
       0       0       0       0       0       0       0       0       0       0
       0       0       0       0       0       0       0       0       0       0
       0       0       0       0       0       0       0       0       0       0
       0       0       0       0       0       0       0       0       0       0
       0       0       0       0       0       0       0       0       0       0
       0       0       0       0       0       0       0       0       0       0
       0       0       0       0       0       0       0       0       0       0
       0       0       0       0       0       0       0       0       0       0
       0       0       0       0       0       0       0       0       0       0
       0       0       0       0       0       0       0       0       0       0
       0       0       0       0       0       0       0       0       0       0
       0       0       0       0       0       0       0       0       0       0
       0       0       0       0       0       0       0       0       0       0
       0       0       0       0       0       0       0       0       0       0
       0       0       0       0       0       0       0       0       0       0
       0       0       0       0       0       0       0       0       0       0
       0       0       0       0       0       0       0       0       0       0
       0       0       0       0       0       0       0       0       0       0
       0       0       0       0       0       0       0       0       0       0
       0       0       0       0       0       0       0       0       0       0
       0       0       0       0       0       0       0       0       0       0
       0       0       0       0       0       0       0       0       0       0
       0       0       0       0       0       0       0       0       0       0
       0       0       0       0       0       0       0       0       0       0
       0       0       0       0       0       0       0       0       0       0
       0       0       0       0       0       0       0       0       0       0
       0       0       0       0       0       0       0       0       0       0
       0       0       0       0       0       0       0       0       0       0
       0       0       0       0       0       0       0       0       0       0
       0       0       0       0       0       0       0       0       0       0
       0       0       0       0       0       0       0       0       0       0
       0       0       0       0       0       0       0       0       0       0
       0       0       0       0       0       0       0       0       0       0
       0       0       0       0       0       0       0       0       0       0
       0       0       0       0       0       0       0       0       0       0
       0       0       0       0       0       0       0       0       0       0
       0       0       0       0       0       0       0       0       0       0
       0       0       0       0       0       0       0       0       0       0
       0       0       0       0       0       0       0       0       0       0
       0       0       0       0       0       0       0       0       0       0
       0       0       0       0       0       0       0       0       0       0
       0       0       0       0       0       0       0       0       0       0
       0       0       0       0       0       0       0       0       0       0
       0       0       0       0       0       0       0       0       0       0
       0       0       0       0       0       0       0       0       0       0
       0       0       0       0       0       0       0       0       0       0
       0       0       0       0       0       0       0       0       0       0
       0       0       0       0       0       0       0       0       0       0
       0       0       0       0       0       0       0       0       0       0
       0       0       0       0       0       0       0       0       0       0
       0       0       0       0       0       0       0       0       0       0
       0       0       0       0       0       0       0       0       0       0
       0       0       0       0       0       0       0       0       0       0
       0       0       0       0       0       0       0       0       0       0
       0       0       0       0       0       0       0       0       0       0
       0       0       0       0       0       0       0       0       0       0
       0       0       0       0       0       0       0       0       0       0
       0       0       0       0       0       0       0       0       0       0
       0       0       0       0       0       0       0       0       0       0
       0       0       0       0       0       0       0       0       0       0
       0       0       0       0       0       0       0       0       0       0
       0       0       0       0       0       0       0       0       0       0
       0       0       0       0       0       0       0       0       0       0
       0       0       0       0       0       0       0       0       0       0
       0       0       0       0       0       0       0       0       0       0
       0       0       0       0       0       0       0       0       0       0
       0       0       0       0       0       0       0       0       0       0
       0       0       0       0       0       0       0       0       0       0
       0       0       0       0       0       0       0       0       0       0
       0       0       0       0       0       0       0       0       0       0
       0       0       0       0       0       0       0       0       0       0
       0       0       0       0       0       0       0       0       0       0
       0       0       0       0       0       0       0       0       0       0
       0       0       0       0       0       0       0       0       0       0
       0       0       0       0       0       0       0       0       0       0
       0       0       0       0       0       0       0       0       0       0
       0       0       0       0       0       0       0       0       0       0
       0       0       0       0       0       0       0       0       0       0
       0       0       0       0       0       0       0       0       0       0
       0       0       0       0       0       0       0       0       0       0
       0       0       0       0       0       0       0       0       0       0
       0       0       0       0       0       0       0       0       0       0
       0       0       0       0       0       0       0       0       0       0
       0       0       0       0       0       0       0       0       0       0
       0       0       0       0       0       0       0       0       0       0
       0       0       0       0       0       0       0       0       0       0
       0       0       0       0       0       0       0       0       0       0
       0       0       0       0       0       0       0       0       0       0
       0       0       0       0       0       0       0       0       0       0
       0       0       0       0       0       0       0       0       0       0
       0       0       0       0       0       0       0       0       0       0
       0       0       0       0       0       0       0       0       0       0
       0       0       0       0       0       0       0       0       0       0
       0       0       0       0       0       0       0       0       0       0
       0       0       0       0       0       0       0       0       0       0
       0       0       0       0       0       0       0       0       0       0
       0       0       0       0       0       0       0       0       0       0
       0       0       0       0       0       0       0       0       0       0
       0       0       0       0       0       0       0       0       0       0
       0       0       0       0       0       0       0       0       0       0
       0       0       0       0       0       0       0       0       0       0
       0       0       0       0       0       0       0       0       0       0
       0       0       0       0       0       0       0       0       0       0
       0       0       0       0       0       0       0       0       0       0
       0       0       0       0       0       0       0       0       0       0
       0       0       0       0       0       0       0       0       0       0
       0       0       0       0       0       0       0       0       0       0
       0       0       0       0       0       0       0       0       0       0
       0       0       0       0       0       0       0       0       0       0
       0       0       0       0       0       0       0       0       0       0
       0       0       0       0       0       0       0       0       0       0
       0       0       0       0       0       0       0       0       0       0
       0       0       0       0       0       0       0       0       0       0
       0       0       0       0       0       0       0       0       0       0
       0       0       0       0       0       0       0       0       0       0
       0       0       0       0       0       0       0       0       0       0
       0       0       0       0       0       0       0       0       0       0
       0       0       0       0       0       0       0       0       0       0
       0       0       0       0       0       0       0       0       0       0
       0       0       0       0       0       0       0       0       0       0
       0       0       0       0       0       0       0       0       0       0
       0       0       0       0       0       0       0       0       0       0
       0       0       0       0       0       0       0       0       0       0
       0       0       0       0       0       0       0       0       0       0
       0       0       0       0       0       0       0       0       0       0
       0       0       0       0       0       0       0       0       0       0
       0       0       0       0       0       0       0       0       0       0
       0       0       0       0       0       0       0       0       0       0
       0       0       0       0       0       0       0       0       0       0
       0       0       0       0       0       0       0       0       0       0
       0       0       0       0       0       0       0       0       0       0
       0       0       0       0       0       0       0       0       0       0
       0       0       0       0       0       0       0       0       0       0
       0       0       0       0       0       0       0       0       0       0
       0       0       0       0       0       0       0       0       0       0
       0       0       0       0       0       0       0       0       0       0
       0       0       0       0       0       0       0       0       0       0
       0       0       0       0       0       0       0       0       0       0
       0       0       0       0       0       0       0       0       0       0
       0       0       0       0       0       0       0       0       0       0
       0       0       0       0       0       0       0       0       0       0
       0       0       0       0       0       0       0       0       0       0
       0       0       0       0       0       0       0       0       0       0
       0       0       0       0       0       0       0       0       0       0
       0       0       0       0       0       0       0       0       0       0
       0       0       0       0       0       0       0       0       0       0
       0       0       0       0       0       0       0       0       0       0
       0       0       0       0       0       0       0       0       0       0
       0       0       0       0       0       0       0       0       0       0
       0       0       0       0       0       0       0       0       0       0
       0       0       0       0       0       0       0       0       0       0
       0       0       0       0       0       0       0       0       0       0
       0       0       0       0       0       0       0       0       0       0
       0       0       0       0       0       0       0       0       0       0
       0       0       0       0       0       0       0       0       0       0
       0       0       0       0       0       0       0       0       0       0
       0       0       0       0       0       0       0       0       0       0
       0       0       0       0       0       0       0       0       0       0
       0       0       0       0       0       0       0       0       0       0
       0       0       0       0       0       0       0       0       0       0
       0       0       0       0       0       0       0       0       0       0
       0       0       0       0       0       0       0       0       0       0
       0       0       0       0       0       0       0       0       0       0
       0       0       0       0       0       0       0       0       0       0
       0       0       0       0       0       0       0       0       0       0
       0       0       0       0       0       0       0       0       0       0
       0       0       0       0       0       0       0       0       0       0
       0       0       0       0       0       0       0       0       0       0
       0       0       0       0       0       0       0       0       0       0
       0       0       0       0       0       0       0       0       0       0
       0       0       0       0       0       0       0       0       0       0
       0       0       0       0       0       0       0       0       0       0
       0       0       0       0       0       0       0       0       0       0
       0       0       0       0       0       0       0       0       0       0
       0       0       0       0       0       0       0       0       0       0
       0       0       0       0       0       0       0       0       0       0
       0       0       0       0       0       0       0       0       0       0
       0       0       0       0       0       0       0       0       0       0
       0       0       0       0       0       0       0       0       0       0
       0       0       0       0       0       0       0       0       0       0
       0       0       0       0       0       0       0       0       0       0
       0       0       0       0       0       0       0       0       0       0
       0       0       0       0       0       0       0       0       0       0
       0       0       0       0       0       0       0       0       0       0
       0       0       0       0       0       0       0       0       0       0
       0       0       0       0       0       0       0       0       0       0
       0       0       0       0       0       0       0       0       0       0
       0       0       0       0       0       0       0       0       0       0
       0       0       0       0       0       0       0       0       0       0
       0       0       0       0       0       0       0       0       0       0
       0       0       0       0       0       0       0       0       0       0
       0       0       0       0       0       0       0       0       0       0
       0       0       0       0       0       0       0       0       0       0
       0       0       0       0       0       0       0       0       0       0
       0       0       0       0       0       0       0       0       0       0
       0       0       0       0       0       0       0       0       0       0
       0       0       0       0       0       0       0       0       0       0
       0       0       0       0       0       0       0       0       0       0
       0       0       0       0       0       0       0       0       0       0
       0       0       0       0       0       0       0       0       0       0
       0       0       0       0       0       0       0       0       0       0
       0       0       0       0       0       0       0       0       0       0
       0       0       0       0       0       0       0       0       0       0
       0       0       0       0       0       0       0       0       0       0
       0       0       0       0       0       0       0       0       0       0
       0       0       0       0       0       0       0       0       0       0
       0       0       0       0       0       0       0       0       0       0
       0       0       0       0       0       0       0       0       0       0
       0       0       0       0       0       0       0       0       0       0
       0       0       0       0       0       0       0       0       0       0
       0       0       0       0       0       0       0       0       0       0
       0       0       0       0       0       0       0       0       0       0
       0       0       0       0       0       0       0       0       0       0
       0       0       0       0       0       0       0       0       0       0
       0       0       0       0       0       0       0       0       0       0
       0       0       0       0       0       0       0       0       0       0
       0       0       0       0       0       0       0       0       0       0
       0       0       0       0       0       0       0       0       0       0
       0       0       0       0       0       0       0       0       0       0
       0       0       0       0       0       0       0       0       0       0
       0       0       0       0       0       0       0       0       0       0
       0       0       0       0       0       0       0       0       0       0
       0       0       0       0       0       0       0       0       0       0
       0       0       0       0       0       0       0       0       0       0
       0       0       0       0       0       0       0       0       0       0
       0       0       0       0       0       0       0       0       0       0
       0       0       0       0       0       0       0       0       0       0
       0       0       0       0       0       0       0       0       0       0
       0       0       0       0       0       0       0       0       0       0
       0       0       0       0       0       0       0       0       0       0
       0       0       0       0       0       0       0       0       0       0
       0       0       0       0       0       0       0       0       0       0
       0       0       0       0       0       0       0       0       0       0
       0       0       0       0       0       0       0       0       0       0
       0       0       0       0       0       0       0       0       0       0
       0       0       0       0       0       0       0       0       0       0
       0       0       0       0       0       0       0       0       0       0
       0       0       0       0       0       0       0       0       0       0
       0       0       0       0       0       0       0       0       0       0
       0       0       0       0       0       0       0       0       0       0
       0       0       0       0       0       0       0       0       0       0
       0       0       0       0       0       0       0       0       0       0
       0       0       0       0       0       0       0       0       0       0
       0       0       0       0       0       0       0       0       0       0
       0       0       0       0       0       0       0       0       0       0
       0       0       0       0       0       0       0       0       0       0
       0       0       0       0       0       0       0       0       0       0
       0       0       0       0       0       0       0       0       0       0
       0       0       0       0       0       0       0       0       0       0
       0       0       0       0       0       0       0       0       0       0
       0       0       0       0       0       0       0       0       0       0
       0       0       0       0       0       0       0       0       0       0
       0       0       0       0       0       0       0       0       0       0
       0       0       0       0       0       0       0       0       0       0
       0       0       0       0       0       0       0       0       0       0
       0       0       0       0       0       0       0       0       0       0
       0       0       0       0       0       0       0       0       0       0
       0       0       0       0       0       0       0       0       0       0
       0       0       0       0       0       0       0       0       0       0
       0       0       0       0       0       0       0       0       0       0
       0       0       0       0       0       0       0       0       0       0
       0       0       0       0       0       0       0       0       0       0
       0       0       0       0       0       0       0       0       0       0
       0       0       0       0       0       0       0       0       0       0
       0       0       0       0       0       0       0       0       0       0
       0       0       0       0       0       0       0       0       0       0
       0       0       0       0       0       0       0       0       0       0
       0       0       0       0       0       0       0       0       0       0
       0       0       0       0       0       0       0       0       0       0
       0       0       0       0       0       0       0       0       0       0
       0       0       0       0       0       0       0       0       0       0
       0       0       0       0       0       0       0       0       0       0
       0       0       0       0       0       0       0       0       0       0
       0       0       0       0       0       0       0       0       0       0
       0       0       0       0       0       0       0       0       0       0
       0       0       0       0       0       0       0       0       0       0
       0       0       0       0       0       0       0       0       0       0
       0       0       0       0       0       0       0       0       0       0
       0       0       0       0       0       0       0       0       0       0
       0       0       0       0       0       0       0       0       0       0
       0       0       0       0       0       0       0       0       0       0
       0       0       0       0       0       0       0       0       0       0
       0       0       0       0       0       0       0       0       0       0
       0       0       0       0       0       0       0       0       0       0
       0       0       0       0       0       0       0       0       0       0
       0       0       0       0       0       0       0       0       0       0
       0       0       0       0       0       0       0       0       0       0
       0       0       0       0       0       0       0       0       0       0
       0       0       0       0       0       0       0       0       0       0
       0       0       0       0       0       0       0       0       0       0
       0       0       0       0       0       0       0       0       0       0
       0       0       0       0       0       0       0       0       0       0
       0       0       0       0       0       0       0       0       0       0
       0       0       0       0       0       0       0       0       0       0
       0       0       0       0       0       0       0       0       0       0
       0       0       0       0       0       0       0       0       0       0
       0       0       0       0       0       0       0       0       0       0
       0       0       0       0       0       0       0       0       0       0
       0       0       0       0       0       0       0       0       0       0
       0       0       0       0       0       0       0       0       0       0
       0       0       0       0       0       0       0       0       0       0
       0       0       0       0       0       0       0       0       0       0
       0       0       0       0       0       0       0       0       0       0
       0       0       0       0       0       0       0       0       0       0
       0       0       0       0       0       0       0       0       0       0
       0       0       0       0       0       0       0       0       0       0
       0       0       0       0       0       0       0       0       0       0
       0       0       0       0       0       0       0       0       0       0
       0       0       0       0       0       0       0       0       0       0
       0       0       0       0       0       0       0       0       0       0
       0       0       0       0       0       0       0       0       0       0
       0       0       0       0       0       0       0       0       0       0
       0       0       0       0       0       0       0       0       0       0
       0       0       0       0       0       0       0       0       0       0
       0       0       0       0       0       0       0       0       0       0
       0       0       0       0       0       0       0       0       0       0
       0       0       0       0       0       0       0       0       0       0
       0       0       0       0       0       0       0       0       0       0
       0       0       0       0       0       0       0       0       0       0
       0       0       0       0       0       0       0       0       0       0
       0       0       0       0       0       0       0       0       0       0
       0       0       0       0       0       0       0       0       0       0
       0       0       0       0       0       0       0       0       0       0
       0       0       0       0       0       0       0       0       0       0
       0       0       0       0       0       0       0       0       0       0
       0       0       0       0       0       0       0       0       0       0
       0       0       0       0       0       0       0       0       0       0
       0       0       0       0       0       0       0       0       0       0
       0       0       0       0       0       0       0       0       0       0
       0       0       0       0       0       0       0       0       0       0
       0       0       0       0       0       0       0       0       0       0
       0       0       0       0       0       0       0       0       0       0
       0       0       0       0       0       0       0       0       0       0
       0       0       0       0       0       0       0       0       0       0
       0       0       0       0       0       0       0       0       0       0
       0       0       0       0       0       0       0       0       0       0
       0       0       0       0       0       0       0       0       0       0
       0       0       0       0       0       0       0       0       0       0
       0       0       0       0       0       0       0       0       0       0
       0       0       0       0       0       0       0       0       0       0
       0       0       0       0       0       0       0       0       0       0
       0       0       0       0       0       0       0       0       0       0
       0       0       0       0       0       0       0       0       0       0
       0       0       0       0       0       0       0       0       0       0
       0       0       0       0       0       0       0       0       0       0
       0       0       0       0       0       0       0       0       0       0
       0       0       0       0       0       0       0       0       0       0
       0       0       0       0       0       0       0       0       0       0
       0       0       0       0       0       0       0       0       0       0
       0       0       0       0       0       0       0       0       0       0
       0       0       0       0       0       0       0       0       0       0
       0       0       0       0       0       0       0       0       0       0
       0       0       0       0       0       0       0       0       0       0
       0       0       0       0       0       0       0       0       0       0
       0       0       0       0       0       0       0       0       0       0
       0       0       0       0       0       0       0       0       0       0
       0       0       0       0       0       0       0       0       0       0
       0       0       0       0       0       0       0       0       0       0
       0       0       0       0       0       0       0       0       0       0
       0       0       0       0       0       0       0       0       0       0
       0       0       0       0       0       0       0       0       0       0
       0       0       0       0       0       0       0       0       0       0
       0       0       0       0       0       0       0       0       0       0
       0       0       0       0       0       0       0       0       0       0
       0       0       0       0       0       0       0       0       0       0
       0       0       0       0       0       0       0       0       0       0
       0       0       0       0       0       0       0       0       0       0
       0       0       0       0       0       0       0       0       0       0
       0       0       0       0       0       0       0       0       0       0
       0       0       0       0       0       0       0       0       0       0
       0       0       0       0       0       0       0       0       0       0
       0       0       0       0       0       0       0       0       0       0
       0       0       0       0       0       0       0       0       0       0
       0       0       0       0       0       0       0       0       0       0
       0       0       0       0       0       0       0       0       0       0
       0       0       0       0       0       0       0       0       0       0
       0       0       0       0       0       0       0       0       0       0
       0       0       0       0       0       0       0       0       0       0
       0       0       0       0       0       0       0       0       0       0
       0       0       0       0       0       0       0       0       0       0
       0       0       0       0       0       0       0       0       0       0
       0       0       0       0       0       0       0       0       0       0
       0       0       0       0       0       0       0       0       0       0
       0       0       0       0       0       0       0       0       0       0
       0       0       0       0       0       0       0       0       0       0
       0       0       0       0       0       0       0       0       0       0
       0       0       0       0       0       0       0       0       0       0
       0       0       0       0       0       0       0       0       0       0
       0       0       0       0       0       0       0       0       0       0
       0       0       0       0       0       0       0       0       0       0
       0       0       0       0       0       0       0       0       0       0
       0       0       0       0       0       0       0       0       0       0
       0       0       0       0       0       0       0       0       0       0
       0       0       0       0       0       0       0       0       0       0
       0       0       0       0       0       0       0       0       0       0
       0       0       0       0       0       0       0       0       0       0
       0       0       0       0       0       0       0       0       0       0
       0       0       0       0       0       0       0       0       0       0
       0       0       0       0       0       0       0       0       0       0
       0       0       0       0       0       0       0       0       0       0
       0       0       0       0       0       0       0       0       0       0
       0       0       0       0       0       0       0       0       0       0
       0       0       0       0       0       0       0       0       0       0
       0       0       0       0       0       0       0       0       0       0
       0       0       0       0       0       0       0       0       0       0
       0       0       0       0       0       0       0       0       0       0
       0       0       0       0       0       0       0       0       0       0
       0       0       0       0       0       0       0       0       0       0
       0       0       0       0       0       0       0       0       0       0
       0       0       0       0       0       0       0       0       0       0
       0       0       0       0       0       0       0       0       0       0
       0       0       0       0       0       0       0       0       0       0
       0       0       0       0       0       0       0       0       0       0
       0       0       0       0       0       0       0       0       0       0
       0       0       0       0       0       0       0       0       0       0
       0       0       0       0       0       0       0       0       0       0
       0       0       0       0       0       0       0       0       0       0
       0       0       0       0       0       0       0       0       0       0
       0       0       0       0       0       0       0       0       0       0
       0       0       0       0       0       0       0       0       0       0
       0       0       0       0       0       0       0       0       0       0
       0       0       0       0       0       0       0       0       0       0
       0       0       0       0       0       0       0       0       0       0
       0       0       0       0       0       0       0       0       0       0
       0       0       0       0       0       0       0       0       0       0
       0       0       0       0       0       0       0       0       0       0
       0       0       0       0       0       0       0       0       0       0
       0       0       0       0       0       0       0       0       0       0
       0       0       0       0       0       0       0       0       0       0
       0       0       0       0       0       0       0       0       0       0
       0       0       0       0       0       0       0       0       0       0
       0       0       0       0       0       0       0       0       0       0
       0       0       0       0       0       0       0       0       0       0
       0       0       0       0       0       0       0       0       0       0
       0       0       0       0       0       0       0       0       0       0
       0       0       0       0       0       0       0       0       0       0
       0       0       0       0       0       0       0       0       0       0
       0       0       0       0       0       0       0       0       0       0
       0       0       0       0       0       0       0       0       0       0
       0       0       0       0       0       0       0       0       0       0
       0       0       0       0       0       0       0       0       0       0
       0       0       0       0       0       0       0       0       0       0
       0       0       0       0       0       0       0       0       0       0
       0       0       0       0       0       0       0       0       0       0
       0       0       0       0       0       0       0       0       0       0
       0       0       0       0       0       0       0       0       0       0
       0       0       0       0       0       0       0       0       0       0
       0       0       0       0       0       0       0       0       0       0
       0       0       0       0       0       0       0       0       0       0
       0       0       0       0       0       0       0       0       0       0
       0       0       0       0       0       0       0       0       0       0
       0       0       0       0       0       0       0       0       0       0
       0       0       0       0       0       0       0       0       0       0
       0       0       0       0       0       0       0       0       0       0
       0       0       0       0       0       0       0       0       0       0
       0       0       0       0       0       0       0       0       0       0
       0       0       0       0       0       0       0       0       0       0
       0       0       0       0       0       0       0       0       0       0
       0       0       0       0       0       0       0       0       0       0
       0       0       0       0       0       0       0       0       0       0
       0       0       0       0       0       0       0       0       0       0
       0       0       0       0       0       0       0       0       0       0
       0       0       0       0       0       0       0       0       0       0
       0       0       0       0       0       0       0       0       0       0
       0       0       0       0       0       0       0       0       0       0
       0       0       0       0       0       0       0       0       0       0
       0       0       0       0       0       0       0       0       0       0
       0       0       0       0       0       0       0       0       0       0
       0       0       0       0       0       0       0       0       0       0
       0       0       0       0       0       0       0       0       0       0
       0       0       0       0       0       0       0       0       0       0
       0       0       0       0       0       0       0       0       0       0
       0       0       0       0       0       0       0       0       0       0
       0       0       0       0       0       0       0       0       0       0
       0       0       0       0       0       0       0       0       0       0
       0       0       0       0       0       0       0       0       0       0
       0       0       0       0       0       0       0       0       0       0
       0       0       0       0       0       0       0       0       0       0
       0       0       0       0       0       0       0       0       0       0
       0       0       0       0       0       0       0       0       0       0
       0       0       0       0       0       0       0       0       0       0
       0       0       0       0       0       0       0       0       0       0
       0       0       0       0       0       0       0       0       0       0
       0       0       0       0       0       0       0       0       0       0
       0       0       0       0       0       0       0       0       0       0
       0       0       0       0       0       0       0       0       0       0
       0       0       0       0       0       0       0       0       0       0
       0       0       0       0       0       0       0       0       0       0
       0       0       0       0       0       0       0       0       0       0
       0       0       0       0       0       0       0       0       0       0
       0       0       0       0       0       0       0       0       0       0
       0       0       0       0       0       0       0       0       0       0
       0       0       0       0       0       0       0       0       0       0
       0       0       0       0       0       0       0       0       0       0
       0       0       0       0       0       0       0       0       0       0
       0       0       0       0       0       0       0       0       0       0
       0       0       0       0       0       0       0       0       0       0
       0       0       0       0       0       0       0       0       0       0
       0       0       0       0       0       0       0       0       0       0
       0       0       0       0       0       0       0       0       0       0
       0       0       0       0       0       0       0       0       0       0
       0       0       0       0       0       0       0       0       0       0
       0       0       0       0       0       0       0       0       0       0
       0       0       0       0       0       0       0       0       0       0
       0       0       0       0       0       0       0       0       0       0
       0       0       0       0       0       0       0       0       0       0
       0       0       0       0       0       0       0       0       0       0
       0       0       0       0       0       0       0       0       0       0
       0       0       0       0       0       0       0       0       0       0
       0       0       0       0       0       0       0       0       0       0
       0       0       0       0       0       0       0       0       0       0
       0       0       0       0       0       0       0       0       0       0
       0       0       0       0       0       0       0       0       0       0
       0       0       0       0       0       0       0       0       0       0
       0       0       0       0       0       0       0       0       0       0
       0       0       0       0       0       0       0       0       0       0
       0       0       0       0       0       0       0       0       0       0
       0       0       0       0       0       0       0       0       0       0
       0       0       0       0       0       0       0       0       0       0
       0       0       0       0       0       0       0       0       0       0
       0       0       0       0       0       0       0       0       0       0
       0       0       0       0       0       0       0       0       0       0
       0       0       0       0       0       0       0       0       0       0
       0       0       0       0       0       0       0       0       0       0
       0       0       0       0       0       0       0       0       0       0
       0       0       0       0       0       0       0       0       0       0
       0       0       0       0       0       0       0       0       0       0
       0       0       0       0       0       0       0       0       0       0
       0       0       0       0       0       0       0       0       0       0
       0       0       0       0       0       0       0       0       0       0
       0       0       0       0       0       0       0       0       0       0
       0       0       0       0       0       0       0       0       0       0
       0       0       0       0       0       0       0       0       0       0
       0       0       0       0       0       0       0       0       0       0
       0       0       0       0       0       0       0       0       0       0
       0       0       0       0       0       0       0       0       0       0
       0       0       0       0       0       0       0       0       0       0
       0       0       0       0       0       0       0       0       0       0
       0       0       0       0       0       0       0       0       0       0
       0       0       0       0       0       0       0       0       0       0
       0       0       0       0       0       0       0       0       0       0
       0       0       0       0       0       0       0       0       0       0
       0       0       0       0       0       0       0       0       0       0
       0       0       0       0       0       0       0       0       0       0
       0       0       0       0       0       0       0       0       0       0
       0       0       0       0       0       0       0       0       0       0
       0       0       0       0       0       0       0       0       0       0
       0       0       0       0       0       0       0       0       0       0
       0       0       0       0       0       0       0       0       0       0
       0       0       0       0       0       0       0       0       0       0
       0       0       0       0       0       0       0       0       0       0
       0       0       0       0       0       0       0       0       0       0
       0       0       0       0       0       0       0       0       0       0
       0       0       0       0       0       0       0       0       0       0
       0       0       0       0       0       0       0       0       0       0
       0       0       0       0       0       0       0       0       0       0
       0       0       0       0       0       0       0       0       0       0
       0       0       0       0       0       0       0       0       0       0
       0       0       0       0       0       0       0       0       0       0
       0       0       0       0       0       0       0       0       0       0
       0       0       0       0       0       0       0       0       0       0
       0       0       0       0       0       0       0       0       0       0
       0       0       0       0       0       0       0       0       0       0
       0       0       0       0       0       0       0       0       0       0
       0       0       0       0       0       0       0       0       0       0
       0       0       0       0       0       0       0       0       0       0
       0       0       0       0       0       0       0       0       0       0
       0       0       0       0       0       0       0       0       0       0
       0       0       0       0       0       0       0       0       0       0
       0       0       0       0       0       0       0       0       0       0
       0       0       0       0       0       0       0       0       0       0
       0       0       0       0       0       0       0       0       0       0
       0       0       0       0       0       0       0       0       0       0
       0       0       0       0       0       0       0       0       0       0
       0       0       0       0       0       0       0       0       0       0
       0       0       0       0       0       0       0       0       0       0
       0       0       0       0       0       0       0       0       0       0
       0       0       0       0       0       0       0       0       0       0
       0       0       0       0       0       0       0       0       0       0
       0       0       0       0       0       0       0       0       0       0
       0       0       0       0       0       0       0       0       0       0
       0       0       0       0       0       0       0       0       0       0
       0       0       0       0       0       0       0       0       0       0
       0       0       0       0       0       0       0       0       0       0
       0       0       0       0       0       0       0       0       0       0
       0       0       0       0       0       0       0       0       0       0
       0       0       0       0       0       0       0       0       0       0
       0       0       0       0       0       0       0       0       0       0
       0       0       0       0       0       0       0       0       0       0
       0       0       0       0       0       0       0       0       0       0
       0       0       0       0       0       0       0       0       0       0
       0       0       0       0       0       0       0       0       0       0
       0       0       0       0       0       0       0       0       0       0
       0       0       0       0       0       0       0       0       0       0
       0       0       0       0       0       0       0       0       0       0
       0       0       0       0       0       0       0       0       0       0
       0       0       0       0       0       0       0       0       0       0
       0       0       0       0       0       0       0       0       0       0
       0       0       0       0       0       0       0       0       0       0
       0       0       0       0       0       0       0       0       0       0
       0       0       0       0       0       0       0       0       0       0
       0       0       0       0       0       0       0       0       0       0
       0       0       0       0       0       0       0       0       0       0
       0       0       0       0       0       0       0       0       0       0
       0       0       0       0       0       0       0       0       0       0
       0       0       0       0       0       0       0       0       0       0
       0       0       0       0       0       0       0       0       0       0
       0       0       0       0       0       0       0       0       0       0
       0       0       0       0       0       0       0       0       0       0
       0       0       0       0       0       0       0       0       0       0
       0       0       0       0       0       0       0       0       0       0
       0       0       0       0       0       0       0       0       0       0
       0       0       0       0       0       0       0       0       0       0
       0       0       0       0       0       0       0       0       0       0
       0       0       0       0       0       0       0       0       0       0
       0       0       0       0       0       0       0       0       0       0
       0       0       0       0       0       0       0       0       0       0
       0       0       0       0       0       0       0       0       0       0
       0       0       0       0       0       0       0       0       0       0
       0       0       0       0       0       0       0       0       0       0
       0       0       0       0       0       0       0       0       0       0
       0       0       0       0       0       0       0       0       0       0
       0       0       0       0       0       0       0       0       0       0
       0       0       0       0       0       0       0       0       0       0
       0       0       0       0       0       0       0       0       0       0
       0       0       0       0       0       0       0       0       0       0
       0       0       0       0       0       0       0       0       0       0
       0       0       0       0       0       0       0       0       0       0
       0       0       0       0       0       0       0       0       0       0
       0       0       0       0       0       0       0       0       0       0
       0       0       0       0       0       0       0       0       0       0
       0       0       0       0       0       0       0       0       0       0
       0       0       0       0       0       0       0       0       0       0
       0       0       0       0       0       0       0       0       0       0
       0       0       0       0       0       0       0       0       0       0
       0       0       0       0       0       0       0       0       0       0
       0       0       0       0       0       0       0       0       0       0
       0       0       0       0       0       0       0       0       0       0
       0       0       0       0       0       0       0       0       0       0
       0       0       0       0       0       0       0       0       0       0
       0       0       0       0       0       0       0       0       0       0
       0       0       0       0       0       0       0       0       0       0
       0       0       0       0       0       0       0       0       0       0
       0       0       0       0       0       0       0       0       0       0
       0       0       0       0       0       0       0       0       0       0
       0       0       0       0       0       0       0       0       0       0
       0       0       0       0       0       0       0       0       0       0
       0       0       0       0       0       0       0       0       0       0
       0       0       0       0       0       0       0       0       0       0
       0       0       0       0       0       0       0       0       0       0
       0       0       0       0       0       0       0       0       0       0
       0       0       0       0       0       0       0       0       0       0
       0       0       0       0       0       0       0       0       0       0
       0       0       0       0       0       0       0       0       0       0
       0       0       0       0       0       0       0       0       0       0
       0       0       0       0       0       0       0       0       0       0
       0       0       0       0       0       0       0       0       0       0
       0       0       0       0       0       0       0       0       0       0
       0       0       0       0       0       0       0       0       0       0
       0       0       0       0       0       0       0       0       0       0
       0       0       0       0       0       0       0       0       0       0
       0       0       0       0       0       0       0       0       0       0
       0       0       0       0       0       0       0       0       0       0
       0       0       0       0       0       0       0       0       0       0
       0       0       0       0       0       0       0       0       0       0
       0       0       0       0       0       0       0       0       0       0
       0       0       0       0       0       0       0       0       0       0
       0       0       0       0       0       0       0       0       0       0
       0       0       0       0       0       0       0       0       0       0
       0       0       0       0       0       0       0       0       0       0
       0       0       0       0       0       0       0       0       0       0
       0       0       0       0       0       0       0       0       0       0
       0       0       0       0       0       0       0       0       0       0
       0       0       0       0       0       0       0       0       0       0
       0       0       0       0       0       0       0       0       0       0
       0       0       0       0       0       0       0       0       0       0
       0       0       0       0       0       0       0       0       0       0
       0       0       0       0       0       0       0       0       0       0
       0       0       0       0       0       0       0       0       0       0
       0       0       0       0       0       0       0       0       0       0
       0       0       0       0       0       0       0       0       0       0
       0       0       0       0       0       0       0       0       0       0
       0       0       0       0       0       0       0       0       0       0
       0       0       0       0       0       0       0       0       0       0
       0       0       0       0       0       0       0       0       0       0
       0       0       0       0       0       0       0       0       0       0
       0       0       0       0       0       0       0       0       0       0
       0       0       0       0       0       0       0       0       0       0
       0       0       0       0       0       0       0       0       0       0
       0       0       0       0       0       0       0       0       0       0
       0       0       0       0       0       0       0       0       0       0
       0       0       0       0       0       0       0       0       0       0
       0       0       0       0       0       0       0       0       0       0
       0       0       0       0       0       0       0       0       0       0
       0       0       0       0       0       0       0       0       0       0
       0       0       0       0       0       0       0       0       0       0
       0       0       0       0       0       0       0       0       0       0
       0       0       0       0       0       0       0       0       0       0
       0       0       0       0       0       0       0       0       0       0
       0       0       0       0       0       0       0       0       0       0
       0       0       0       0       0       0       0       0       0       0
       0       0       0       0       0       0       0       0       0       0
       0       0       0       0       0       0       0       0       0       0
       0       0       0       0       0       0       0       0       0       0
       0       0       0       0       0       0       0       0       0       0
       0       0       0       0       0       0       0       0       0       0
       0       0       0       0       0       0       0       0       0       0
       0       0       0       0       0       0       0       0       0       0
       0       0       0       0       0       0       0       0       0       0
       0       0       0       0       0       0       0       0       0       0
       0       0       0       0       0       0       0       0       0       0
       0       0       0       0       0       0       0       0       0       0
       0       0       0       0       0       0       0       0       0       0
       0       0       0       0       0       0       0       0       0       0
       0       0       0       0       0       0       0       0       0       0
       0       0       0       0       0       0       0       0       0       0
       0       0       0       0       0       0       0       0       0       0
       0       0       0       0       0       0       0       0       0       0
       0       0       0       0       0       0       0       0       0       0
       0       0       0       0       0       0       0       0       0       0
       0       0       0       0       0       0       0       0       0       0
       0       0       0       0       0       0       0       0       0       0
       0       0       0       0       0       0       0       0       0       0
       0       0       0       0       0       0       0       0       0       0
       0       0       0       0       0       0       0       0       0       0
       0       0       0       0       0       0       0       0       0       0
       0       0       0       0       0       0       0       0       0       0
       0       0       0       0       0       0       0       0       0       0
       0       0       0       0       0       0       0       0       0       0
       0       0       0       0       0       0       0       0       0       0
       0       0       0       0       0       0       0       0       0       0
       0       0       0       0       0       0       0       0       0       0
       0       0       0       0       0       0       0       0       0       0
       0       0       0       0       0       0       0       0       0       0
       0       0       0       0       0       0       0       0       0       0
       0       0       0       0       0       0       0       0       0       0
       0       0       0       0       0       0       0       0       0       0
       0       0       0       0       0       0       0       0       0       0
       0       0       0       0       0       0       0       0       0       0
       0       0       0       0       0       0       0       0       0       0
       0       0       0       0       0       0       0       0       0       0
       0       0       0       0       0       0       0       0       0       0
       0       0       0       0       0       0       0       0       0       0
       0       0       0       0       0       0       0       0       0       0
       0       0       0       0       0       0       0       0       0       0
       0       0       0       0       0       0       0       0       0       0
       0       0       0       0       0       0       0       0       0       0
       0       0       0       0       0       0       0       0       0       0
       0       0       0       0       0       0       0       0       0       0
       0       0       0       0       0       0       0       0       0       0
       0       0       0       0       0       0       0       0       0       0
       0       0       0       0       0       0       0       0       0       0
       0       0       0       0       0       0       0       0       0       0
       0       0       0       0       0       0       0       0       0       0
       0       0       0       0       0       0       0       0       0       0
       0       0       0       0       0       0       0       0       0       0
       0       0       0       0       0       0       0       0       0       0
       0       0       0       0       0       0       0       0       0       0
       0       0       0       0       0       0       0       0       0       0
       0       0       0       0       0       0       0       0       0       0
       0       0       0       0       0       0       0       0       0       0
       0       0       0       0       0       0       0       0       0       0
       0       0       0       0       0       0       0       0       0       0
       0       0       0       0       0       0       0       0       0       0
       0       0       0       0       0       0       0       0       0       0
       0       0       0       0       0       0       0       0       0       0
       0       0       0       0       0       0       0       0       0       0
       0       0       0       0       0       0       0       0       0       0
       0       0       0       0       0       0       0       0       0       0
       0       0       0       0       0       0       0       0       0       0
       0       0       0       0       0       0       0       0       0       0
       0       0       0       0       0       0       0       0       0       0
       0       0       0       0       0       0       0       0       0       0
       0       0       0       0       0       0       0       0       0       0
       0       0       0       0       0       0       0       0       0       0
       0       0       0       0       0       0       0       0       0       0
       0       0       0       0       0       0       0       0       0       0
       0       0       0       0       0       0       0       0       0       0
       0       0       0       0       0       0       0       0       0       0
       0       0       0       0       0       0       0       0       0       0
       0       0       0       0       0       0       0       0       0       0
       0       0       0       0       0       0       0       0       0       0
       0       0       0       0       0       0       0       0       0       0
       0       0       0       0       0       0       0       0       0       0
       0       0       0       0       0       0       0       0       0       0
       0       0       0       0       0       0       0       0       0       0
       0       0       0       0       0       0       0       0       0       0
       0       0       0       0       0       0       0       0       0       0
       0       0       0       0       0       0       0       0       0       0
       0       0       0       0       0       0       0       0       0       0
       0       0       0       0       0       0       0       0       0       0
       0       0       0       0       0       0       0       0       0       0
       0       0       0       0       0       0       0       0       0       0
       0       0       0       0       0       0       0       0       0       0
       0       0       0       0       0       0       0       0       0       0
       0       0       0       0       0       0       0       0       0       0
       0       0       0       0       0       0       0       0       0       0
       0       0       0       0       0       0       0       0       0       0
       0       0       0       0       0       0       0       0       0       0
       0       0       0       0       0       0       0       0       0       0
       0       0       0       0       0       0       0       0       0       0
       0       0       0       0       0       0       0       0       0       0
       0       0       0       0       0       0       0       0       0       0
       0       0       0       0       0       0       0       0       0       0
       0       0       0       0       0       0       0       0       0       0
       0       0       0       0       0       0       0       0       0       0
       0       0       0       0       0       0       0       0       0       0
       0       0       0       0       0       0       0       0       0       0
       0       0       0       0       0       0       0       0       0       0
       0       0       0       0       0       0       0       0       0       0
       0       0       0       0       0       0       0       0       0       0
       0       0       0       0       0       0       0       0       0       0
       0       0       0       0       0       0       0       0       0       0
       0       0       0       0       0       0       0       0       0       0
       0       0       0       0       0       0       0       0       0       0
       0       0       0       0       0       0       0       0       0       0
       0       0       0       0       0       0       0       0       0       0
       0       0       0       0       0       0       0       0       0       0
       0       0       0       0       0       0       0       0       0       0
       0       0       0       0       0       0       0       0       0       0
       0       0       0       0       0       0       0       0       0       0
       0       0       0       0       0       0       0       0       0       0
       0       0       0       0       0       0       0       0       0       0
       0       0       0       0       0       0       0       0       0       0
       0       0       0       0       0       0       0       0       0       0
       0       0       0       0       0       0       0       0       0       0
       0       0       0       0       0       0       0       0       0       0
       0       0       0       0       0       0       0       0       0       0
       0       0       0       0       0       0       0       0       0       0
       0       0       0       0       0       0       0       0       0       0
       0       0       0       0       0       0       0       0       0       0
       0       0       0       0       0       0       0       0       0       0
       0       0       0       0       0       0       0       0       0       0
       0       0       0       0       0       0       0       0       0       0
       0       0       0       0       0       0       0       0       0       0
       0       0       0       0       0       0       0       0       0       0
       0       0       0       0       0       0       0       0       0       0
       0       0       0       0       0       0       0       0       0       0
       0       0       0       0       0       0       0       0       0       0
       0       0       0       0       0       0       0       0       0       0
       0       0       0       0       0       0       0       0       0       0
       0       0       0       0       0       0       0       0       0       0
       0       0       0       0       0       0       0       0       0       0
       0       0       0       0       0       0       0       0       0       0
       0       0       0       0       0       0       0       0       0       0
       0       0       0       0       0       0       0       0       0       0
       0       0       0       0       0       0       0       0       0       0
       0       0       0       0       0       0       0       0       0       0
       0       0       0       0       0       0       0       0       0       0
       0       0       0       0       0       0       0       0       0       0
       0       0       0       0       0       0       0       0       0       0
       0       0       0       0       0       0       0       0       0       0
       0       0       0       0       0       0       0       0       0       0
       0       0       0       0       0       0       0       0       0       0
       0       0       0       0       0       0       0       0       0       0
       0       0       0       0       0       0       0       0       0       0
       0       0       0       0       0       0       0       0       0       0
       0       0       0       0       0       0       0       0       0       0
       0       0       0       0       0       0       0       0       0       0
       0       0       0       0       0       0       0       0       0       0
       0       0       0       0       0       0       0       0       0       0
       0       0       0       0       0       0       0       0       0       0
       0       0       0       0       0       0       0       0       0       0
       0       0       0       0       0       0       0       0       0       0
       0       0       0       0       0       0       0       0       0       0
       0       0       0       0       0       0       0       0       0       0
       0       0       0       0       0       0       0       0       0       0
       0       0       0       0       0       0       0       0       0       0
       0       0       0       0       0       0       0       0       0       0
       0       0       0       0       0       0       0       0       0       0
       0       0       0       0       0       0       0       0       0       0
       0       0       0       0       0       0       0       0       0       0
       0       0       0       0       0       0       0       0       0       0
       0       0       0       0       0       0       0       0       0       0
       0       0       0       0       0       0       0       0       0       0
       0       0       0       0       0       0       0       0       0       0
       0       0       0       0       0       0       0       0       0       0
       0       0       0       0       0       0       0       0       0       0
       0       0       0       0       0       0       0       0       0       0
       0       0       0       0       0       0       0       0       0       0
       0       0       0       0       0       0       0       0       0       0
       0       0       0       0       0       0       0       0       0       0
       0       0       0       0       0       0       0       0       0       0
       0       0       0       0       0       0       0       0       0       0
       0       0       0       0       0       0       0       0       0       0
       0       0       0       0       0       0       0       0       0       0
       0       0       0       0       0       0       0       0       0       0
       0       0       0       0       0       0       0       0       0       0
       0       0       0       0       0       0       0       0       0       0
       0       0       0       0       0       0       0       0       0       0
       0       0       0       0       0       0       0       0       0       0
       0       0       0       0       0       0       0       0       0       0
       0       0       0       0       0       0       0       0       0       0
       0       0       0       0       0       0       0       0       0       0
       0       0       0       0       0       0       0       0       0       0
       0       0       0       0       0       0       0       0       0       0
       0       0       0       0       0       0       0       0       0       0
       0       0       0       0       0       0       0       0       0       0
       0       0       0       0       0       0       0       0       0       0
       0       0       0       0       0       0       0       0       0       0
       0       0       0       0       0       0       0       0       0       0
       0       0       0       0       0       0       0       0       0       0
       0       0       0       0       0       0       0       0       0       0
       0       0       0       0       0       0       0       0       0       0
       0       0       0       0       0       0       0       0       0       0
       0       0       0       0       0       0       0       0       0       0
       0       0       0       0       0       0       0       0       0       0
       0       0       0       0       0       0       0       0       0       0
       0       0       0       0       0       0       0       0       0       0
       0       0       0       0       0       0       0       0       0       0
       0       0       0       0       0       0       0       0       0       0
       0       0       0       0       0       0       0       0       0       0
       0       0       0       0       0       0       0       0       0       0
       0       0       0       0       0       0       0       0       0       0
       0       0       0       0       0       0       0       0       0       0
       0       0       0       0       0       0       0       0       0       0
       0       0       0       0       0       0       0       0       0       0
       0       0       0       0       0       0       0       0       0       0
       0       0       0       0       0       0       0       0       0       0
       0       0       0       0       0       0       0       0       0       0
       0       0       0       0       0       0       0       0       0       0
       0       0       0       0       0       0       0       0       0       0
       0       0       0       0       0       0       0       0       0       0
       0       0       0       0       0       0       0       0       0       0
       0       0       0       0       0       0       0       0       0       0
       0       0       0       0       0       0       0       0       0       0
       0       0       0       0       0       0       0       0       0       0
       0       0       0       0       0       0       0       0       0       0
       0       0       0       0       0       0       0       0       0       0
       0       0       0       0       0       0       0       0       0       0
       0       0       0       0       0       0       0       0       0       0
       0       0       0       0       0       0       0       0       0       0
       0       0       0       0       0       0       0       0       0       0
       0       0       0       0       0       0       0       0       0       0
       0       0       0       0       0       0       0       0       0       0
       0       0       0       0       0       0       0       0       0       0
       0       0       0       0       0       0       0       0       0       0
       0       0       0       0       0       0       0       0       0       0
       0       0       0       0       0       0       0       0       0       0
       0       0       0       0       0       0       0       0       0       0
       0       0       0       0       0       0       0       0       0       0
       0       0       0       0       0       0       0       0       0       0
       0       0       0       0       0       0       0       0       0       0
       0       0       0       0       0       0       0       0       0       0
       0       0       0       0       0       0       0       0       0       0
       0       0       0       0       0       0       0       0       0       0
       0       0       0       0       0       0       0       0       0       0
       0       0       0       0       0       0       0       0       0       0
       0       0       0       0       0       0       0       0       0       0
       0       0       0       0       0       0       0       0       0       0
       0       0       0       0       0       0       0       0       0       0
       0       0       0       0       0       0       0       0       0       0
       0       0       0       0       0       0       0       0       0       0
       0       0       0       0       0       0       0       0       0       0
       0       0       0       0       0       0       0       0       0       0
       0       0       0       0       0       0       0       0       0       0
       0       0       0       0       0       0       0       0       0       0
       0       0       0       0       0       0       0       0       0       0
       0       0       0       0       0       0       0       0       0       0
       0       0       0       0       0       0       0       0       0       0
       0       0       0       0       0       0       0       0       0       0
       0       0       0       0       0       0       0       0       0       0
       0       0       0       0       0       0       0       0       0       0
       0       0       0       0       0       0       0       0       0       0
       0       0       0       0       0       0       0       0       0       0
       0       0       0       0       0       0       0       0       0       0
       0       0       0       0       0       0       0       0       0       0
       0       0       0       0       0       0       0       0       0       0
       0       0       0       0       0       0       0       0       0       0
       0       0       0       0       0       0       0       0       0       0
       0       0       0       0       0       0       0       0       0       0
       0       0       0       0       0       0       0       0       0       0
       0       0       0       0       0       0       0       0       0       0
       0       0       0       0       0       0       0       0       0       0
       0       0       0       0       0       0       0       0       0       0
       0       0       0       0       0       0       0       0       0       0
       0       0       0       0       0       0       0       0       0       0
       0       0       0       0       0       0       0       0       0       0
       0       0       0       0       0       0       0       0       0       0
       0       0       0       0       0       0       0       0       0       0
       0       0       0       0       0       0       0       0       0       0
       0       0       0       0       0       0       0       0       0       0
       0       0       0       0       0       0       0       0       0       0
       0       0       0       0       0       0       0       0       0       0
       0       0       0       0       0       0       0       0       0       0
       0       0       0       0       0       0       0       0       0       0
       0       0       0       0       0       0       0       0       0       0
       0       0       0       0       0       0       0       0       0       0
       0       0       0       0       0       0       0       0       0       0
       0       0       0       0       0       0       0       0       0       0
       0       0       0       0       0       0       0       0       0       0
       0       0       0       0       0       0       0       0       0       0
       0       0       0       0       0       0       0       0       0       0
       0       0       0       0       0       0       0       0       0       0
       0       0       0       0       0       0       0       0       0       0
       0       0       0       0       0       0       0       0       0       0
       0       0       0       0       0       0       0       0       0       0
       0       0       0       0       0       0       0       0       0       0
       0       0       0       0       0       0       0       0       0       0
       0       0       0       0       0       0       0       0       0       0
       0       0       0       0       0       0       0       0       0       0
       0       0       0       0       0       0       0       0       0       0
       0       0       0       0       0       0       0       0       0       0
       0       0       0       0       0       0       0       0       0       0
       0       0       0       0       0       0       0       0       0       0
       0       0       0       0       0       0       0       0       0       0
       0       0       0       0       0       0       0       0       0       0
       0       0       0       0       0       0       0       0       0       0
       0       0       0       0       0       0       0       0       0       0
       0       0       0       0       0       0       0       0       0       0
       0       0       0       0       0       0       0       0       0       0
       0       0       0       0       0       0       0       0       0       0
       0       0       0       0       0       0       0       0       0       0
       0       0       0       0       0       0       0       0       0       0
       0       0       0       0       0       0       0       0       0       0
       0       0       0       0       0       0       0       0       0       0
       0       0       0       0       0       0       0       0       0       0
       0       0       0       0       0       0       0       0       0       0
       0       0       0       0       0       0       0       0       0       0
       0       0       0       0       0       0       0       0       0       0
       0       0       0       0       0       0       0       0       0       0
       0       0       0       0       0       0       0       0       0       0
       0       0       0       0       0       0       0       0       0       0
       0       0       0       0       0       0       0       0       0       0
       0       0       0       0       0       0       0       0       0       0
       0       0       0       0       0       0       0       0       0       0
       0       0       0       0       0       0       0       0       0       0
       0       0       0       0       0       0       0       0       0       0
       0       0       0       0       0       0       0       0       0       0
       0       0       0       0       0       0       0       0       0       0
       0       0       0       0       0       0       0       0       0       0
       0       0       0       0       0       0       0       0       0       0
       0       0       0       0       0       0       0       0       0       0
       0       0       0       0       0       0       0       0       0       0
       0       0       0       0       0       0       0       0       0       0
       0       0       0       0       0       0       0       0       0       0
       0       0       0       0       0       0       0       0       0       0
       0       0       0       0       0       0       0       0       0       0
       0       0       0       0       0       0       0       0       0       0
       0       0       0       0       0       0       0       0       0       0
       0       0       0       0       0       0       0       0       0       0
       0       0       0       0       0       0       0       0       0       0
       0       0       0       0       0       0       0       0       0       0
       0       0       0       0       0       0       0       0       0       0
       0       0       0       0       0       0       0       0       0       0
       0       0       0       0       0       0       0       0       0       0
       0       0       0       0       0       0       0       0       0       0
       0       0       0       0       0       0       0       0       0       0
       0       0       0       0       0       0       0       0       0       0
       0       0       0       0       0       0       0       0       0       0
       0       0       0       0       0       0       0       0       0       0
       0       0       0       0       0       0       0       0       0       0
       0       0       0       0       0       0       0       0       0       0
       0       0       0       0       0       0       0       0       0       0
       0       0       0       0       0       0       0       0       0       0
       0       0       0       0       0       0       0       0       0       0
       0       0       0       0       0       0       0       0       0       0
       0       0       0       0       0       0       0       0       0       0
       0       0       0       0       0       0       0       0       0       0
       0       0       0       0       0       0       0       0       0       0
       0       0       0       0       0       0       0       0       0       0
       0       0       0       0       0       0       0       0       0       0
       0       0       0       0       0       0       0       0       0       0
       0       0       0       0       0       0       0       0       0       0
       0       0       0       0       0       0       0       0       0       0
       0       0       0       0       0       0       0       0       0       0
       0       0       0       0       0       0       0       0       0       0
       0       0       0       0       0       0       0       0       0       0
       0       0       0       0       0       0       0       0       0       0
       0       0       0       0       0       0       0       0       0       0
       0       0       0       0       0       0       0       0       0       0
       0       0       0       0       0       0       0       0       0       0
       0       0       0       0       0       0       0       0       0       0
       0       0       0       0       0       0       0       0       0       0
       0       0       0       0       0       0       0       0       0       0
       0       0       0       0       0       0       0       0       0       0
       0       0       0       0       0       0       0       0       0       0
       0       0       0       0       0       0       0       0       0       0
       0       0       0       0       0       0       0       0       0       0
       0       0       0       0       0       0       0       0       0       0
       0       0       0       0       0       0       0       0       0       0
       0       0       0       0       0       0       0       0       0       0
       0       0       0       0       0       0       0       0       0       0
       0       0       0       0       0       0       0       0       0       0
       0       0       0       0       0       0       0       0       0       0
       0       0       0       0       0       0       0       0       0       0
       0       0       0       0       0       0       0       0       0       0
       0       0       0       0       0       0       0       0       0       0
       0       0       0       0       0       0       0       0       0       0
       0       0       0       0       0       0       0       0       0       0
       0       0       0       0       0       0       0       0       0       0
       0       0       0       0       0       0       0       0       0       0
       0       0       0       0       0       0       0       0       0       0
       0       0       0       0       0       0       0       0       0       0
       0       0       0       0       0       0       0       0       0       0
       0       0       0       0       0       0       0       0       0       0
       0       0       0       0       0       0       0       0       0       0
       0       0       0       0       0       0       0       0       0       0
       0       0       0       0       0       0       0       0       0       0
       0       0       0       0       0       0       0       0       0       0
       0       0       0       0       0       0       0       0       0       0
       0       0       0       0       0       0       0       0       0       0
       0       0       0       0       0       0       0       0       0       0
       0       0       0       0       0       0       0       0       0       0
       0       0       0       0       0       0       0       0       0       0
       0       0       0       0       0       0       0       0       0       0
       0       0       0       0       0       0       0       0       0       0
       0       0       0       0       0       0       0       0       0       0
       0       0       0       0       0       0       0       0       0       0
       0       0       0       0       0       0       0       0       0       0
       0       0       0       0       0       0       0       0       0       0
       0       0       0       0       0       0       0       0       0       0
       0       0       0       0       0       0       0       0       0       0
       0       0       0       0       0       0       0       0       0       0
       0       0       0       0       0       0       0       0       0       0
       0       0       0       0       0       0       0       0       0       0
       0       0       0       0       0       0       0       0       0       0
       0       0       0       0       0       0       0       0       0       0
       0       0       0       0       0       0       0       0       0       0
       0       0       0       0       0       0       0       0       0       0
       0       0       0       0       0       0       0       0       0       0
       0       0       0       0       0       0       0       0       0       0
       0       0       0       0       0       0       0       0       0       0
       0       0       0       0       0       0       0       0       0       0
       0       0       0       0       0       0       0       0       0       0
       0       0       0       0       0       0       0       0       0       0
       0       0       0       0       0       0       0       0       0       0
       0       0       0       0       0       0       0       0       0       0
       0       0       0       0       0       0       0       0       0       0
       0       0       0       0       0       0       0       0       0       0
       0       0       0       0       0       0       0       0       0       0
       0       0       0       0       0       0       0       0       0       0
       0       0       0       0       0       0       0       0       0       0
       0       0       0       0       0       0       0       0       0       0
       0       0       0       0       0       0       0       0       0       0
       0       0       0       0       0       0       0       0       0       0
       0       0       0       0       0       0       0       0       0       0
       0       0       0       0       0       0       0       0       0       0
       0       0       0       0       0       0       0       0       0       0
       0       0       0       0       0       0       0       0       0       0
       0       0       0       0       0       0       0       0       0       0
       0       0       0       0       0       0       0       0       0       0
       0       0       0       0       0       0       0       0       0       0
       0       0       0       0       0       0       0       0       0       0
       0       0       0       0       0       0       0       0       0       0
       0       0       0       0       0       0       0       0       0       0
       0       0       0       0       0       0       0       0       0       0
       0       0       0       0       0       0       0       0       0       0
       0       0       0       0       0       0       0       0       0       0
       0       0       0       0       0       0       0       0       0       0
       0       0       0       0       0       0       0       0       0       0
       0       0       0       0       0       0       0       0       0       0
       0       0       0       0       0       0       0       0       0       0
       0       0       0       0       0       0       0       0       0       0
       0       0       0       0       0       0       0       0       0       0
       0       0       0       0       0       0       0       0       0       0
       0       0       0       0       0       0       0       0       0       0
       0       0       0       0       0       0       0       0       0       0
       0       0       0       0       0       0       0       0       0       0
       0       0       0       0       0       0       0       0       0       0
       0       0       0       0       0       0       0       0       0       0
       0       0       0       0       0       0       0       0       0       0
       0       0       0       0       0       0       0       0       0       0
       0       0       0       0       0       0       0       0       0       0
       0       0       0       0       0       0       0       0       0       0
       0       0       0       0       0       0       0       0       0       0
       0       0       0       0       0       0       0       0       0       0
       0       0       0       0       0       0       0       0       0       0
       0       0       0       0       0       0       0       0       0       0
       0       0       0       0       0       0       0       0       0       0
       0       0       0       0       0       0       0       0       0       0
       0       0       0       0       0       0       0       0       0       0
       0       0       0       0       0       0       0       0       0       0
       0       0       0       0       0       0       0       0       0       0
       0       0       0       0       0       0       0       0       0       0
       0       0       0       0       0       0       0       0       0       0
       0       0       0       0       0       0       0       0       0       0
       0       0       0       0       0       0       0       0       0       0
       0       0       0       0       0       0       0       0       0       0
       0       0       0       0       0       0       0       0       0       0
       0       0       0       0       0       0       0       0       0       0
       0       0       0       0       0       0       0       0       0       0
       0       0       0       0       0       0       0       0       0       0
       0       0       0       0       0       0       0       0       0       0
       0       0       0       0       0       0       0       0       0       0
       0       0       0       0       0       0       0       0       0       0
       0       0       0       0       0       0       0       0       0       0
       0       0       0       0       0       0       0       0       0       0
       0       0       0       0       0       0       0       0       0       0
       0       0       0       0       0       0       0       0       0       0
       0       0       0       0       0       0       0       0       0       0
       0       0       0       0       0       0       0       0       0       0
       0       0       0       0       0       0       0       0       0       0
       0       0       0       0       0       0       0       0       0       0
       0       0       0       0       0       0       0       0       0       0
       0       0       0       0       0       0       0       0       0       0
       0       0       0       0       0       0       0       0       0       0
       0       0       0       0       0       0       0       0       0       0
       0       0       0       0       0       0       0       0       0       0
       0       0       0       0       0       0       0       0       0       0
       0       0       0       0       0       0       0       0       0       0
       0       0       0       0       0       0       0       0       0       0
       0       0       0       0       0       0       0       0       0       0
       0       0       0       0       0       0       0       0       0       0
       0       0       0       0       0       0       0       0       0       0
       0       0       0       0       0       0       0       0       0       0
       0       0       0       0       0       0       0       0       0       0
       0       0       0       0       0       0       0       0       0       0
       0       0       0       0       0       0       0       0       0       0
       0       0       0       0       0       0       0       0       0       0
       0       0       0       0       0       0       0       0       0       0
       0       0       0       0       0       0       0       0       0       0
       0       0       0       0       0       0       0       0       0       0
       0       0       0       0       0       0       0       0       0       0
       0       0       0       0       0       0       0       0       0       0
       0       0       0       0       0       0       0       0       0       0
       0       0       0       0       0       0       0       0       0       0
       0       0       0       0       0       0       0       0       0       0
       0       0       0       0       0       0       0       0       0       0
       0       0       0       0       0       0       0       0       0       0
       0       0       0       0       0       0       0       0       0       0
       0       0       0       0       0       0       0       0       0       0
       0       0       0       0       0       0       0       0       0       0
       0       0       0       0       0       0       0       0       0       0
       0       0       0       0       0       0       0       0       0       0
       0       0       0       0       0       0       0       0       0       0
       0       0       0       0       0       0       0       0       0       0
       0       0       0       0       0       0       0       0       0       0
       0       0       0       0       0       0       0       0       0       0
       0       0       0       0       0       0       0       0       0       0
       0       0       0       0       0       0       0       0       0       0
       0       0       0       0       0       0       0       0       0       0
       0       0       0       0       0       0       0       0       0       0
       0       0       0       0       0       0       0       0       0       0
       0       0       0       0       0       0       0       0       0       0
       0       0       0       0       0       0       0       0       0       0
       0       0       0       0       0       0       0       0       0       0
       0       0       0       0       0       0       0       0       0       0
       0       0       0       0       0       0       0       0       0       0
       0       0       0       0       0       0       0       0       0       0
       0       0       0       0       0       0       0       0       0       0
       0       0       0       0       0       0       0       0       0       0
       0       0       0       0       0       0       0       0       0       0
       0       0       0       0       0       0       0       0       0       0
       0       0       0       0       0       0       0       0       0       0
       0       0       0       0       0       0       0       0       0       0
       0       0       0       0       0       0       0       0       0       0
       0       0       0       0       0       0       0       0       0       0
       0       0       0       0       0       0       0       0       0       0
       0       0       0       0       0       0       0       0       0       0
       0       0       0       0       0       0       0       0       0       0
       0       0       0       0       0       0       0       0       0       0
       0       0       0       0       0       0       0       0       0       0
       0       0       0       0       0       0       0       0       0       0
       0       0       0       0       0       0       0       0       0       0
       0       0       0       0       0       0       0       0       0       0
       0       0       0       0       0       0       0       0       0       0
       0       0       0       0       0       0       0       0       0       0
       0       0       0       0       0       0       0       0       0       0
       0       0       0       0       0       0       0       0       0       0
       0       0       0       0       0       0       0       0       0       0
       0       0       0       0       0       0       0       0       0       0
       0       0       0       0       0       0       0       0       0       0
       0       0       0       0       0       0       0       0       0       0
       0       0       0       0       0       0       0       0       0       0
       0       0       0       0       0       0       0       0       0       0
       0       0       0       0       0       0       0       0       0       0
       0       0       0       0       0       0       0       0       0       0
       0       0       0       0       0       0       0       0       0       0
       0       0       0       0       0       0       0       0       0       0
       0       0       0       0       0       0       0       0       0       0
       0       0       0       0       0       0       0       0       0       0
       0       0       0       0       0       0       0       0       0       0
       0       0       0       0       0       0       0       0       0       0
       0       0       0       0       0       0       0       0       0       0
       0       0       0       0       0       0       0       0       0       0
       0       0       0       0       0       0       0       0       0       0
       0       0       0       0       0       0       0       0       0       0
       0       0       0       0       0       0       0       0       0       0
       0       0       0       0       0       0       0       0       0       0
       0       0       0       0       0       0       0       0       0       0
       0       0       0       0       0       0       0       0       0       0
       0       0       0       0       0       0       0       0       0       0
       0       0       0       0       0       0       0       0       0       0
       0       0       0       0       0       0       0       0       0       0
       0       0       0       0       0       0       0       0       0       0
       0       0       0       0       0       0       0       0       0       0
       0       0       0       0       0       0       0       0       0       0
       0       0       0       0       0       0       0       0       0       0
       0       0       0       0       0       0       0       0       0       0
       0       0       0       0       0       0       0       0       0       0
       0       0       0       0       0       0       0       0       0       0
       0       0       0       0       0       0       0       0       0       0
       0       0       0       0       0       0       0       0       0       0
       0       0       0       0       0       0       0       0       0       0
       0       0       0       0       0       0       0       0       0       0
       0       0       0       0       0       0       0       0       0       0
       0       0       0       0       0       0       0       0       0       0
       0       0       0       0       0       0       0       0       0       0
       0       0       0       0       0       0       0       0       0       0
       0       0       0       0       0       0       0       0       0       0
       0       0       0       0       0       0       0       0       0       0
       0       0       0       0       0       0       0       0       0       0
       0       0       0       0       0       0       0       0       0       0
       0       0       0       0       0       0       0       0       0       0
       0       0       0       0       0       0       0       0       0       0
       0       0       0       0       0       0       0       0       0       0
       0       0       0       0       0       0       0       0       0       0
       0       0       0       0       0       0       0       0       0       0
       0       0       0       0       0       0       0       0       0       0
       0       0       0       0       0       0       0       0       0       0
       0       0       0       0       0       0       0       0       0       0
       0       0       0       0       0       0       0       0       0       0
       0       0       0       0       0       0       0       0       0       0
       0       0       0       0       0       0       0       0       0       0
       0       0       0       0       0       0       0       0       0       0
       0       0       0       0       0       0       0       0       0       0
       0       0       0       0       0       0       0       0       0       0
       0       0       0       0       0       0       0       0       0       0
       0       0       0       0       0       0       0       0       0       0
       0       0       0       0       0       0       0       0       0       0
       0       0       0       0       0       0       0       0       0       0
       0       0       0       0       0       0       0       0       0       0
       0       0       0       0       0       0       0       0       0       0
       0       0       0       0       0       0       0       0       0       0
       0       0       0       0       0       0       0       0       0       0
       0       0       0       0       0       0       0       0       0       0
       0       0       0       0       0       0       0       0       0       0
       0       0       0       0       0       0       0       0       0       0
       0       0       0       0       0       0       0       0       0       0
       0       0       0       0       0       0       0       0       0       0
       0       0       0       0       0       0       0       0       0       0
       0       0       0       0       0       0       0       0       0       0
       0       0       0       0       0       0       0       0       0       0
       0       0       0       0       0       0       0       0       0       0
       0       0       0       0       0       0       0       0       0       0
       0       0       0       0       0       0       0       0       0       0
       0       0       0       0       0       0       0       0       0       0
       0       0       0       0       0       0       0       0       0       0
       0       0       0       0       0       0       0       0       0       0
       0       0       0       0       0       0       0       0       0       0
       0       0       0       0       0       0       0       0       0       0
       0       0       0       0       0       0       0       0       0       0
       0       0       0       0       0       0       0       0       0       0
       0       0       0       0       0       0       0       0       0       0
       0       0       0       0       0       0       0       0       0       0
       0       0       0       0       0       0       0       0       0       0
       0       0       0       0       0       0       0       0       0       0
       0       0       0       0       0       0       0       0       0       0
       0       0       0       0       0       0       0       0       0       0
       0       0       0       0       0       0       0       0       0       0
       0       0       0       0       0       0       0       0       0       0
       0       0       0       0       0       0       0       0       0       0
       0       0       0       0       0       0       0       0       0       0
       0       0       0       0       0       0       0       0       0       0
       0       0       0       0       0       0       0       0       0       0
       0       0       0       0       0       0       0       0       0       0
       0       0       0       0       0       0       0       0       0       0
       0       0       0       0       0       0       0       0       0       0
       0       0       0       0       0       0       0       0       0       0
       0       0       0       0       0       0       0       0       0       0
       0       0       0       0       0       0       0       0       0       0
       0       0       0       0       0       0       0       0       0       0
       0       0       0       0       0       0       0       0       0       0
       0       0       0       0       0       0       0       0       0       0
       0       0       0       0       0       0       0       0       0       0
       0       0       0       0       0       0       0       0       0       0
       0       0       0       0       0       0       0       0       0       0
       0       0       0       0       0       0       0       0       0       0
       0       0       0       0       0       0       0       0       0       0
       0       0       0       0       0       0       0       0       0       0
       0       0       0       0       0       0       0       0       0       0
       0       0       0       0       0       0       0       0       0       0
       0       0       0       0       0       0       0       0       0       0
       0       0       0       0       0       0       0       0       0       0
       0       0       0       0       0       0       0       0       0       0
       0       0       0       0       0       0       0       0       0       0
       0       0       0       0       0       0       0       0       0       0
       0       0       0       0       0       0       0       0       0       0
       0       0       0       0       0       0       0       0       0       0
       0       0       0       0       0       0       0       0       0       0
       0       0       0       0       0       0       0       0       0       0
       0       0       0       0       0       0       0       0       0       0
       0       0       0       0       0       0       0       0       0       0
       0       0       0       0       0       0       0       0       0       0
       0       0       0       0       0       0       0       0       0       0
       0       0       0       0       0       0       0       0       0       0
       0       0       0       0       0       0       0       0       0       0
       0       0       0       0       0       0       0       0       0       0
       0       0       0       0       0       0       0       0       0       0
       0       0       0       0       0       0       0       0       0       0
       0       0       0       0       0       0       0       0       0       0
       0       0       0       0       0       0       0       0       0       0
       0       0       0       0       0       0       0       0       0       0
       0       0       0       0       0       0       0       0       0       0
       0       0       0       0       0       0       0       0       0       0
       0       0       0       0       0       0       0       0       0       0
       0       0       0       0       0       0       0       0       0       0
       0       0       0       0       0       0       0       0       0       0
       0       0       0       0       0       0       0       0       0       0
       0       0       0       0       0       0       0       0       0       0
       0       0       0       0       0       0       0       0       0       0
       0       0       0       0       0       0       0       0       0       0
       0       0       0       0       0       0       0       0       0       0
       0       0       0       0       0       0       0       0       0       0
       0       0       0       0       0       0       0       0       0       0
       0       0       0       0       0       0       0       0       0       0
       0       0       0       0       0       0       0       0       0       0
       0       0       0       0       0       0       0       0       0       0
       0       0       0       0       0       0       0       0       0       0
       0       0       0       0       0       0       0       0       0       0
       0       0       0       0       0       0       0       0       0       0
       0       0       0       0       0       0       0       0       0       0
       0       0       0       0       0       0       0       0       0       0
       0       0       0       0       0       0       0       0       0       0
       0       0       0       0       0       0       0       0       0       0
       0       0       0       0       0       0       0       0       0       0
       0       0       0       0       0       0       0       0       0       0
       0       0       0       0       0       0       0       0       0       0
       0       0       0       0       0       0       0       0       0       0
       0       0       0       0       0       0       0       0       0       0
       0       0       0       0       0       0       0       0       0       0
       0       0       0       0       0       0       0       0       0       0
       0       0       0       0       0       0       0       0       0       0
       0       0       0       0       0       0       0       0       0       0
       0       0       0       0       0       0       0       0       0       0
       0       0       0       0       0       0       0       0       0       0
       0       0       0       0       0       0       0       0       0       0
       0       0       0       0       0       0       0       0       0       0
       0       0       0       0       0       0       0       0       0       0
       0       0       0       0       0       0       0       0       0       0
       0       0       0       0       0       0       0       0       0       0
       0       0       0       0       0       0       0       0       0       0
       0       0       0       0       0       0       0       0       0       0
       0       0       0       0       0       0       0       0       0       0
       0       0       0       0       0       0       0       0       0       0
       0       0       0       0       0       0       0       0       0       0
       0       0       0       0       0       0       0       0       0       0
       0       0       0       0       0       0       0       0       0       0
       0       0       0       0       0       0       0       0       0       0
       0       0       0       0       0       0       0       0       0       0
       0       0       0       0       0       0       0       0       0       0
       0       0       0       0       0       0       0       0       0       0
       0       0       0       0       0       0       0       0       0       0
       0       0       0       0       0       0       0       0       0       0
       0       0       0       0       0       0       0       0       0       0
       0       0       0       0       0       0       0       0       0       0
       0       0       0       0       0       0       0       0       0       0
       0       0       0       0       0       0       0       0       0       0
       0       0       0       0       0       0       0       0       0       0
       0       0       0       0       0       0       0       0       0       0
       0       0       0       0       0       0       0       0       0       0
       0       0       0       0       0       0       0       0       0       0
       0       0       0       0       0       0       0       0       0       0
       0       0       0       0       0       0       0       0       0       0
       0       0       0       0       0       0       0       0       0       0
       0       0       0       0       0       0       0       0       0       0
       0       0       0       0       0       0       0       0       0       0
       0       0       0       0       0       0       0       0       0       0
       0       0       0       0       0       0       0       0       0       0
       0       0       0       0       0       0       0       0       0       0
       0       0       0       0       0       0       0       0       0       0
       0       0       0       0       0       0       0       0       0       0
       0       0       0       0       0       0       0       0       0       0
       0       0       0       0       0       0       0       0       0       0
       0       0       0       0       0       0       0       0       0       0
       0       0       0       0       0       0       0       0       0       0
       0       0       0       0       0       0       0       0       0       0
       0       0       0       0       0       0       0       0       0       0
       0       0       0       0       0       0       0       0       0       0
       0       0       0       0       0       0       0       0       0       0
       0       0       0       0       0       0       0       0       0       0
       0       0       0       0       0       0       0       0       0       0
       0       0       0       0       0       0       0       0       0       0
       0       0       0       0       0       0       0       0       0       0
       0       0       0       0       0       0       0       0       0       0
       0       0       0       0       0       0       0       0       0       0
       0       0       0       0       0       0       0       0       0       0
       0       0       0       0       0       0       0       0       0       0
       0       0       0       0       0       0       0       0       0       0
       0       0       0       0       0       0       0       0       0       0
       0       0       0       0       0       0       0       0       0       0
       0       0       0       0       0       0       0       0       0       0
       0       0       0       0       0       0       0       0       0       0
       0       0       0       0       0       0       0       0       0       0
       0       0       0       0       0       0       0       0       0       0
       0       0       0       0       0       0       0       0       0       0
       0       0       0       0       0       0       0       0       0       0
       0       0       0       0       0       0       0       0       0       0
       0       0       0       0       0       0       0       0       0       0
       0       0       0       0       0       0       0       0       0       0
       0       0       0       0       0       0       0       0       0       0
       0       0       0       0       0       0       0       0       0       0
       0       0       0       0       0       0       0       0       0       0
       0       0       0       0       0       0       0       0       0       0
       0       0       0       0       0       0       0       0       0       0
       0       0       0       0       0       0       0       0       0       0
       0       0       0       0       0       0       0       0       0       0
       0       0       0       0       0       0       0       0       0       0
       0       0       0       0       0       0       0       0       0       0
       0       0       0       0       0       0       0       0       0       0
       0       0       0       0       0       0       0       0       0       0
       0       0       0       0       0       0       0       0       0       0
       0       0       0       0       0       0       0       0       0       0
       0       0       0       0       0       0       0       0       0       0
       0       0       0       0       0       0       0       0       0       0
       0       0       0       0       0       0       0       0       0       0
       0       0       0       0       0       0       0       0       0       0
       0       0       0       0       0       0       0       0       0       0
       0       0       0       0       0       0       0       0       0       0
       0       0       0       0       0       0       0       0       0       0
       0       0       0       0       0       0       0       0       0       0
       0       0       0       0       0       0       0       0       0       0
       0       0       0       0       0       0       0       0       0       0
       0       0       0       0       0       0       0       0       0       0
       0       0       0       0       0       0       0       0       0       0
       0       0       0       0       0       0       0       0       0       0
       0       0       0       0       0       0       0       0       0       0
       0       0       0       0       0       0       0       0       0       0
       0       0       0       0       0       0       0       0       0       0
       0       0       0       0       0       0       0       0       0       0
       0       0       0       0       0       0       0       0       0       0
       0       0       0       0       0       0       0       0       0       0
       0       0       0       0       0       0       0       0       0       0
       0       0       0       0       0       0       0       0       0       0
       0       0       0       0       0       0       0       0       0       0
       0       0       0       0       0       0       0       0       0       0
       0       0       0       0       0       0       0       0       0       0
       0       0       0       0       0       0       0       0       0       0
       0       0       0       0       0       0       0       0       0       0
       0       0       0       0       0       0       0       0       0       0
       0       0       0       0       0       0       0       0       0       0
       0       0       0       0       0       0       0       0       0       0
       0       0       0       0       0       0       0       0       0       0
       0       0       0       0       0       0       0       0       0       0
       0       0       0       0       0       0       0       0       0       0
       0       0       0       0       0       0       0       0       0       0
       0       0       0       0       0       0       0       0       0       0
       0       0       0       0       0       0       0       0       0       0
       0       0       0       0       0       0       0       0       0       0
       0       0       0       0       0       0       0       0       0       0
       0       0       0       0       0       0       0       0       0       0
       0       0       0       0       0       0       0       0       0       0
       0       0       0       0       0       0       0       0       0       0
       0       0       0       0       0       0       0       0       0       0
       0       0       0       0       0       0       0       0       0       0
       0       0       0       0       0       0       0       0       0       0
       0       0       0       0       0       0       0       0       0       0
       0       0       0       0       0       0       0       0       0       0
       0       0       0       0       0       0       0       0       0       0
       0       0       0       0       0       0       0       0       0       0
       0       0       0       0       0       0       0       0       0       0
       0       0       0       0       0       0       0       0       0       0
       0       0       0       0       0       0       0       0       0       0
       0       0       0       0       0       0       0       0       0       0
       0       0       0       0       0       0       0       0       0       0
       0       0       0       0       0       0       0       0       0       0
       0       0       0       0       0       0       0       0       0       0
       0       0       0       0       0       0       0       0       0       0
       0       0       0       0       0       0       0       0       0       0
       0       0       0       0       0       0       0       0       0       0
       0       0       0       0       0       0       0       0       0       0
       0       0       0       0       0       0       0       0       0       0
       0       0       0       0       0       0       0       0       0       0
       0       0       0       0       0       0       0       0       0       0
       0       0       0       0       0       0       0       0       0       0
       0       0       0       0       0       0       0       0       0       0
       0       0       0       0       0       0       0       0       0       0
       0       0       0       0       0       0       0       0       0       0
       0       0       0       0       0       0       0       0       0       0
       0       0       0       0       0       0       0       0       0       0
       0       0       0       0       0       0       0       0       0       0
       0       0       0       0       0       0       0       0       0       0
       0       0       0       0       0       0       0       0       0       0
       0       0       0       0       0       0       0       0       0       0
       0       0       0       0       0       0       0       0       0       0
       0       0       0       0       0       0       0       0       0       0
       0       0       0       0       0       0       0       0       0       0
       0       0       0       0       0       0       0       0       0       0
       0       0       0       0       0       0       0       0       0       0
       0       0       0       0       0       0       0       0       0       0
       0       0       0       0       0       0       0       0       0       0
       0       0       0       0       0       0       0       0       0       0
       0       0       0       0       0       0       0       0       0       0
%FLAG RADIUS_SET                                                                
%FORMAT(1a80)                                                                   
modified Bondi radii (mbondi)                                                   
%FLAG RADII                                                                     
%FORMAT(5E16.8)                                                                 
  1.50000000E+00  1.70000000E+00  1.70000000E+00  1.70000000E+00  1.70000000E+00
  1.30000000E+00  1.30000000E+00  1.30000000E+00  1.70000000E+00  1.30000000E+00
  1.70000000E+00  1.30000000E+00  1.70000000E+00  1.30000000E+00  1.30000000E+00
  1.55000000E+00  1.70000000E+00  1.70000000E+00  1.70000000E+00  1.70000000E+00
  1.70000000E+00  1.70000000E+00  1.70000000E+00  1.30000000E+00  1.70000000E+00
  1.30000000E+00  1.70000000E+00  1.30000000E+00  1.70000000E+00  1.30000000E+00
  1.70000000E+00  1.70000000E+00  1.30000000E+00  1.70000000E+00  1.30000000E+00
  1.30000000E+00  1.70000000E+00  1.70000000E+00  1.70000000E+00  1.70000000E+00
  1.50000000E+00  1.70000000E+00  1.70000000E+00  1.70000000E+00  1.70000000E+00
  1.70000000E+00  1.70000000E+00  1.70000000E+00  1.70000000E+00  1.30000000E+00
  1.70000000E+00  1.30000000E+00  1.70000000E+00  1.30000000E+00  1.70000000E+00
  1.30000000E+00  1.70000000E+00  1.70000000E+00  1.30000000E+00  1.30000000E+00
  1.30000000E+00  1.30000000E+00  1.55000000E+00  1.55000000E+00  1.70000000E+00
  1.30000000E+00  1.55000000E+00  1.70000000E+00  1.30000000E+00  1.70000000E+00
  1.70000000E+00  1.70000000E+00  1.70000000E+00  1.30000000E+00  1.70000000E+00
  1.70000000E+00  1.30000000E+00  1.70000000E+00  1.70000000E+00  1.70000000E+00
  1.70000000E+00  1.70000000E+00  1.70000000E+00  1.70000000E+00  1.70000000E+00
  1.70000000E+00  1.70000000E+00  1.70000000E+00  1.70000000E+00  1.70000000E+00
  1.30000000E+00  1.70000000E+00  1.30000000E+00  1.30000000E+00  1.70000000E+00
  1.30000000E+00  1.70000000E+00  1.70000000E+00  1.30000000E+00  1.70000000E+00
  1.30000000E+00  1.70000000E+00  1.30000000E+00  1.70000000E+00  1.30000000E+00
  1.70000000E+00  1.30000000E+00  1.70000000E+00  1.30000000E+00  1.70000000E+00
  1.30000000E+00  1.70000000E+00  1.30000000E+00  1.70000000E+00  1.30000000E+00
  1.30000000E+00  1.70000000E+00  1.30000000E+00  1.30000000E+00  1.30000000E+00
  1.70000000E+00  1.30000000E+00  1.70000000E+00  1.30000000E+00  1.30000000E+00
  1.70000000E+00  1.30000000E+00  1.30000000E+00  1.70000000E+00  1.30000000E+00
  1.30000000E+00  1.50000000E+00  1.50000000E+00  1.50000000E+00  1.50000000E+00
  1.50000000E+00  1.50000000E+00  1.70000000E+00  1.70000000E+00  1.70000000E+00
  1.70000000E+00  1.70000000E+00  1.70000000E+00  1.30000000E+00  1.30000000E+00
  1.30000000E+00  1.30000000E+00  1.30000000E+00  1.30000000E+00  1.30000000E+00
  1.30000000E+00  1.30000000E+00  1.30000000E+00  1.30000000E+00  1.30000000E+00
  1.30000000E+00  1.30000000E+00  1.30000000E+00  1.30000000E+00  1.30000000E+00
  1.30000000E+00  1.50000000E+00  1.70000000E+00  1.70000000E+00  1.70000000E+00
  1.70000000E+00  1.30000000E+00  1.30000000E+00  1.30000000E+00  1.70000000E+00
  1.30000000E+00  1.70000000E+00  1.30000000E+00  1.70000000E+00  1.30000000E+00
  1.30000000E+00  1.55000000E+00  1.70000000E+00  1.70000000E+00  1.70000000E+00
  1.70000000E+00  1.70000000E+00  1.70000000E+00  1.70000000E+00  1.30000000E+00
  1.70000000E+00  1.30000000E+00  1.70000000E+00  1.30000000E+00  1.70000000E+00
  1.30000000E+00  1.70000000E+00  1.70000000E+00  1.30000000E+00  1.70000000E+00
  1.30000000E+00  1.30000000E+00  1.70000000E+00  1.70000000E+00  1.70000000E+00
  1.70000000E+00  1.50000000E+00  1.70000000E+00  1.70000000E+00  1.70000000E+00
  1.70000000E+00  1.70000000E+00  1.70000000E+00  1.70000000E+00  1.70000000E+00
  1.30000000E+00  1.70000000E+00  1.30000000E+00  1.70000000E+00  1.30000000E+00
  1.70000000E+00  1.30000000E+00  1.70000000E+00  1.70000000E+00  1.30000000E+00
  1.30000000E+00  1.30000000E+00  1.30000000E+00  1.55000000E+00  1.55000000E+00
  1.70000000E+00  1.30000000E+00  1.55000000E+00  1.70000000E+00  1.30000000E+00
  1.70000000E+00  1.70000000E+00  1.70000000E+00  1.70000000E+00  1.30000000E+00
  1.70000000E+00  1.70000000E+00  1.30000000E+00  1.70000000E+00  1.70000000E+00
  1.70000000E+00  1.70000000E+00  1.70000000E+00  1.70000000E+00  1.70000000E+00
  1.70000000E+00  1.70000000E+00  1.70000000E+00  1.70000000E+00  1.70000000E+00
  1.70000000E+00  1.30000000E+00  1.70000000E+00  1.30000000E+00  1.30000000E+00
  1.70000000E+00  1.30000000E+00  1.70000000E+00  1.70000000E+00  1.30000000E+00
  1.70000000E+00  1.30000000E+00  1.70000000E+00  1.30000000E+00  1.70000000E+00
  1.30000000E+00  1.70000000E+00  1.30000000E+00  1.70000000E+00  1.30000000E+00
  1.70000000E+00  1.30000000E+00  1.70000000E+00  1.30000000E+00  1.70000000E+00
  1.30000000E+00  1.30000000E+00  1.70000000E+00  1.30000000E+00  1.30000000E+00
  1.30000000E+00  1.70000000E+00  1.30000000E+00  1.70000000E+00  1.30000000E+00
  1.30000000E+00  1.70000000E+00  1.30000000E+00  1.30000000E+00  1.70000000E+00
  1.30000000E+00  1.30000000E+00  1.50000000E+00  1.50000000E+00  1.50000000E+00
  1.50000000E+00  1.50000000E+00  1.50000000E+00  1.70000000E+00  1.70000000E+00
  1.70000000E+00  1.70000000E+00  1.70000000E+00  1.70000000E+00  1.30000000E+00
  1.30000000E+00  1.30000000E+00  1.30000000E+00  1.30000000E+00  1.30000000E+00
  1.30000000E+00  1.30000000E+00  1.30000000E+00  1.30000000E+00  1.30000000E+00
  1.30000000E+00  1.30000000E+00  1.30000000E+00  1.30000000E+00  1.30000000E+00
  1.30000000E+00  1.30000000E+00  1.50000000E+00  1.70000000E+00  1.70000000E+00
  1.70000000E+00  1.70000000E+00  1.30000000E+00  1.30000000E+00  1.30000000E+00
  1.70000000E+00  1.30000000E+00  1.70000000E+00  1.30000000E+00  1.70000000E+00
  1.30000000E+00  1.30000000E+00  1.55000000E+00  1.70000000E+00  1.70000000E+00
  1.70000000E+00  1.70000000E+00  1.70000000E+00  1.70000000E+00  1.70000000E+00
  1.30000000E+00  1.70000000E+00  1.30000000E+00  1.70000000E+00  1.30000000E+00
  1.70000000E+00  1.30000000E+00  1.70000000E+00  1.70000000E+00  1.30000000E+00
  1.70000000E+00  1.30000000E+00  1.30000000E+00  1.70000000E+00  1.70000000E+00
  1.70000000E+00  1.70000000E+00  1.50000000E+00  1.70000000E+00  1.70000000E+00
  1.70000000E+00  1.70000000E+00  1.70000000E+00  1.70000000E+00  1.70000000E+00
  1.70000000E+00  1.30000000E+00  1.70000000E+00  1.30000000E+00  1.70000000E+00
  1.30000000E+00  1.70000000E+00  1.30000000E+00  1.70000000E+00  1.70000000E+00
  1.30000000E+00  1.30000000E+00  1.30000000E+00  1.30000000E+00  1.55000000E+00
  1.55000000E+00  1.70000000E+00  1.30000000E+00  1.55000000E+00  1.70000000E+00
  1.30000000E+00  1.70000000E+00  1.70000000E+00  1.70000000E+00  1.70000000E+00
  1.30000000E+00  1.70000000E+00  1.70000000E+00  1.30000000E+00  1.70000000E+00
  1.70000000E+00  1.70000000E+00  1.70000000E+00  1.70000000E+00  1.70000000E+00
  1.70000000E+00  1.70000000E+00  1.70000000E+00  1.70000000E+00  1.70000000E+00
  1.70000000E+00  1.70000000E+00  1.30000000E+00  1.70000000E+00  1.30000000E+00
  1.30000000E+00  1.70000000E+00  1.30000000E+00  1.70000000E+00  1.70000000E+00
  1.30000000E+00  1.70000000E+00  1.30000000E+00  1.70000000E+00  1.30000000E+00
  1.70000000E+00  1.30000000E+00  1.70000000E+00  1.30000000E+00  1.70000000E+00
  1.30000000E+00  1.70000000E+00  1.30000000E+00  1.70000000E+00  1.30000000E+00
  1.70000000E+00  1.30000000E+00  1.30000000E+00  1.70000000E+00  1.30000000E+00
  1.30000000E+00  1.30000000E+00  1.70000000E+00  1.30000000E+00  1.70000000E+00
  1.30000000E+00  1.30000000E+00  1.70000000E+00  1.30000000E+00  1.30000000E+00
  1.70000000E+00  1.30000000E+00  1.30000000E+00  1.50000000E+00  1.50000000E+00
  1.50000000E+00  1.50000000E+00  1.50000000E+00  1.50000000E+00  1.70000000E+00
  1.70000000E+00  1.70000000E+00  1.70000000E+00  1.70000000E+00  1.70000000E+00
  1.30000000E+00  1.30000000E+00  1.30000000E+00  1.30000000E+00  1.30000000E+00
  1.30000000E+00  1.30000000E+00  1.30000000E+00  1.30000000E+00  1.30000000E+00
  1.30000000E+00  1.30000000E+00  1.30000000E+00  1.30000000E+00  1.30000000E+00
  1.30000000E+00  1.30000000E+00  1.30000000E+00  1.50000000E+00  1.70000000E+00
  1.70000000E+00  1.70000000E+00  1.70000000E+00  1.30000000E+00  1.30000000E+00
  1.30000000E+00  1.70000000E+00  1.30000000E+00  1.70000000E+00  1.30000000E+00
  1.70000000E+00  1.30000000E+00  1.30000000E+00  1.55000000E+00  1.70000000E+00
  1.70000000E+00  1.70000000E+00  1.70000000E+00  1.70000000E+00  1.70000000E+00
  1.70000000E+00  1.30000000E+00  1.70000000E+00  1.30000000E+00  1.70000000E+00
  1.30000000E+00  1.70000000E+00  1.30000000E+00  1.70000000E+00  1.70000000E+00
  1.30000000E+00  1.70000000E+00  1.30000000E+00  1.30000000E+00  1.70000000E+00
  1.70000000E+00  1.70000000E+00  1.70000000E+00  1.50000000E+00  1.70000000E+00
  1.70000000E+00  1.70000000E+00  1.70000000E+00  1.70000000E+00  1.70000000E+00
  1.70000000E+00  1.70000000E+00  1.30000000E+00  1.70000000E+00  1.30000000E+00
  1.70000000E+00  1.30000000E+00  1.70000000E+00  1.30000000E+00  1.70000000E+00
  1.70000000E+00  1.30000000E+00  1.30000000E+00  1.30000000E+00  1.30000000E+00
  1.55000000E+00  1.55000000E+00  1.70000000E+00  1.30000000E+00  1.55000000E+00
  1.70000000E+00  1.30000000E+00  1.70000000E+00  1.70000000E+00  1.70000000E+00
  1.70000000E+00  1.30000000E+00  1.70000000E+00  1.70000000E+00  1.30000000E+00
  1.70000000E+00  1.70000000E+00  1.70000000E+00  1.70000000E+00  1.70000000E+00
  1.70000000E+00  1.70000000E+00  1.70000000E+00  1.70000000E+00  1.70000000E+00
  1.70000000E+00  1.70000000E+00  1.70000000E+00  1.30000000E+00  1.70000000E+00
  1.30000000E+00  1.30000000E+00  1.70000000E+00  1.30000000E+00  1.70000000E+00
  1.70000000E+00  1.30000000E+00  1.70000000E+00  1.30000000E+00  1.70000000E+00
  1.30000000E+00  1.70000000E+00  1.30000000E+00  1.70000000E+00  1.30000000E+00
  1.70000000E+00  1.30000000E+00  1.70000000E+00  1.30000000E+00  1.70000000E+00
  1.30000000E+00  1.70000000E+00  1.30000000E+00  1.30000000E+00  1.70000000E+00
  1.30000000E+00  1.30000000E+00  1.30000000E+00  1.70000000E+00  1.30000000E+00
  1.70000000E+00  1.30000000E+00  1.30000000E+00  1.70000000E+00  1.30000000E+00
  1.30000000E+00  1.70000000E+00  1.30000000E+00  1.30000000E+00  1.50000000E+00
  1.50000000E+00  1.50000000E+00  1.50000000E+00  1.50000000E+00  1.50000000E+00
  1.70000000E+00  1.70000000E+00  1.70000000E+00  1.70000000E+00  1.70000000E+00
  1.70000000E+00  1.30000000E+00  1.30000000E+00  1.30000000E+00  1.30000000E+00
  1.30000000E+00  1.30000000E+00  1.30000000E+00  1.30000000E+00  1.30000000E+00
  1.30000000E+00  1.30000000E+00  1.30000000E+00  1.30000000E+00  1.30000000E+00
  1.30000000E+00  1.30000000E+00  1.30000000E+00  1.30000000E+00  1.50000000E+00
  1.70000000E+00  1.70000000E+00  1.70000000E+00  1.70000000E+00  1.30000000E+00
  1.30000000E+00  1.30000000E+00  1.70000000E+00  1.30000000E+00  1.70000000E+00
  1.30000000E+00  1.70000000E+00  1.30000000E+00  1.30000000E+00  1.55000000E+00
  1.70000000E+00  1.70000000E+00  1.70000000E+00  1.70000000E+00  1.70000000E+00
  1.70000000E+00  1.70000000E+00  1.30000000E+00  1.70000000E+00  1.30000000E+00
  1.70000000E+00  1.30000000E+00  1.70000000E+00  1.30000000E+00  1.70000000E+00
  1.70000000E+00  1.30000000E+00  1.70000000E+00  1.30000000E+00  1.30000000E+00
  1.70000000E+00  1.70000000E+00  1.70000000E+00  1.70000000E+00  1.50000000E+00
  1.70000000E+00  1.70000000E+00  1.70000000E+00  1.70000000E+00  1.70000000E+00
  1.70000000E+00  1.70000000E+00  1.70000000E+00  1.30000000E+00  1.70000000E+00
  1.30000000E+00  1.70000000E+00  1.30000000E+00  1.70000000E+00  1.30000000E+00
  1.70000000E+00  1.70000000E+00  1.30000000E+00  1.30000000E+00  1.30000000E+00
  1.30000000E+00  1.55000000E+00  1.55000000E+00  1.70000000E+00  1.30000000E+00
  1.55000000E+00  1.70000000E+00  1.30000000E+00  1.70000000E+00  1.70000000E+00
  1.70000000E+00  1.70000000E+00  1.30000000E+00  1.70000000E+00  1.70000000E+00
  1.30000000E+00  1.70000000E+00  1.70000000E+00  1.70000000E+00  1.70000000E+00
  1.70000000E+00  1.70000000E+00  1.70000000E+00  1.70000000E+00  1.70000000E+00
  1.70000000E+00  1.70000000E+00  1.70000000E+00  1.70000000E+00  1.30000000E+00
  1.70000000E+00  1.30000000E+00  1.30000000E+00  1.70000000E+00  1.30000000E+00
  1.70000000E+00  1.70000000E+00  1.30000000E+00  1.70000000E+00  1.30000000E+00
  1.70000000E+00  1.30000000E+00  1.70000000E+00  1.30000000E+00  1.70000000E+00
  1.30000000E+00  1.70000000E+00  1.30000000E+00  1.70000000E+00  1.30000000E+00
  1.70000000E+00  1.30000000E+00  1.70000000E+00  1.30000000E+00  1.30000000E+00
  1.70000000E+00  1.30000000E+00  1.30000000E+00  1.30000000E+00  1.70000000E+00
  1.30000000E+00  1.70000000E+00  1.30000000E+00  1.30000000E+00  1.70000000E+00
  1.30000000E+00  1.30000000E+00  1.70000000E+00  1.30000000E+00  1.30000000E+00
  1.50000000E+00  1.50000000E+00  1.50000000E+00  1.50000000E+00  1.50000000E+00
  1.50000000E+00  1.70000000E+00  1.70000000E+00  1.70000000E+00  1.70000000E+00
  1.70000000E+00  1.70000000E+00  1.30000000E+00  1.30000000E+00  1.30000000E+00
  1.30000000E+00  1.30000000E+00  1.30000000E+00  1.30000000E+00  1.30000000E+00
  1.30000000E+00  1.30000000E+00  1.30000000E+00  1.30000000E+00  1.30000000E+00
  1.30000000E+00  1.30000000E+00  1.30000000E+00  1.30000000E+00  1.30000000E+00
  1.50000000E+00  1.70000000E+00  1.70000000E+00  1.70000000E+00  1.70000000E+00
  1.30000000E+00  1.30000000E+00  1.30000000E+00  1.70000000E+00  1.30000000E+00
  1.70000000E+00  1.30000000E+00  1.70000000E+00  1.30000000E+00  1.30000000E+00
  1.55000000E+00  1.70000000E+00  1.70000000E+00  1.70000000E+00  1.70000000E+00
  1.70000000E+00  1.70000000E+00  1.70000000E+00  1.30000000E+00  1.70000000E+00
  1.30000000E+00  1.70000000E+00  1.30000000E+00  1.70000000E+00  1.30000000E+00
  1.70000000E+00  1.70000000E+00  1.30000000E+00  1.70000000E+00  1.30000000E+00
  1.30000000E+00  1.70000000E+00  1.70000000E+00  1.70000000E+00  1.70000000E+00
  1.50000000E+00  1.70000000E+00  1.70000000E+00  1.70000000E+00  1.70000000E+00
  1.70000000E+00  1.70000000E+00  1.70000000E+00  1.70000000E+00  1.30000000E+00
  1.70000000E+00  1.30000000E+00  1.70000000E+00  1.30000000E+00  1.70000000E+00
  1.30000000E+00  1.70000000E+00  1.70000000E+00  1.30000000E+00  1.30000000E+00
  1.30000000E+00  1.30000000E+00  1.55000000E+00  1.55000000E+00  1.70000000E+00
  1.30000000E+00  1.55000000E+00  1.70000000E+00  1.30000000E+00  1.70000000E+00
  1.70000000E+00  1.70000000E+00  1.70000000E+00  1.30000000E+00  1.70000000E+00
  1.70000000E+00  1.30000000E+00  1.70000000E+00  1.70000000E+00  1.70000000E+00
  1.70000000E+00  1.70000000E+00  1.70000000E+00  1.70000000E+00  1.70000000E+00
  1.70000000E+00  1.70000000E+00  1.70000000E+00  1.70000000E+00  1.70000000E+00
  1.30000000E+00  1.70000000E+00  1.30000000E+00  1.30000000E+00  1.70000000E+00
  1.30000000E+00  1.70000000E+00  1.70000000E+00  1.30000000E+00  1.70000000E+00
  1.30000000E+00  1.70000000E+00  1.30000000E+00  1.70000000E+00  1.30000000E+00
  1.70000000E+00  1.30000000E+00  1.70000000E+00  1.30000000E+00  1.70000000E+00
  1.30000000E+00  1.70000000E+00  1.30000000E+00  1.70000000E+00  1.30000000E+00
  1.30000000E+00  1.70000000E+00  1.30000000E+00  1.30000000E+00  1.30000000E+00
  1.70000000E+00  1.30000000E+00  1.70000000E+00  1.30000000E+00  1.30000000E+00
  1.70000000E+00  1.30000000E+00  1.30000000E+00  1.70000000E+00  1.30000000E+00
  1.30000000E+00  1.50000000E+00  1.50000000E+00  1.50000000E+00  1.50000000E+00
  1.50000000E+00  1.50000000E+00  1.70000000E+00  1.70000000E+00  1.70000000E+00
  1.70000000E+00  1.70000000E+00  1.70000000E+00  1.30000000E+00  1.30000000E+00
  1.30000000E+00  1.30000000E+00  1.30000000E+00  1.30000000E+00  1.30000000E+00
  1.30000000E+00  1.30000000E+00  1.30000000E+00  1.30000000E+00  1.30000000E+00
  1.30000000E+00  1.30000000E+00  1.30000000E+00  1.30000000E+00  1.30000000E+00
  1.30000000E+00  1.50000000E+00  1.70000000E+00  1.70000000E+00  1.70000000E+00
  1.70000000E+00  1.30000000E+00  1.30000000E+00  1.30000000E+00  1.70000000E+00
  1.30000000E+00  1.70000000E+00  1.30000000E+00  1.70000000E+00  1.30000000E+00
  1.30000000E+00  1.55000000E+00  1.70000000E+00  1.70000000E+00  1.70000000E+00
  1.70000000E+00  1.70000000E+00  1.70000000E+00  1.70000000E+00  1.30000000E+00
  1.70000000E+00  1.30000000E+00  1.70000000E+00  1.30000000E+00  1.70000000E+00
  1.30000000E+00  1.70000000E+00  1.70000000E+00  1.30000000E+00  1.70000000E+00
  1.30000000E+00  1.30000000E+00  1.70000000E+00  1.70000000E+00  1.70000000E+00
  1.70000000E+00  1.50000000E+00  1.70000000E+00  1.70000000E+00  1.70000000E+00
  1.70000000E+00  1.70000000E+00  1.70000000E+00  1.70000000E+00  1.70000000E+00
  1.30000000E+00  1.70000000E+00  1.30000000E+00  1.70000000E+00  1.30000000E+00
  1.70000000E+00  1.30000000E+00  1.70000000E+00  1.70000000E+00  1.30000000E+00
  1.30000000E+00  1.30000000E+00  1.30000000E+00  1.55000000E+00  1.55000000E+00
  1.70000000E+00  1.30000000E+00  1.55000000E+00  1.70000000E+00  1.30000000E+00
  1.70000000E+00  1.70000000E+00  1.70000000E+00  1.70000000E+00  1.30000000E+00
  1.70000000E+00  1.70000000E+00  1.30000000E+00  1.70000000E+00  1.70000000E+00
  1.70000000E+00  1.70000000E+00  1.70000000E+00  1.70000000E+00  1.70000000E+00
  1.70000000E+00  1.70000000E+00  1.70000000E+00  1.70000000E+00  1.70000000E+00
  1.70000000E+00  1.30000000E+00  1.70000000E+00  1.30000000E+00  1.30000000E+00
  1.70000000E+00  1.30000000E+00  1.70000000E+00  1.70000000E+00  1.30000000E+00
  1.70000000E+00  1.30000000E+00  1.70000000E+00  1.30000000E+00  1.70000000E+00
  1.30000000E+00  1.70000000E+00  1.30000000E+00  1.70000000E+00  1.30000000E+00
  1.70000000E+00  1.30000000E+00  1.70000000E+00  1.30000000E+00  1.70000000E+00
  1.30000000E+00  1.30000000E+00  1.70000000E+00  1.30000000E+00  1.30000000E+00
  1.30000000E+00  1.70000000E+00  1.30000000E+00  1.70000000E+00  1.30000000E+00
  1.30000000E+00  1.70000000E+00  1.30000000E+00  1.30000000E+00  1.70000000E+00
  1.30000000E+00  1.30000000E+00  1.50000000E+00  1.50000000E+00  1.50000000E+00
  1.50000000E+00  1.50000000E+00  1.50000000E+00  1.70000000E+00  1.70000000E+00
  1.70000000E+00  1.70000000E+00  1.70000000E+00  1.70000000E+00  1.30000000E+00
  1.30000000E+00  1.30000000E+00  1.30000000E+00  1.30000000E+00  1.30000000E+00
  1.30000000E+00  1.30000000E+00  1.30000000E+00  1.30000000E+00  1.30000000E+00
  1.30000000E+00  1.30000000E+00  1.30000000E+00  1.30000000E+00  1.30000000E+00
  1.30000000E+00  1.30000000E+00  1.50000000E+00  1.70000000E+00  1.70000000E+00
  1.70000000E+00  1.70000000E+00  1.30000000E+00  1.30000000E+00  1.30000000E+00
  1.70000000E+00  1.30000000E+00  1.70000000E+00  1.30000000E+00  1.70000000E+00
  1.30000000E+00  1.30000000E+00  1.55000000E+00  1.70000000E+00  1.70000000E+00
  1.70000000E+00  1.70000000E+00  1.70000000E+00  1.70000000E+00  1.70000000E+00
  1.30000000E+00  1.70000000E+00  1.30000000E+00  1.70000000E+00  1.30000000E+00
  1.70000000E+00  1.30000000E+00  1.70000000E+00  1.70000000E+00  1.30000000E+00
  1.70000000E+00  1.30000000E+00  1.30000000E+00  1.70000000E+00  1.70000000E+00
  1.70000000E+00  1.70000000E+00  1.50000000E+00  1.70000000E+00  1.70000000E+00
  1.70000000E+00  1.70000000E+00  1.70000000E+00  1.70000000E+00  1.70000000E+00
  1.70000000E+00  1.30000000E+00  1.70000000E+00  1.30000000E+00  1.70000000E+00
  1.30000000E+00  1.70000000E+00  1.30000000E+00  1.70000000E+00  1.70000000E+00
  1.30000000E+00  1.30000000E+00  1.30000000E+00  1.30000000E+00  1.55000000E+00
  1.55000000E+00  1.70000000E+00  1.30000000E+00  1.55000000E+00  1.70000000E+00
  1.30000000E+00  1.70000000E+00  1.70000000E+00  1.70000000E+00  1.70000000E+00
  1.30000000E+00  1.70000000E+00  1.70000000E+00  1.30000000E+00  1.70000000E+00
  1.70000000E+00  1.70000000E+00  1.70000000E+00  1.70000000E+00  1.70000000E+00
  1.70000000E+00  1.70000000E+00  1.70000000E+00  1.70000000E+00  1.70000000E+00
  1.70000000E+00  1.70000000E+00  1.30000000E+00  1.70000000E+00  1.30000000E+00
  1.30000000E+00  1.70000000E+00  1.30000000E+00  1.70000000E+00  1.70000000E+00
  1.30000000E+00  1.70000000E+00  1.30000000E+00  1.70000000E+00  1.30000000E+00
  1.70000000E+00  1.30000000E+00  1.70000000E+00  1.30000000E+00  1.70000000E+00
  1.30000000E+00  1.70000000E+00  1.30000000E+00  1.70000000E+00  1.30000000E+00
  1.70000000E+00  1.30000000E+00  1.30000000E+00  1.70000000E+00  1.30000000E+00
  1.30000000E+00  1.30000000E+00  1.70000000E+00  1.30000000E+00  1.70000000E+00
  1.30000000E+00  1.30000000E+00  1.70000000E+00  1.30000000E+00  1.30000000E+00
  1.70000000E+00  1.30000000E+00  1.30000000E+00  1.50000000E+00  1.50000000E+00
  1.50000000E+00  1.50000000E+00  1.50000000E+00  1.50000000E+00  1.70000000E+00
  1.70000000E+00  1.70000000E+00  1.70000000E+00  1.70000000E+00  1.70000000E+00
  1.30000000E+00  1.30000000E+00  1.30000000E+00  1.30000000E+00  1.30000000E+00
  1.30000000E+00  1.30000000E+00  1.30000000E+00  1.30000000E+00  1.30000000E+00
  1.30000000E+00  1.30000000E+00  1.30000000E+00  1.30000000E+00  1.30000000E+00
  1.30000000E+00  1.30000000E+00  1.30000000E+00  1.50000000E+00  1.70000000E+00
  1.70000000E+00  1.70000000E+00  1.70000000E+00  1.30000000E+00  1.30000000E+00
  1.30000000E+00  1.70000000E+00  1.30000000E+00  1.70000000E+00  1.30000000E+00
  1.70000000E+00  1.30000000E+00  1.30000000E+00  1.55000000E+00  1.70000000E+00
  1.70000000E+00  1.70000000E+00  1.70000000E+00  1.70000000E+00  1.70000000E+00
  1.70000000E+00  1.30000000E+00  1.70000000E+00  1.30000000E+00  1.70000000E+00
  1.30000000E+00  1.70000000E+00  1.30000000E+00  1.70000000E+00  1.70000000E+00
  1.30000000E+00  1.70000000E+00  1.30000000E+00  1.30000000E+00  1.70000000E+00
  1.70000000E+00  1.70000000E+00  1.70000000E+00  1.50000000E+00  1.70000000E+00
  1.70000000E+00  1.70000000E+00  1.70000000E+00  1.70000000E+00  1.70000000E+00
  1.70000000E+00  1.70000000E+00  1.30000000E+00  1.70000000E+00  1.30000000E+00
  1.70000000E+00  1.30000000E+00  1.70000000E+00  1.30000000E+00  1.70000000E+00
  1.70000000E+00  1.30000000E+00  1.30000000E+00  1.30000000E+00  1.30000000E+00
  1.55000000E+00  1.55000000E+00  1.70000000E+00  1.30000000E+00  1.55000000E+00
  1.70000000E+00  1.30000000E+00  1.70000000E+00  1.70000000E+00  1.70000000E+00
  1.70000000E+00  1.30000000E+00  1.70000000E+00  1.70000000E+00  1.30000000E+00
  1.70000000E+00  1.70000000E+00  1.70000000E+00  1.70000000E+00  1.70000000E+00
  1.70000000E+00  1.70000000E+00  1.70000000E+00  1.70000000E+00  1.70000000E+00
  1.70000000E+00  1.70000000E+00  1.70000000E+00  1.30000000E+00  1.70000000E+00
  1.30000000E+00  1.30000000E+00  1.70000000E+00  1.30000000E+00  1.70000000E+00
  1.70000000E+00  1.30000000E+00  1.70000000E+00  1.30000000E+00  1.70000000E+00
  1.30000000E+00  1.70000000E+00  1.30000000E+00  1.70000000E+00  1.30000000E+00
  1.70000000E+00  1.30000000E+00  1.70000000E+00  1.30000000E+00  1.70000000E+00
  1.30000000E+00  1.70000000E+00  1.30000000E+00  1.30000000E+00  1.70000000E+00
  1.30000000E+00  1.30000000E+00  1.30000000E+00  1.70000000E+00  1.30000000E+00
  1.70000000E+00  1.30000000E+00  1.30000000E+00  1.70000000E+00  1.30000000E+00
  1.30000000E+00  1.70000000E+00  1.30000000E+00  1.30000000E+00  1.50000000E+00
  1.50000000E+00  1.50000000E+00  1.50000000E+00  1.50000000E+00  1.50000000E+00
  1.70000000E+00  1.70000000E+00  1.70000000E+00  1.70000000E+00  1.70000000E+00
  1.70000000E+00  1.30000000E+00  1.30000000E+00  1.30000000E+00  1.30000000E+00
  1.30000000E+00  1.30000000E+00  1.30000000E+00  1.30000000E+00  1.30000000E+00
  1.30000000E+00  1.30000000E+00  1.30000000E+00  1.30000000E+00  1.30000000E+00
  1.30000000E+00  1.30000000E+00  1.30000000E+00  1.30000000E+00  1.50000000E+00
  1.70000000E+00  1.70000000E+00  1.70000000E+00  1.70000000E+00  1.30000000E+00
  1.30000000E+00  1.30000000E+00  1.70000000E+00  1.30000000E+00  1.70000000E+00
  1.30000000E+00  1.70000000E+00  1.30000000E+00  1.30000000E+00  1.55000000E+00
  1.70000000E+00  1.70000000E+00  1.70000000E+00  1.70000000E+00  1.70000000E+00
  1.70000000E+00  1.70000000E+00  1.30000000E+00  1.70000000E+00  1.30000000E+00
  1.70000000E+00  1.30000000E+00  1.70000000E+00  1.30000000E+00  1.70000000E+00
  1.70000000E+00  1.30000000E+00  1.70000000E+00  1.30000000E+00  1.30000000E+00
  1.70000000E+00  1.70000000E+00  1.70000000E+00  1.70000000E+00  1.50000000E+00
  1.70000000E+00  1.70000000E+00  1.70000000E+00  1.70000000E+00  1.70000000E+00
  1.70000000E+00  1.70000000E+00  1.70000000E+00  1.30000000E+00  1.70000000E+00
  1.30000000E+00  1.70000000E+00  1.30000000E+00  1.70000000E+00  1.30000000E+00
  1.70000000E+00  1.70000000E+00  1.30000000E+00  1.30000000E+00  1.30000000E+00
  1.30000000E+00  1.55000000E+00  1.55000000E+00  1.70000000E+00  1.30000000E+00
  1.55000000E+00  1.70000000E+00  1.30000000E+00  1.70000000E+00  1.70000000E+00
  1.70000000E+00  1.70000000E+00  1.30000000E+00  1.70000000E+00  1.70000000E+00
  1.30000000E+00  1.70000000E+00  1.70000000E+00  1.70000000E+00  1.70000000E+00
  1.70000000E+00  1.70000000E+00  1.70000000E+00  1.70000000E+00  1.70000000E+00
  1.70000000E+00  1.70000000E+00  1.70000000E+00  1.70000000E+00  1.30000000E+00
  1.70000000E+00  1.30000000E+00  1.30000000E+00  1.70000000E+00  1.30000000E+00
  1.70000000E+00  1.70000000E+00  1.30000000E+00  1.70000000E+00  1.30000000E+00
  1.70000000E+00  1.30000000E+00  1.70000000E+00  1.30000000E+00  1.70000000E+00
  1.30000000E+00  1.70000000E+00  1.30000000E+00  1.70000000E+00  1.30000000E+00
  1.70000000E+00  1.30000000E+00  1.70000000E+00  1.30000000E+00  1.30000000E+00
  1.70000000E+00  1.30000000E+00  1.30000000E+00  1.30000000E+00  1.70000000E+00
  1.30000000E+00  1.70000000E+00  1.30000000E+00  1.30000000E+00  1.70000000E+00
  1.30000000E+00  1.30000000E+00  1.70000000E+00  1.30000000E+00  1.30000000E+00
  1.50000000E+00  1.50000000E+00  1.50000000E+00  1.50000000E+00  1.50000000E+00
  1.50000000E+00  1.70000000E+00  1.70000000E+00  1.70000000E+00  1.70000000E+00
  1.70000000E+00  1.70000000E+00  1.30000000E+00  1.30000000E+00  1.30000000E+00
  1.30000000E+00  1.30000000E+00  1.30000000E+00  1.30000000E+00  1.30000000E+00
  1.30000000E+00  1.30000000E+00  1.30000000E+00  1.30000000E+00  1.30000000E+00
  1.30000000E+00  1.30000000E+00  1.30000000E+00  1.30000000E+00  1.30000000E+00
  1.50000000E+00  1.70000000E+00  1.70000000E+00  1.70000000E+00  1.70000000E+00
  1.30000000E+00  1.30000000E+00  1.30000000E+00  1.70000000E+00  1.30000000E+00
  1.70000000E+00  1.30000000E+00  1.70000000E+00  1.30000000E+00  1.30000000E+00
  1.55000000E+00  1.70000000E+00  1.70000000E+00  1.70000000E+00  1.70000000E+00
  1.70000000E+00  1.70000000E+00  1.70000000E+00  1.30000000E+00  1.70000000E+00
  1.30000000E+00  1.70000000E+00  1.30000000E+00  1.70000000E+00  1.30000000E+00
  1.70000000E+00  1.70000000E+00  1.30000000E+00  1.70000000E+00  1.30000000E+00
  1.30000000E+00  1.70000000E+00  1.70000000E+00  1.70000000E+00  1.70000000E+00
  1.50000000E+00  1.70000000E+00  1.70000000E+00  1.70000000E+00  1.70000000E+00
  1.70000000E+00  1.70000000E+00  1.70000000E+00  1.70000000E+00  1.30000000E+00
  1.70000000E+00  1.30000000E+00  1.70000000E+00  1.30000000E+00  1.70000000E+00
  1.30000000E+00  1.70000000E+00  1.70000000E+00  1.30000000E+00  1.30000000E+00
  1.30000000E+00  1.30000000E+00  1.55000000E+00  1.55000000E+00  1.70000000E+00
  1.30000000E+00  1.55000000E+00  1.70000000E+00  1.30000000E+00  1.70000000E+00
  1.70000000E+00  1.70000000E+00  1.70000000E+00  1.30000000E+00  1.70000000E+00
  1.70000000E+00  1.30000000E+00  1.70000000E+00  1.70000000E+00  1.70000000E+00
  1.70000000E+00  1.70000000E+00  1.70000000E+00  1.70000000E+00  1.70000000E+00
  1.70000000E+00  1.70000000E+00  1.70000000E+00  1.70000000E+00  1.70000000E+00
  1.30000000E+00  1.70000000E+00  1.30000000E+00  1.30000000E+00  1.70000000E+00
  1.30000000E+00  1.70000000E+00  1.70000000E+00  1.30000000E+00  1.70000000E+00
  1.30000000E+00  1.70000000E+00  1.30000000E+00  1.70000000E+00  1.30000000E+00
  1.70000000E+00  1.30000000E+00  1.70000000E+00  1.30000000E+00  1.70000000E+00
  1.30000000E+00  1.70000000E+00  1.30000000E+00  1.70000000E+00  1.30000000E+00
  1.30000000E+00  1.70000000E+00  1.30000000E+00  1.30000000E+00  1.30000000E+00
  1.70000000E+00  1.30000000E+00  1.70000000E+00  1.30000000E+00  1.30000000E+00
  1.70000000E+00  1.30000000E+00  1.30000000E+00  1.70000000E+00  1.30000000E+00
  1.30000000E+00  1.50000000E+00  1.50000000E+00  1.50000000E+00  1.50000000E+00
  1.50000000E+00  1.50000000E+00  1.70000000E+00  1.70000000E+00  1.70000000E+00
  1.70000000E+00  1.70000000E+00  1.70000000E+00  1.30000000E+00  1.30000000E+00
  1.30000000E+00  1.30000000E+00  1.30000000E+00  1.30000000E+00  1.30000000E+00
  1.30000000E+00  1.30000000E+00  1.30000000E+00  1.30000000E+00  1.30000000E+00
  1.30000000E+00  1.30000000E+00  1.30000000E+00  1.30000000E+00  1.30000000E+00
  1.30000000E+00  1.50000000E+00  1.70000000E+00  1.70000000E+00  1.70000000E+00
  1.70000000E+00  1.30000000E+00  1.30000000E+00  1.30000000E+00  1.70000000E+00
  1.30000000E+00  1.70000000E+00  1.30000000E+00  1.70000000E+00  1.30000000E+00
  1.30000000E+00  1.55000000E+00  1.70000000E+00  1.70000000E+00  1.70000000E+00
  1.70000000E+00  1.70000000E+00  1.70000000E+00  1.70000000E+00  1.30000000E+00
  1.70000000E+00  1.30000000E+00  1.70000000E+00  1.30000000E+00  1.70000000E+00
  1.30000000E+00  1.70000000E+00  1.70000000E+00  1.30000000E+00  1.70000000E+00
  1.30000000E+00  1.30000000E+00  1.70000000E+00  1.70000000E+00  1.70000000E+00
  1.70000000E+00  1.50000000E+00  1.70000000E+00  1.70000000E+00  1.70000000E+00
  1.70000000E+00  1.70000000E+00  1.70000000E+00  1.70000000E+00  1.70000000E+00
  1.30000000E+00  1.70000000E+00  1.30000000E+00  1.70000000E+00  1.30000000E+00
  1.70000000E+00  1.30000000E+00  1.70000000E+00  1.70000000E+00  1.30000000E+00
  1.30000000E+00  1.30000000E+00  1.30000000E+00  1.55000000E+00  1.55000000E+00
  1.70000000E+00  1.30000000E+00  1.55000000E+00  1.70000000E+00  1.30000000E+00
  1.70000000E+00  1.70000000E+00  1.70000000E+00  1.70000000E+00  1.30000000E+00
  1.70000000E+00  1.70000000E+00  1.30000000E+00  1.70000000E+00  1.70000000E+00
  1.70000000E+00  1.70000000E+00  1.70000000E+00  1.70000000E+00  1.70000000E+00
  1.70000000E+00  1.70000000E+00  1.70000000E+00  1.70000000E+00  1.70000000E+00
  1.70000000E+00  1.30000000E+00  1.70000000E+00  1.30000000E+00  1.30000000E+00
  1.70000000E+00  1.30000000E+00  1.70000000E+00  1.70000000E+00  1.30000000E+00
  1.70000000E+00  1.30000000E+00  1.70000000E+00  1.30000000E+00  1.70000000E+00
  1.30000000E+00  1.70000000E+00  1.30000000E+00  1.70000000E+00  1.30000000E+00
  1.70000000E+00  1.30000000E+00  1.70000000E+00  1.30000000E+00  1.70000000E+00
  1.30000000E+00  1.30000000E+00  1.70000000E+00  1.30000000E+00  1.30000000E+00
  1.30000000E+00  1.70000000E+00  1.30000000E+00  1.70000000E+00  1.30000000E+00
  1.30000000E+00  1.70000000E+00  1.30000000E+00  1.30000000E+00  1.70000000E+00
  1.30000000E+00  1.30000000E+00  1.50000000E+00  1.50000000E+00  1.50000000E+00
  1.50000000E+00  1.50000000E+00  1.50000000E+00  1.70000000E+00  1.70000000E+00
  1.70000000E+00  1.70000000E+00  1.70000000E+00  1.70000000E+00  1.30000000E+00
  1.30000000E+00  1.30000000E+00  1.30000000E+00  1.30000000E+00  1.30000000E+00
  1.30000000E+00  1.30000000E+00  1.30000000E+00  1.30000000E+00  1.30000000E+00
  1.30000000E+00  1.30000000E+00  1.30000000E+00  1.30000000E+00  1.30000000E+00
  1.30000000E+00  1.30000000E+00  1.50000000E+00  1.70000000E+00  1.70000000E+00
  1.70000000E+00  1.70000000E+00  1.30000000E+00  1.30000000E+00  1.30000000E+00
  1.70000000E+00  1.30000000E+00  1.70000000E+00  1.30000000E+00  1.70000000E+00
  1.30000000E+00  1.30000000E+00  1.55000000E+00  1.70000000E+00  1.70000000E+00
  1.70000000E+00  1.70000000E+00  1.70000000E+00  1.70000000E+00  1.70000000E+00
  1.30000000E+00  1.70000000E+00  1.30000000E+00  1.70000000E+00  1.30000000E+00
  1.70000000E+00  1.30000000E+00  1.70000000E+00  1.70000000E+00  1.30000000E+00
  1.70000000E+00  1.30000000E+00  1.30000000E+00  1.70000000E+00  1.70000000E+00
  1.70000000E+00  1.70000000E+00  1.50000000E+00  1.70000000E+00  1.70000000E+00
  1.70000000E+00  1.70000000E+00  1.70000000E+00  1.70000000E+00  1.70000000E+00
  1.70000000E+00  1.30000000E+00  1.70000000E+00  1.30000000E+00  1.70000000E+00
  1.30000000E+00  1.70000000E+00  1.30000000E+00  1.70000000E+00  1.70000000E+00
  1.30000000E+00  1.30000000E+00  1.30000000E+00  1.30000000E+00  1.55000000E+00
  1.55000000E+00  1.70000000E+00  1.30000000E+00  1.55000000E+00  1.70000000E+00
  1.30000000E+00  1.70000000E+00  1.70000000E+00  1.70000000E+00  1.70000000E+00
  1.30000000E+00  1.70000000E+00  1.70000000E+00  1.30000000E+00  1.70000000E+00
  1.70000000E+00  1.70000000E+00  1.70000000E+00  1.70000000E+00  1.70000000E+00
  1.70000000E+00  1.70000000E+00  1.70000000E+00  1.70000000E+00  1.70000000E+00
  1.70000000E+00  1.70000000E+00  1.30000000E+00  1.70000000E+00  1.30000000E+00
  1.30000000E+00  1.70000000E+00  1.30000000E+00  1.70000000E+00  1.70000000E+00
  1.30000000E+00  1.70000000E+00  1.30000000E+00  1.70000000E+00  1.30000000E+00
  1.70000000E+00  1.30000000E+00  1.70000000E+00  1.30000000E+00  1.70000000E+00
  1.30000000E+00  1.70000000E+00  1.30000000E+00  1.70000000E+00  1.30000000E+00
  1.70000000E+00  1.30000000E+00  1.30000000E+00  1.70000000E+00  1.30000000E+00
  1.30000000E+00  1.30000000E+00  1.70000000E+00  1.30000000E+00  1.70000000E+00
  1.30000000E+00  1.30000000E+00  1.70000000E+00  1.30000000E+00  1.30000000E+00
  1.70000000E+00  1.30000000E+00  1.30000000E+00  1.50000000E+00  1.50000000E+00
  1.50000000E+00  1.50000000E+00  1.50000000E+00  1.50000000E+00  1.70000000E+00
  1.70000000E+00  1.70000000E+00  1.70000000E+00  1.70000000E+00  1.70000000E+00
  1.30000000E+00  1.30000000E+00  1.30000000E+00  1.30000000E+00  1.30000000E+00
  1.30000000E+00  1.30000000E+00  1.30000000E+00  1.30000000E+00  1.30000000E+00
  1.30000000E+00  1.30000000E+00  1.30000000E+00  1.30000000E+00  1.30000000E+00
  1.30000000E+00  1.30000000E+00  1.30000000E+00  1.50000000E+00  1.70000000E+00
  1.70000000E+00  1.70000000E+00  1.70000000E+00  1.30000000E+00  1.30000000E+00
  1.30000000E+00  1.70000000E+00  1.30000000E+00  1.70000000E+00  1.30000000E+00
  1.70000000E+00  1.30000000E+00  1.30000000E+00  1.55000000E+00  1.70000000E+00
  1.70000000E+00  1.70000000E+00  1.70000000E+00  1.70000000E+00  1.70000000E+00
  1.70000000E+00  1.30000000E+00  1.70000000E+00  1.30000000E+00  1.70000000E+00
  1.30000000E+00  1.70000000E+00  1.30000000E+00  1.70000000E+00  1.70000000E+00
  1.30000000E+00  1.70000000E+00  1.30000000E+00  1.30000000E+00  1.70000000E+00
  1.70000000E+00  1.70000000E+00  1.70000000E+00  1.50000000E+00  1.70000000E+00
  1.70000000E+00  1.70000000E+00  1.70000000E+00  1.70000000E+00  1.70000000E+00
  1.70000000E+00  1.70000000E+00  1.30000000E+00  1.70000000E+00  1.30000000E+00
  1.70000000E+00  1.30000000E+00  1.70000000E+00  1.30000000E+00  1.70000000E+00
  1.70000000E+00  1.30000000E+00  1.30000000E+00  1.30000000E+00  1.30000000E+00
  1.55000000E+00  1.55000000E+00  1.70000000E+00  1.30000000E+00  1.55000000E+00
  1.70000000E+00  1.30000000E+00  1.70000000E+00  1.70000000E+00  1.70000000E+00
  1.70000000E+00  1.30000000E+00  1.70000000E+00  1.70000000E+00  1.30000000E+00
  1.70000000E+00  1.70000000E+00  1.70000000E+00  1.70000000E+00  1.70000000E+00
  1.70000000E+00  1.70000000E+00  1.70000000E+00  1.70000000E+00  1.70000000E+00
  1.70000000E+00  1.70000000E+00  1.70000000E+00  1.30000000E+00  1.70000000E+00
  1.30000000E+00  1.30000000E+00  1.70000000E+00  1.30000000E+00  1.70000000E+00
  1.70000000E+00  1.30000000E+00  1.70000000E+00  1.30000000E+00  1.70000000E+00
  1.30000000E+00  1.70000000E+00  1.30000000E+00  1.70000000E+00  1.30000000E+00
  1.70000000E+00  1.30000000E+00  1.70000000E+00  1.30000000E+00  1.70000000E+00
  1.30000000E+00  1.70000000E+00  1.30000000E+00  1.30000000E+00  1.70000000E+00
  1.30000000E+00  1.30000000E+00  1.30000000E+00  1.70000000E+00  1.30000000E+00
  1.70000000E+00  1.30000000E+00  1.30000000E+00  1.70000000E+00  1.30000000E+00
  1.30000000E+00  1.70000000E+00  1.30000000E+00  1.30000000E+00  1.50000000E+00
  1.50000000E+00  1.50000000E+00  1.50000000E+00  1.50000000E+00  1.50000000E+00
  1.70000000E+00  1.70000000E+00  1.70000000E+00  1.70000000E+00  1.70000000E+00
  1.70000000E+00  1.30000000E+00  1.30000000E+00  1.30000000E+00  1.30000000E+00
  1.30000000E+00  1.30000000E+00  1.30000000E+00  1.30000000E+00  1.30000000E+00
  1.30000000E+00  1.30000000E+00  1.30000000E+00  1.30000000E+00  1.30000000E+00
  1.30000000E+00  1.30000000E+00  1.30000000E+00  1.30000000E+00  1.50000000E+00
  1.70000000E+00  1.70000000E+00  1.70000000E+00  1.70000000E+00  1.30000000E+00
  1.30000000E+00  1.30000000E+00  1.70000000E+00  1.30000000E+00  1.70000000E+00
  1.30000000E+00  1.70000000E+00  1.30000000E+00  1.30000000E+00  1.55000000E+00
  1.70000000E+00  1.70000000E+00  1.70000000E+00  1.70000000E+00  1.70000000E+00
  1.70000000E+00  1.70000000E+00  1.30000000E+00  1.70000000E+00  1.30000000E+00
  1.70000000E+00  1.30000000E+00  1.70000000E+00  1.30000000E+00  1.70000000E+00
  1.70000000E+00  1.30000000E+00  1.70000000E+00  1.30000000E+00  1.30000000E+00
  1.70000000E+00  1.70000000E+00  1.70000000E+00  1.70000000E+00  1.50000000E+00
  1.70000000E+00  1.70000000E+00  1.70000000E+00  1.70000000E+00  1.70000000E+00
  1.70000000E+00  1.70000000E+00  1.70000000E+00  1.30000000E+00  1.70000000E+00
  1.30000000E+00  1.70000000E+00  1.30000000E+00  1.70000000E+00  1.30000000E+00
  1.70000000E+00  1.70000000E+00  1.30000000E+00  1.30000000E+00  1.30000000E+00
  1.30000000E+00  1.55000000E+00  1.55000000E+00  1.70000000E+00  1.30000000E+00
  1.55000000E+00  1.70000000E+00  1.30000000E+00  1.70000000E+00  1.70000000E+00
  1.70000000E+00  1.70000000E+00  1.30000000E+00  1.70000000E+00  1.70000000E+00
  1.30000000E+00  1.70000000E+00  1.70000000E+00  1.70000000E+00  1.70000000E+00
  1.70000000E+00  1.70000000E+00  1.70000000E+00  1.70000000E+00  1.70000000E+00
  1.70000000E+00  1.70000000E+00  1.70000000E+00  1.70000000E+00  1.30000000E+00
  1.70000000E+00  1.30000000E+00  1.30000000E+00  1.70000000E+00  1.30000000E+00
  1.70000000E+00  1.70000000E+00  1.30000000E+00  1.70000000E+00  1.30000000E+00
  1.70000000E+00  1.30000000E+00  1.70000000E+00  1.30000000E+00  1.70000000E+00
  1.30000000E+00  1.70000000E+00  1.30000000E+00  1.70000000E+00  1.30000000E+00
  1.70000000E+00  1.30000000E+00  1.70000000E+00  1.30000000E+00  1.30000000E+00
  1.70000000E+00  1.30000000E+00  1.30000000E+00  1.30000000E+00  1.70000000E+00
  1.30000000E+00  1.70000000E+00  1.30000000E+00  1.30000000E+00  1.70000000E+00
  1.30000000E+00  1.30000000E+00  1.70000000E+00  1.30000000E+00  1.30000000E+00
  1.50000000E+00  1.50000000E+00  1.50000000E+00  1.50000000E+00  1.50000000E+00
  1.50000000E+00  1.70000000E+00  1.70000000E+00  1.70000000E+00  1.70000000E+00
  1.70000000E+00  1.70000000E+00  1.30000000E+00  1.30000000E+00  1.30000000E+00
  1.30000000E+00  1.30000000E+00  1.30000000E+00  1.30000000E+00  1.30000000E+00
  1.30000000E+00  1.30000000E+00  1.30000000E+00  1.30000000E+00  1.30000000E+00
  1.30000000E+00  1.30000000E+00  1.30000000E+00  1.30000000E+00  1.30000000E+00
  1.50000000E+00  1.70000000E+00  1.70000000E+00  1.70000000E+00  1.70000000E+00
  1.30000000E+00  1.30000000E+00  1.30000000E+00  1.70000000E+00  1.30000000E+00
  1.70000000E+00  1.30000000E+00  1.70000000E+00  1.30000000E+00  1.30000000E+00
  1.55000000E+00  1.70000000E+00  1.70000000E+00  1.70000000E+00  1.70000000E+00
  1.70000000E+00  1.70000000E+00  1.70000000E+00  1.30000000E+00  1.70000000E+00
  1.30000000E+00  1.70000000E+00  1.30000000E+00  1.70000000E+00  1.30000000E+00
  1.70000000E+00  1.70000000E+00  1.30000000E+00  1.70000000E+00  1.30000000E+00
  1.30000000E+00  1.70000000E+00  1.70000000E+00  1.70000000E+00  1.70000000E+00
  1.50000000E+00  1.70000000E+00  1.70000000E+00  1.70000000E+00  1.70000000E+00
  1.70000000E+00  1.70000000E+00  1.70000000E+00  1.70000000E+00  1.30000000E+00
  1.70000000E+00  1.30000000E+00  1.70000000E+00  1.30000000E+00  1.70000000E+00
  1.30000000E+00  1.70000000E+00  1.70000000E+00  1.30000000E+00  1.30000000E+00
  1.30000000E+00  1.30000000E+00  1.55000000E+00  1.55000000E+00  1.70000000E+00
  1.30000000E+00  1.55000000E+00  1.70000000E+00  1.30000000E+00  1.70000000E+00
  1.70000000E+00  1.70000000E+00  1.70000000E+00  1.30000000E+00  1.70000000E+00
  1.70000000E+00  1.30000000E+00  1.70000000E+00  1.70000000E+00  1.70000000E+00
  1.70000000E+00  1.70000000E+00  1.70000000E+00  1.70000000E+00  1.70000000E+00
  1.70000000E+00  1.70000000E+00  1.70000000E+00  1.70000000E+00  1.70000000E+00
  1.30000000E+00  1.70000000E+00  1.30000000E+00  1.30000000E+00  1.70000000E+00
  1.30000000E+00  1.70000000E+00  1.70000000E+00  1.30000000E+00  1.70000000E+00
  1.30000000E+00  1.70000000E+00  1.30000000E+00  1.70000000E+00  1.30000000E+00
  1.70000000E+00  1.30000000E+00  1.70000000E+00  1.30000000E+00  1.70000000E+00
  1.30000000E+00  1.70000000E+00  1.30000000E+00  1.70000000E+00  1.30000000E+00
  1.30000000E+00  1.70000000E+00  1.30000000E+00  1.30000000E+00  1.30000000E+00
  1.70000000E+00  1.30000000E+00  1.70000000E+00  1.30000000E+00  1.30000000E+00
  1.70000000E+00  1.30000000E+00  1.30000000E+00  1.70000000E+00  1.30000000E+00
  1.30000000E+00  1.50000000E+00  1.50000000E+00  1.50000000E+00  1.50000000E+00
  1.50000000E+00  1.50000000E+00  1.70000000E+00  1.70000000E+00  1.70000000E+00
  1.70000000E+00  1.70000000E+00  1.70000000E+00  1.30000000E+00  1.30000000E+00
  1.30000000E+00  1.30000000E+00  1.30000000E+00  1.30000000E+00  1.30000000E+00
  1.30000000E+00  1.30000000E+00  1.30000000E+00  1.30000000E+00  1.30000000E+00
  1.30000000E+00  1.30000000E+00  1.30000000E+00  1.30000000E+00  1.30000000E+00
  1.30000000E+00  1.50000000E+00  1.70000000E+00  1.70000000E+00  1.70000000E+00
  1.70000000E+00  1.30000000E+00  1.30000000E+00  1.30000000E+00  1.70000000E+00
  1.30000000E+00  1.70000000E+00  1.30000000E+00  1.70000000E+00  1.30000000E+00
  1.30000000E+00  1.55000000E+00  1.70000000E+00  1.70000000E+00  1.70000000E+00
  1.70000000E+00  1.70000000E+00  1.70000000E+00  1.70000000E+00  1.30000000E+00
  1.70000000E+00  1.30000000E+00  1.70000000E+00  1.30000000E+00  1.70000000E+00
  1.30000000E+00  1.70000000E+00  1.70000000E+00  1.30000000E+00  1.70000000E+00
  1.30000000E+00  1.30000000E+00  1.70000000E+00  1.70000000E+00  1.70000000E+00
  1.70000000E+00  1.50000000E+00  1.70000000E+00  1.70000000E+00  1.70000000E+00
  1.70000000E+00  1.70000000E+00  1.70000000E+00  1.70000000E+00  1.70000000E+00
  1.30000000E+00  1.70000000E+00  1.30000000E+00  1.70000000E+00  1.30000000E+00
  1.70000000E+00  1.30000000E+00  1.70000000E+00  1.70000000E+00  1.30000000E+00
  1.30000000E+00  1.30000000E+00  1.30000000E+00  1.55000000E+00  1.55000000E+00
  1.70000000E+00  1.30000000E+00  1.55000000E+00  1.70000000E+00  1.30000000E+00
  1.70000000E+00  1.70000000E+00  1.70000000E+00  1.70000000E+00  1.30000000E+00
  1.70000000E+00  1.70000000E+00  1.30000000E+00  1.70000000E+00  1.70000000E+00
  1.70000000E+00  1.70000000E+00  1.70000000E+00  1.70000000E+00  1.70000000E+00
  1.70000000E+00  1.70000000E+00  1.70000000E+00  1.70000000E+00  1.70000000E+00
  1.70000000E+00  1.30000000E+00  1.70000000E+00  1.30000000E+00  1.30000000E+00
  1.70000000E+00  1.30000000E+00  1.70000000E+00  1.70000000E+00  1.30000000E+00
  1.70000000E+00  1.30000000E+00  1.70000000E+00  1.30000000E+00  1.70000000E+00
  1.30000000E+00  1.70000000E+00  1.30000000E+00  1.70000000E+00  1.30000000E+00
  1.70000000E+00  1.30000000E+00  1.70000000E+00  1.30000000E+00  1.70000000E+00
  1.30000000E+00  1.30000000E+00  1.70000000E+00  1.30000000E+00  1.30000000E+00
  1.30000000E+00  1.70000000E+00  1.30000000E+00  1.70000000E+00  1.30000000E+00
  1.30000000E+00  1.70000000E+00  1.30000000E+00  1.30000000E+00  1.70000000E+00
  1.30000000E+00  1.30000000E+00  1.50000000E+00  1.50000000E+00  1.50000000E+00
  1.50000000E+00  1.50000000E+00  1.50000000E+00  1.70000000E+00  1.70000000E+00
  1.70000000E+00  1.70000000E+00  1.70000000E+00  1.70000000E+00  1.30000000E+00
  1.30000000E+00  1.30000000E+00  1.30000000E+00  1.30000000E+00  1.30000000E+00
  1.30000000E+00  1.30000000E+00  1.30000000E+00  1.30000000E+00  1.30000000E+00
  1.30000000E+00  1.30000000E+00  1.30000000E+00  1.30000000E+00  1.30000000E+00
  1.30000000E+00  1.30000000E+00  1.50000000E+00  1.70000000E+00  1.70000000E+00
  1.70000000E+00  1.70000000E+00  1.30000000E+00  1.30000000E+00  1.30000000E+00
  1.70000000E+00  1.30000000E+00  1.70000000E+00  1.30000000E+00  1.70000000E+00
  1.30000000E+00  1.30000000E+00  1.55000000E+00  1.70000000E+00  1.70000000E+00
  1.70000000E+00  1.70000000E+00  1.70000000E+00  1.70000000E+00  1.70000000E+00
  1.30000000E+00  1.70000000E+00  1.30000000E+00  1.70000000E+00  1.30000000E+00
  1.70000000E+00  1.30000000E+00  1.70000000E+00  1.70000000E+00  1.30000000E+00
  1.70000000E+00  1.30000000E+00  1.30000000E+00  1.70000000E+00  1.70000000E+00
  1.70000000E+00  1.70000000E+00  1.50000000E+00  1.70000000E+00  1.70000000E+00
  1.70000000E+00  1.70000000E+00  1.70000000E+00  1.70000000E+00  1.70000000E+00
  1.70000000E+00  1.30000000E+00  1.70000000E+00  1.30000000E+00  1.70000000E+00
  1.30000000E+00  1.70000000E+00  1.30000000E+00  1.70000000E+00  1.70000000E+00
  1.30000000E+00  1.30000000E+00  1.30000000E+00  1.30000000E+00  1.55000000E+00
  1.55000000E+00  1.70000000E+00  1.30000000E+00  1.55000000E+00  1.70000000E+00
  1.30000000E+00  1.70000000E+00  1.70000000E+00  1.70000000E+00  1.70000000E+00
  1.30000000E+00  1.70000000E+00  1.70000000E+00  1.30000000E+00  1.70000000E+00
  1.70000000E+00  1.70000000E+00  1.70000000E+00  1.70000000E+00  1.70000000E+00
  1.70000000E+00  1.70000000E+00  1.70000000E+00  1.70000000E+00  1.70000000E+00
  1.70000000E+00  1.70000000E+00  1.30000000E+00  1.70000000E+00  1.30000000E+00
  1.30000000E+00  1.70000000E+00  1.30000000E+00  1.70000000E+00  1.70000000E+00
  1.30000000E+00  1.70000000E+00  1.30000000E+00  1.70000000E+00  1.30000000E+00
  1.70000000E+00  1.30000000E+00  1.70000000E+00  1.30000000E+00  1.70000000E+00
  1.30000000E+00  1.70000000E+00  1.30000000E+00  1.70000000E+00  1.30000000E+00
  1.70000000E+00  1.30000000E+00  1.30000000E+00  1.70000000E+00  1.30000000E+00
  1.30000000E+00  1.30000000E+00  1.70000000E+00  1.30000000E+00  1.70000000E+00
  1.30000000E+00  1.30000000E+00  1.70000000E+00  1.30000000E+00  1.30000000E+00
  1.70000000E+00  1.30000000E+00  1.30000000E+00  1.50000000E+00  1.50000000E+00
  1.50000000E+00  1.50000000E+00  1.50000000E+00  1.50000000E+00  1.70000000E+00
  1.70000000E+00  1.70000000E+00  1.70000000E+00  1.70000000E+00  1.70000000E+00
  1.30000000E+00  1.30000000E+00  1.30000000E+00  1.30000000E+00  1.30000000E+00
  1.30000000E+00  1.30000000E+00  1.30000000E+00  1.30000000E+00  1.30000000E+00
  1.30000000E+00  1.30000000E+00  1.30000000E+00  1.30000000E+00  1.30000000E+00
  1.30000000E+00  1.30000000E+00  1.30000000E+00  1.50000000E+00  1.70000000E+00
  1.70000000E+00  1.70000000E+00  1.70000000E+00  1.30000000E+00  1.30000000E+00
  1.30000000E+00  1.70000000E+00  1.30000000E+00  1.70000000E+00  1.30000000E+00
  1.70000000E+00  1.30000000E+00  1.30000000E+00  1.55000000E+00  1.70000000E+00
  1.70000000E+00  1.70000000E+00  1.70000000E+00  1.70000000E+00  1.70000000E+00
  1.70000000E+00  1.30000000E+00  1.70000000E+00  1.30000000E+00  1.70000000E+00
  1.30000000E+00  1.70000000E+00  1.30000000E+00  1.70000000E+00  1.70000000E+00
  1.30000000E+00  1.70000000E+00  1.30000000E+00  1.30000000E+00  1.70000000E+00
  1.70000000E+00  1.70000000E+00  1.70000000E+00  1.50000000E+00  1.70000000E+00
  1.70000000E+00  1.70000000E+00  1.70000000E+00  1.70000000E+00  1.70000000E+00
  1.70000000E+00  1.70000000E+00  1.30000000E+00  1.70000000E+00  1.30000000E+00
  1.70000000E+00  1.30000000E+00  1.70000000E+00  1.30000000E+00  1.70000000E+00
  1.70000000E+00  1.30000000E+00  1.30000000E+00  1.30000000E+00  1.30000000E+00
  1.55000000E+00  1.55000000E+00  1.70000000E+00  1.30000000E+00  1.55000000E+00
  1.70000000E+00  1.30000000E+00  1.70000000E+00  1.70000000E+00  1.70000000E+00
  1.70000000E+00  1.30000000E+00  1.70000000E+00  1.70000000E+00  1.30000000E+00
  1.70000000E+00  1.70000000E+00  1.70000000E+00  1.70000000E+00  1.70000000E+00
  1.70000000E+00  1.70000000E+00  1.70000000E+00  1.70000000E+00  1.70000000E+00
  1.70000000E+00  1.70000000E+00  1.70000000E+00  1.30000000E+00  1.70000000E+00
  1.30000000E+00  1.30000000E+00  1.70000000E+00  1.30000000E+00  1.70000000E+00
  1.70000000E+00  1.30000000E+00  1.70000000E+00  1.30000000E+00  1.70000000E+00
  1.30000000E+00  1.70000000E+00  1.30000000E+00  1.70000000E+00  1.30000000E+00
  1.70000000E+00  1.30000000E+00  1.70000000E+00  1.30000000E+00  1.70000000E+00
  1.30000000E+00  1.70000000E+00  1.30000000E+00  1.30000000E+00  1.70000000E+00
  1.30000000E+00  1.30000000E+00  1.30000000E+00  1.70000000E+00  1.30000000E+00
  1.70000000E+00  1.30000000E+00  1.30000000E+00  1.70000000E+00  1.30000000E+00
  1.30000000E+00  1.70000000E+00  1.30000000E+00  1.30000000E+00  1.50000000E+00
  1.50000000E+00  1.50000000E+00  1.50000000E+00  1.50000000E+00  1.50000000E+00
  1.70000000E+00  1.70000000E+00  1.70000000E+00  1.70000000E+00  1.70000000E+00
  1.70000000E+00  1.30000000E+00  1.30000000E+00  1.30000000E+00  1.30000000E+00
  1.30000000E+00  1.30000000E+00  1.30000000E+00  1.30000000E+00  1.30000000E+00
  1.30000000E+00  1.30000000E+00  1.30000000E+00  1.30000000E+00  1.30000000E+00
  1.30000000E+00  1.30000000E+00  1.30000000E+00  1.30000000E+00  1.50000000E+00
  1.70000000E+00  1.70000000E+00  1.70000000E+00  1.70000000E+00  1.30000000E+00
  1.30000000E+00  1.30000000E+00  1.70000000E+00  1.30000000E+00  1.70000000E+00
  1.30000000E+00  1.70000000E+00  1.30000000E+00  1.30000000E+00  1.55000000E+00
  1.70000000E+00  1.70000000E+00  1.70000000E+00  1.70000000E+00  1.70000000E+00
  1.70000000E+00  1.70000000E+00  1.30000000E+00  1.70000000E+00  1.30000000E+00
  1.70000000E+00  1.30000000E+00  1.70000000E+00  1.30000000E+00  1.70000000E+00
  1.70000000E+00  1.30000000E+00  1.70000000E+00  1.30000000E+00  1.30000000E+00
  1.70000000E+00  1.70000000E+00  1.70000000E+00  1.70000000E+00  1.50000000E+00
  1.70000000E+00  1.70000000E+00  1.70000000E+00  1.70000000E+00  1.70000000E+00
  1.70000000E+00  1.70000000E+00  1.70000000E+00  1.30000000E+00  1.70000000E+00
  1.30000000E+00  1.70000000E+00  1.30000000E+00  1.70000000E+00  1.30000000E+00
  1.70000000E+00  1.70000000E+00  1.30000000E+00  1.30000000E+00  1.30000000E+00
  1.30000000E+00  1.55000000E+00  1.55000000E+00  1.70000000E+00  1.30000000E+00
  1.55000000E+00  1.70000000E+00  1.30000000E+00  1.70000000E+00  1.70000000E+00
  1.70000000E+00  1.70000000E+00  1.30000000E+00  1.70000000E+00  1.70000000E+00
  1.30000000E+00  1.70000000E+00  1.70000000E+00  1.70000000E+00  1.70000000E+00
  1.70000000E+00  1.70000000E+00  1.70000000E+00  1.70000000E+00  1.70000000E+00
  1.70000000E+00  1.70000000E+00  1.70000000E+00  1.70000000E+00  1.30000000E+00
  1.70000000E+00  1.30000000E+00  1.30000000E+00  1.70000000E+00  1.30000000E+00
  1.70000000E+00  1.70000000E+00  1.30000000E+00  1.70000000E+00  1.30000000E+00
  1.70000000E+00  1.30000000E+00  1.70000000E+00  1.30000000E+00  1.70000000E+00
  1.30000000E+00  1.70000000E+00  1.30000000E+00  1.70000000E+00  1.30000000E+00
  1.70000000E+00  1.30000000E+00  1.70000000E+00  1.30000000E+00  1.30000000E+00
  1.70000000E+00  1.30000000E+00  1.30000000E+00  1.30000000E+00  1.70000000E+00
  1.30000000E+00  1.70000000E+00  1.30000000E+00  1.30000000E+00  1.70000000E+00
  1.30000000E+00  1.30000000E+00  1.70000000E+00  1.30000000E+00  1.30000000E+00
  1.50000000E+00  1.50000000E+00  1.50000000E+00  1.50000000E+00  1.50000000E+00
  1.50000000E+00  1.70000000E+00  1.70000000E+00  1.70000000E+00  1.70000000E+00
  1.70000000E+00  1.70000000E+00  1.30000000E+00  1.30000000E+00  1.30000000E+00
  1.30000000E+00  1.30000000E+00  1.30000000E+00  1.30000000E+00  1.30000000E+00
  1.30000000E+00  1.30000000E+00  1.30000000E+00  1.30000000E+00  1.30000000E+00
  1.30000000E+00  1.30000000E+00  1.30000000E+00  1.30000000E+00  1.30000000E+00
  1.50000000E+00  1.70000000E+00  1.70000000E+00  1.70000000E+00  1.70000000E+00
  1.30000000E+00  1.30000000E+00  1.30000000E+00  1.70000000E+00  1.30000000E+00
  1.70000000E+00  1.30000000E+00  1.70000000E+00  1.30000000E+00  1.30000000E+00
  1.55000000E+00  1.70000000E+00  1.70000000E+00  1.70000000E+00  1.70000000E+00
  1.70000000E+00  1.70000000E+00  1.70000000E+00  1.30000000E+00  1.70000000E+00
  1.30000000E+00  1.70000000E+00  1.30000000E+00  1.70000000E+00  1.30000000E+00
  1.70000000E+00  1.70000000E+00  1.30000000E+00  1.70000000E+00  1.30000000E+00
  1.30000000E+00  1.70000000E+00  1.70000000E+00  1.70000000E+00  1.70000000E+00
  1.50000000E+00  1.70000000E+00  1.70000000E+00  1.70000000E+00  1.70000000E+00
  1.70000000E+00  1.70000000E+00  1.70000000E+00  1.70000000E+00  1.30000000E+00
  1.70000000E+00  1.30000000E+00  1.70000000E+00  1.30000000E+00  1.70000000E+00
  1.30000000E+00  1.70000000E+00  1.70000000E+00  1.30000000E+00  1.30000000E+00
  1.30000000E+00  1.30000000E+00  1.55000000E+00  1.55000000E+00  1.70000000E+00
  1.30000000E+00  1.55000000E+00  1.70000000E+00  1.30000000E+00  1.70000000E+00
  1.70000000E+00  1.70000000E+00  1.70000000E+00  1.30000000E+00  1.70000000E+00
  1.70000000E+00  1.30000000E+00  1.70000000E+00  1.70000000E+00  1.70000000E+00
  1.70000000E+00  1.70000000E+00  1.70000000E+00  1.70000000E+00  1.70000000E+00
  1.70000000E+00  1.70000000E+00  1.70000000E+00  1.70000000E+00  1.70000000E+00
  1.30000000E+00  1.70000000E+00  1.30000000E+00  1.30000000E+00  1.70000000E+00
  1.30000000E+00  1.70000000E+00  1.70000000E+00  1.30000000E+00  1.70000000E+00
  1.30000000E+00  1.70000000E+00  1.30000000E+00  1.70000000E+00  1.30000000E+00
  1.70000000E+00  1.30000000E+00  1.70000000E+00  1.30000000E+00  1.70000000E+00
  1.30000000E+00  1.70000000E+00  1.30000000E+00  1.70000000E+00  1.30000000E+00
  1.30000000E+00  1.70000000E+00  1.30000000E+00  1.30000000E+00  1.30000000E+00
  1.70000000E+00  1.30000000E+00  1.70000000E+00  1.30000000E+00  1.30000000E+00
  1.70000000E+00  1.30000000E+00  1.30000000E+00  1.70000000E+00  1.30000000E+00
  1.30000000E+00  1.50000000E+00  1.50000000E+00  1.50000000E+00  1.50000000E+00
  1.50000000E+00  1.50000000E+00  1.70000000E+00  1.70000000E+00  1.70000000E+00
  1.70000000E+00  1.70000000E+00  1.70000000E+00  1.30000000E+00  1.30000000E+00
  1.30000000E+00  1.30000000E+00  1.30000000E+00  1.30000000E+00  1.30000000E+00
  1.30000000E+00  1.30000000E+00  1.30000000E+00  1.30000000E+00  1.30000000E+00
  1.30000000E+00  1.30000000E+00  1.30000000E+00  1.30000000E+00  1.30000000E+00
  1.30000000E+00  1.50000000E+00  1.70000000E+00  1.70000000E+00  1.70000000E+00
  1.70000000E+00  1.30000000E+00  1.30000000E+00  1.30000000E+00  1.70000000E+00
  1.30000000E+00  1.70000000E+00  1.30000000E+00  1.70000000E+00  1.30000000E+00
  1.30000000E+00  1.55000000E+00  1.70000000E+00  1.70000000E+00  1.70000000E+00
  1.70000000E+00  1.70000000E+00  1.70000000E+00  1.70000000E+00  1.30000000E+00
  1.70000000E+00  1.30000000E+00  1.70000000E+00  1.30000000E+00  1.70000000E+00
  1.30000000E+00  1.70000000E+00  1.70000000E+00  1.30000000E+00  1.70000000E+00
  1.30000000E+00  1.30000000E+00  1.70000000E+00  1.70000000E+00  1.70000000E+00
  1.70000000E+00  1.50000000E+00  1.70000000E+00  1.70000000E+00  1.70000000E+00
  1.70000000E+00  1.70000000E+00  1.70000000E+00  1.70000000E+00  1.70000000E+00
  1.30000000E+00  1.70000000E+00  1.30000000E+00  1.70000000E+00  1.30000000E+00
  1.70000000E+00  1.30000000E+00  1.70000000E+00  1.70000000E+00  1.30000000E+00
  1.30000000E+00  1.30000000E+00  1.30000000E+00  1.55000000E+00  1.55000000E+00
  1.70000000E+00  1.30000000E+00  1.55000000E+00  1.70000000E+00  1.30000000E+00
  1.70000000E+00  1.70000000E+00  1.70000000E+00  1.70000000E+00  1.30000000E+00
  1.70000000E+00  1.70000000E+00  1.30000000E+00  1.70000000E+00  1.70000000E+00
  1.70000000E+00  1.70000000E+00  1.70000000E+00  1.70000000E+00  1.70000000E+00
  1.70000000E+00  1.70000000E+00  1.70000000E+00  1.70000000E+00  1.70000000E+00
  1.70000000E+00  1.30000000E+00  1.70000000E+00  1.30000000E+00  1.30000000E+00
  1.70000000E+00  1.30000000E+00  1.70000000E+00  1.70000000E+00  1.30000000E+00
  1.70000000E+00  1.30000000E+00  1.70000000E+00  1.30000000E+00  1.70000000E+00
  1.30000000E+00  1.70000000E+00  1.30000000E+00  1.70000000E+00  1.30000000E+00
  1.70000000E+00  1.30000000E+00  1.70000000E+00  1.30000000E+00  1.70000000E+00
  1.30000000E+00  1.30000000E+00  1.70000000E+00  1.30000000E+00  1.30000000E+00
  1.30000000E+00  1.70000000E+00  1.30000000E+00  1.70000000E+00  1.30000000E+00
  1.30000000E+00  1.70000000E+00  1.30000000E+00  1.30000000E+00  1.70000000E+00
  1.30000000E+00  1.30000000E+00  1.50000000E+00  1.50000000E+00  1.50000000E+00
  1.50000000E+00  1.50000000E+00  1.50000000E+00  1.70000000E+00  1.70000000E+00
  1.70000000E+00  1.70000000E+00  1.70000000E+00  1.70000000E+00  1.30000000E+00
  1.30000000E+00  1.30000000E+00  1.30000000E+00  1.30000000E+00  1.30000000E+00
  1.30000000E+00  1.30000000E+00  1.30000000E+00  1.30000000E+00  1.30000000E+00
  1.30000000E+00  1.30000000E+00  1.30000000E+00  1.30000000E+00  1.30000000E+00
  1.30000000E+00  1.30000000E+00  1.50000000E+00  1.70000000E+00  1.70000000E+00
  1.70000000E+00  1.70000000E+00  1.30000000E+00  1.30000000E+00  1.30000000E+00
  1.70000000E+00  1.30000000E+00  1.70000000E+00  1.30000000E+00  1.70000000E+00
  1.30000000E+00  1.30000000E+00  1.55000000E+00  1.70000000E+00  1.70000000E+00
  1.70000000E+00  1.70000000E+00  1.70000000E+00  1.70000000E+00  1.70000000E+00
  1.30000000E+00  1.70000000E+00  1.30000000E+00  1.70000000E+00  1.30000000E+00
  1.70000000E+00  1.30000000E+00  1.70000000E+00  1.70000000E+00  1.30000000E+00
  1.70000000E+00  1.30000000E+00  1.30000000E+00  1.70000000E+00  1.70000000E+00
  1.70000000E+00  1.70000000E+00  1.50000000E+00  1.70000000E+00  1.70000000E+00
  1.70000000E+00  1.70000000E+00  1.70000000E+00  1.70000000E+00  1.70000000E+00
  1.70000000E+00  1.30000000E+00  1.70000000E+00  1.30000000E+00  1.70000000E+00
  1.30000000E+00  1.70000000E+00  1.30000000E+00  1.70000000E+00  1.70000000E+00
  1.30000000E+00  1.30000000E+00  1.30000000E+00  1.30000000E+00  1.55000000E+00
  1.55000000E+00  1.70000000E+00  1.30000000E+00  1.55000000E+00  1.70000000E+00
  1.30000000E+00  1.70000000E+00  1.70000000E+00  1.70000000E+00  1.70000000E+00
  1.30000000E+00  1.70000000E+00  1.70000000E+00  1.30000000E+00  1.70000000E+00
  1.70000000E+00  1.70000000E+00  1.70000000E+00  1.70000000E+00  1.70000000E+00
  1.70000000E+00  1.70000000E+00  1.70000000E+00  1.70000000E+00  1.70000000E+00
  1.70000000E+00  1.70000000E+00  1.30000000E+00  1.70000000E+00  1.30000000E+00
  1.30000000E+00  1.70000000E+00  1.30000000E+00  1.70000000E+00  1.70000000E+00
  1.30000000E+00  1.70000000E+00  1.30000000E+00  1.70000000E+00  1.30000000E+00
  1.70000000E+00  1.30000000E+00  1.70000000E+00  1.30000000E+00  1.70000000E+00
  1.30000000E+00  1.70000000E+00  1.30000000E+00  1.70000000E+00  1.30000000E+00
  1.70000000E+00  1.30000000E+00  1.30000000E+00  1.70000000E+00  1.30000000E+00
  1.30000000E+00  1.30000000E+00  1.70000000E+00  1.30000000E+00  1.70000000E+00
  1.30000000E+00  1.30000000E+00  1.70000000E+00  1.30000000E+00  1.30000000E+00
  1.70000000E+00  1.30000000E+00  1.30000000E+00  1.50000000E+00  1.50000000E+00
  1.50000000E+00  1.50000000E+00  1.50000000E+00  1.50000000E+00  1.70000000E+00
  1.70000000E+00  1.70000000E+00  1.70000000E+00  1.70000000E+00  1.70000000E+00
  1.30000000E+00  1.30000000E+00  1.30000000E+00  1.30000000E+00  1.30000000E+00
  1.30000000E+00  1.30000000E+00  1.30000000E+00  1.30000000E+00  1.30000000E+00
  1.30000000E+00  1.30000000E+00  1.30000000E+00  1.30000000E+00  1.30000000E+00
  1.30000000E+00  1.30000000E+00  1.30000000E+00  1.50000000E+00  1.70000000E+00
  1.70000000E+00  1.70000000E+00  1.70000000E+00  1.30000000E+00  1.30000000E+00
  1.30000000E+00  1.70000000E+00  1.30000000E+00  1.70000000E+00  1.30000000E+00
  1.70000000E+00  1.30000000E+00  1.30000000E+00  1.55000000E+00  1.70000000E+00
  1.70000000E+00  1.70000000E+00  1.70000000E+00  1.70000000E+00  1.70000000E+00
  1.70000000E+00  1.30000000E+00  1.70000000E+00  1.30000000E+00  1.70000000E+00
  1.30000000E+00  1.70000000E+00  1.30000000E+00  1.70000000E+00  1.70000000E+00
  1.30000000E+00  1.70000000E+00  1.30000000E+00  1.30000000E+00  1.70000000E+00
  1.70000000E+00  1.70000000E+00  1.70000000E+00  1.50000000E+00  1.70000000E+00
  1.70000000E+00  1.70000000E+00  1.70000000E+00  1.70000000E+00  1.70000000E+00
  1.70000000E+00  1.70000000E+00  1.30000000E+00  1.70000000E+00  1.30000000E+00
  1.70000000E+00  1.30000000E+00  1.70000000E+00  1.30000000E+00  1.70000000E+00
  1.70000000E+00  1.30000000E+00  1.30000000E+00  1.30000000E+00  1.30000000E+00
  1.55000000E+00  1.55000000E+00  1.70000000E+00  1.30000000E+00  1.55000000E+00
  1.70000000E+00  1.30000000E+00  1.70000000E+00  1.70000000E+00  1.70000000E+00
  1.70000000E+00  1.30000000E+00  1.70000000E+00  1.70000000E+00  1.30000000E+00
  1.70000000E+00  1.70000000E+00  1.70000000E+00  1.70000000E+00  1.70000000E+00
  1.70000000E+00  1.70000000E+00  1.70000000E+00  1.70000000E+00  1.70000000E+00
  1.70000000E+00  1.70000000E+00  1.70000000E+00  1.30000000E+00  1.70000000E+00
  1.30000000E+00  1.30000000E+00  1.70000000E+00  1.30000000E+00  1.70000000E+00
  1.70000000E+00  1.30000000E+00  1.70000000E+00  1.30000000E+00  1.70000000E+00
  1.30000000E+00  1.70000000E+00  1.30000000E+00  1.70000000E+00  1.30000000E+00
  1.70000000E+00  1.30000000E+00  1.70000000E+00  1.30000000E+00  1.70000000E+00
  1.30000000E+00  1.70000000E+00  1.30000000E+00  1.30000000E+00  1.70000000E+00
  1.30000000E+00  1.30000000E+00  1.30000000E+00  1.70000000E+00  1.30000000E+00
  1.70000000E+00  1.30000000E+00  1.30000000E+00  1.70000000E+00  1.30000000E+00
  1.30000000E+00  1.70000000E+00  1.30000000E+00  1.30000000E+00  1.50000000E+00
  1.50000000E+00  1.50000000E+00  1.50000000E+00  1.50000000E+00  1.50000000E+00
  1.70000000E+00  1.70000000E+00  1.70000000E+00  1.70000000E+00  1.70000000E+00
  1.70000000E+00  1.30000000E+00  1.30000000E+00  1.30000000E+00  1.30000000E+00
  1.30000000E+00  1.30000000E+00  1.30000000E+00  1.30000000E+00  1.30000000E+00
  1.30000000E+00  1.30000000E+00  1.30000000E+00  1.30000000E+00  1.30000000E+00
  1.30000000E+00  1.30000000E+00  1.30000000E+00  1.30000000E+00  1.50000000E+00
  1.70000000E+00  1.70000000E+00  1.70000000E+00  1.70000000E+00  1.30000000E+00
  1.30000000E+00  1.30000000E+00  1.70000000E+00  1.30000000E+00  1.70000000E+00
  1.30000000E+00  1.70000000E+00  1.30000000E+00  1.30000000E+00  1.55000000E+00
  1.70000000E+00  1.70000000E+00  1.70000000E+00  1.70000000E+00  1.70000000E+00
  1.70000000E+00  1.70000000E+00  1.30000000E+00  1.70000000E+00  1.30000000E+00
  1.70000000E+00  1.30000000E+00  1.70000000E+00  1.30000000E+00  1.70000000E+00
  1.70000000E+00  1.30000000E+00  1.70000000E+00  1.30000000E+00  1.30000000E+00
  1.70000000E+00  1.70000000E+00  1.70000000E+00  1.70000000E+00  1.50000000E+00
  1.70000000E+00  1.70000000E+00  1.70000000E+00  1.70000000E+00  1.70000000E+00
  1.70000000E+00  1.70000000E+00  1.70000000E+00  1.30000000E+00  1.70000000E+00
  1.30000000E+00  1.70000000E+00  1.30000000E+00  1.70000000E+00  1.30000000E+00
  1.70000000E+00  1.70000000E+00  1.30000000E+00  1.30000000E+00  1.30000000E+00
  1.30000000E+00  1.55000000E+00  1.55000000E+00  1.70000000E+00  1.30000000E+00
  1.55000000E+00  1.70000000E+00  1.30000000E+00  1.70000000E+00  1.70000000E+00
  1.70000000E+00  1.70000000E+00  1.30000000E+00  1.70000000E+00  1.70000000E+00
  1.30000000E+00  1.70000000E+00  1.70000000E+00  1.70000000E+00  1.70000000E+00
  1.70000000E+00  1.70000000E+00  1.70000000E+00  1.70000000E+00  1.70000000E+00
  1.70000000E+00  1.70000000E+00  1.70000000E+00  1.70000000E+00  1.30000000E+00
  1.70000000E+00  1.30000000E+00  1.30000000E+00  1.70000000E+00  1.30000000E+00
  1.70000000E+00  1.70000000E+00  1.30000000E+00  1.70000000E+00  1.30000000E+00
  1.70000000E+00  1.30000000E+00  1.70000000E+00  1.30000000E+00  1.70000000E+00
  1.30000000E+00  1.70000000E+00  1.30000000E+00  1.70000000E+00  1.30000000E+00
  1.70000000E+00  1.30000000E+00  1.70000000E+00  1.30000000E+00  1.30000000E+00
  1.70000000E+00  1.30000000E+00  1.30000000E+00  1.30000000E+00  1.70000000E+00
  1.30000000E+00  1.70000000E+00  1.30000000E+00  1.30000000E+00  1.70000000E+00
  1.30000000E+00  1.30000000E+00  1.70000000E+00  1.30000000E+00  1.30000000E+00
  1.50000000E+00  1.50000000E+00  1.50000000E+00  1.50000000E+00  1.50000000E+00
  1.50000000E+00  1.70000000E+00  1.70000000E+00  1.70000000E+00  1.70000000E+00
  1.70000000E+00  1.70000000E+00  1.30000000E+00  1.30000000E+00  1.30000000E+00
  1.30000000E+00  1.30000000E+00  1.30000000E+00  1.30000000E+00  1.30000000E+00
  1.30000000E+00  1.30000000E+00  1.30000000E+00  1.30000000E+00  1.30000000E+00
  1.30000000E+00  1.30000000E+00  1.30000000E+00  1.30000000E+00  1.30000000E+00
  1.50000000E+00  1.70000000E+00  1.70000000E+00  1.70000000E+00  1.70000000E+00
  1.30000000E+00  1.30000000E+00  1.30000000E+00  1.70000000E+00  1.30000000E+00
  1.70000000E+00  1.30000000E+00  1.70000000E+00  1.30000000E+00  1.30000000E+00
  1.55000000E+00  1.70000000E+00  1.70000000E+00  1.70000000E+00  1.70000000E+00
  1.70000000E+00  1.70000000E+00  1.70000000E+00  1.30000000E+00  1.70000000E+00
  1.30000000E+00  1.70000000E+00  1.30000000E+00  1.70000000E+00  1.30000000E+00
  1.70000000E+00  1.70000000E+00  1.30000000E+00  1.70000000E+00  1.30000000E+00
  1.30000000E+00  1.70000000E+00  1.70000000E+00  1.70000000E+00  1.70000000E+00
  1.50000000E+00  1.70000000E+00  1.70000000E+00  1.70000000E+00  1.70000000E+00
  1.70000000E+00  1.70000000E+00  1.70000000E+00  1.70000000E+00  1.30000000E+00
  1.70000000E+00  1.30000000E+00  1.70000000E+00  1.30000000E+00  1.70000000E+00
  1.30000000E+00  1.70000000E+00  1.70000000E+00  1.30000000E+00  1.30000000E+00
  1.30000000E+00  1.30000000E+00  1.55000000E+00  1.55000000E+00  1.70000000E+00
  1.30000000E+00  1.55000000E+00  1.70000000E+00  1.30000000E+00  1.70000000E+00
  1.70000000E+00  1.70000000E+00  1.70000000E+00  1.30000000E+00  1.70000000E+00
  1.70000000E+00  1.30000000E+00  1.70000000E+00  1.70000000E+00  1.70000000E+00
  1.70000000E+00  1.70000000E+00  1.70000000E+00  1.70000000E+00  1.70000000E+00
  1.70000000E+00  1.70000000E+00  1.70000000E+00  1.70000000E+00  1.70000000E+00
  1.30000000E+00  1.70000000E+00  1.30000000E+00  1.30000000E+00  1.70000000E+00
  1.30000000E+00  1.70000000E+00  1.70000000E+00  1.30000000E+00  1.70000000E+00
  1.30000000E+00  1.70000000E+00  1.30000000E+00  1.70000000E+00  1.30000000E+00
  1.70000000E+00  1.30000000E+00  1.70000000E+00  1.30000000E+00  1.70000000E+00
  1.30000000E+00  1.70000000E+00  1.30000000E+00  1.70000000E+00  1.30000000E+00
  1.30000000E+00  1.70000000E+00  1.30000000E+00  1.30000000E+00  1.30000000E+00
  1.70000000E+00  1.30000000E+00  1.70000000E+00  1.30000000E+00  1.30000000E+00
  1.70000000E+00  1.30000000E+00  1.30000000E+00  1.70000000E+00  1.30000000E+00
  1.30000000E+00  1.50000000E+00  1.50000000E+00  1.50000000E+00  1.50000000E+00
  1.50000000E+00  1.50000000E+00  1.70000000E+00  1.70000000E+00  1.70000000E+00
  1.70000000E+00  1.70000000E+00  1.70000000E+00  1.30000000E+00  1.30000000E+00
  1.30000000E+00  1.30000000E+00  1.30000000E+00  1.30000000E+00  1.30000000E+00
  1.30000000E+00  1.30000000E+00  1.30000000E+00  1.30000000E+00  1.30000000E+00
  1.30000000E+00  1.30000000E+00  1.30000000E+00  1.30000000E+00  1.30000000E+00
  1.30000000E+00  1.50000000E+00  1.70000000E+00  1.70000000E+00  1.70000000E+00
  1.70000000E+00  1.30000000E+00  1.30000000E+00  1.30000000E+00  1.70000000E+00
  1.30000000E+00  1.70000000E+00  1.30000000E+00  1.70000000E+00  1.30000000E+00
  1.30000000E+00  1.55000000E+00  1.70000000E+00  1.70000000E+00  1.70000000E+00
  1.70000000E+00  1.70000000E+00  1.70000000E+00  1.70000000E+00  1.30000000E+00
  1.70000000E+00  1.30000000E+00  1.70000000E+00  1.30000000E+00  1.70000000E+00
  1.30000000E+00  1.70000000E+00  1.70000000E+00  1.30000000E+00  1.70000000E+00
  1.30000000E+00  1.30000000E+00  1.70000000E+00  1.70000000E+00  1.70000000E+00
  1.70000000E+00  1.50000000E+00  1.70000000E+00  1.70000000E+00  1.70000000E+00
  1.70000000E+00  1.70000000E+00  1.70000000E+00  1.70000000E+00  1.70000000E+00
  1.30000000E+00  1.70000000E+00  1.30000000E+00  1.70000000E+00  1.30000000E+00
  1.70000000E+00  1.30000000E+00  1.70000000E+00  1.70000000E+00  1.30000000E+00
  1.30000000E+00  1.30000000E+00  1.30000000E+00  1.55000000E+00  1.55000000E+00
  1.70000000E+00  1.30000000E+00  1.55000000E+00  1.70000000E+00  1.30000000E+00
  1.70000000E+00  1.70000000E+00  1.70000000E+00  1.70000000E+00  1.30000000E+00
  1.70000000E+00  1.70000000E+00  1.30000000E+00  1.70000000E+00  1.70000000E+00
  1.70000000E+00  1.70000000E+00  1.70000000E+00  1.70000000E+00  1.70000000E+00
  1.70000000E+00  1.70000000E+00  1.70000000E+00  1.70000000E+00  1.70000000E+00
  1.70000000E+00  1.30000000E+00  1.70000000E+00  1.30000000E+00  1.30000000E+00
  1.70000000E+00  1.30000000E+00  1.70000000E+00  1.70000000E+00  1.30000000E+00
  1.70000000E+00  1.30000000E+00  1.70000000E+00  1.30000000E+00  1.70000000E+00
  1.30000000E+00  1.70000000E+00  1.30000000E+00  1.70000000E+00  1.30000000E+00
  1.70000000E+00  1.30000000E+00  1.70000000E+00  1.30000000E+00  1.70000000E+00
  1.30000000E+00  1.30000000E+00  1.70000000E+00  1.30000000E+00  1.30000000E+00
  1.30000000E+00  1.70000000E+00  1.30000000E+00  1.70000000E+00  1.30000000E+00
  1.30000000E+00  1.70000000E+00  1.30000000E+00  1.30000000E+00  1.70000000E+00
  1.30000000E+00  1.30000000E+00  1.50000000E+00  1.50000000E+00  1.50000000E+00
  1.50000000E+00  1.50000000E+00  1.50000000E+00  1.70000000E+00  1.70000000E+00
  1.70000000E+00  1.70000000E+00  1.70000000E+00  1.70000000E+00  1.30000000E+00
  1.30000000E+00  1.30000000E+00  1.30000000E+00  1.30000000E+00  1.30000000E+00
  1.30000000E+00  1.30000000E+00  1.30000000E+00  1.30000000E+00  1.30000000E+00
  1.30000000E+00  1.30000000E+00  1.30000000E+00  1.30000000E+00  1.30000000E+00
  1.30000000E+00  1.30000000E+00  1.50000000E+00  1.70000000E+00  1.70000000E+00
  1.70000000E+00  1.70000000E+00  1.30000000E+00  1.30000000E+00  1.30000000E+00
  1.70000000E+00  1.30000000E+00  1.70000000E+00  1.30000000E+00  1.70000000E+00
  1.30000000E+00  1.30000000E+00  1.55000000E+00  1.70000000E+00  1.70000000E+00
  1.70000000E+00  1.70000000E+00  1.70000000E+00  1.70000000E+00  1.70000000E+00
  1.30000000E+00  1.70000000E+00  1.30000000E+00  1.70000000E+00  1.30000000E+00
  1.70000000E+00  1.30000000E+00  1.70000000E+00  1.70000000E+00  1.30000000E+00
  1.70000000E+00  1.30000000E+00  1.30000000E+00  1.70000000E+00  1.70000000E+00
  1.70000000E+00  1.70000000E+00  1.50000000E+00  1.70000000E+00  1.70000000E+00
  1.70000000E+00  1.70000000E+00  1.70000000E+00  1.70000000E+00  1.70000000E+00
  1.70000000E+00  1.30000000E+00  1.70000000E+00  1.30000000E+00  1.70000000E+00
  1.30000000E+00  1.70000000E+00  1.30000000E+00  1.70000000E+00  1.70000000E+00
  1.30000000E+00  1.30000000E+00  1.30000000E+00  1.30000000E+00  1.55000000E+00
  1.55000000E+00  1.70000000E+00  1.30000000E+00  1.55000000E+00  1.70000000E+00
  1.30000000E+00  1.70000000E+00  1.70000000E+00  1.70000000E+00  1.70000000E+00
  1.30000000E+00  1.70000000E+00  1.70000000E+00  1.30000000E+00  1.70000000E+00
  1.70000000E+00  1.70000000E+00  1.70000000E+00  1.70000000E+00  1.70000000E+00
  1.70000000E+00  1.70000000E+00  1.70000000E+00  1.70000000E+00  1.70000000E+00
  1.70000000E+00  1.70000000E+00  1.30000000E+00  1.70000000E+00  1.30000000E+00
  1.30000000E+00  1.70000000E+00  1.30000000E+00  1.70000000E+00  1.70000000E+00
  1.30000000E+00  1.70000000E+00  1.30000000E+00  1.70000000E+00  1.30000000E+00
  1.70000000E+00  1.30000000E+00  1.70000000E+00  1.30000000E+00  1.70000000E+00
  1.30000000E+00  1.70000000E+00  1.30000000E+00  1.70000000E+00  1.30000000E+00
  1.70000000E+00  1.30000000E+00  1.30000000E+00  1.70000000E+00  1.30000000E+00
  1.30000000E+00  1.30000000E+00  1.70000000E+00  1.30000000E+00  1.70000000E+00
  1.30000000E+00  1.30000000E+00  1.70000000E+00  1.30000000E+00  1.30000000E+00
  1.70000000E+00  1.30000000E+00  1.30000000E+00  1.50000000E+00  1.50000000E+00
  1.50000000E+00  1.50000000E+00  1.50000000E+00  1.50000000E+00  1.70000000E+00
  1.70000000E+00  1.70000000E+00  1.70000000E+00  1.70000000E+00  1.70000000E+00
  1.30000000E+00  1.30000000E+00  1.30000000E+00  1.30000000E+00  1.30000000E+00
  1.30000000E+00  1.30000000E+00  1.30000000E+00  1.30000000E+00  1.30000000E+00
  1.30000000E+00  1.30000000E+00  1.30000000E+00  1.30000000E+00  1.30000000E+00
  1.30000000E+00  1.30000000E+00  1.30000000E+00  1.50000000E+00  1.70000000E+00
  1.70000000E+00  1.70000000E+00  1.70000000E+00  1.30000000E+00  1.30000000E+00
  1.30000000E+00  1.70000000E+00  1.30000000E+00  1.70000000E+00  1.30000000E+00
  1.70000000E+00  1.30000000E+00  1.30000000E+00  1.55000000E+00  1.70000000E+00
  1.70000000E+00  1.70000000E+00  1.70000000E+00  1.70000000E+00  1.70000000E+00
  1.70000000E+00  1.30000000E+00  1.70000000E+00  1.30000000E+00  1.70000000E+00
  1.30000000E+00  1.70000000E+00  1.30000000E+00  1.70000000E+00  1.70000000E+00
  1.30000000E+00  1.70000000E+00  1.30000000E+00  1.30000000E+00  1.70000000E+00
  1.70000000E+00  1.70000000E+00  1.70000000E+00  1.50000000E+00  1.70000000E+00
  1.70000000E+00  1.70000000E+00  1.70000000E+00  1.70000000E+00  1.70000000E+00
  1.70000000E+00  1.70000000E+00  1.30000000E+00  1.70000000E+00  1.30000000E+00
  1.70000000E+00  1.30000000E+00  1.70000000E+00  1.30000000E+00  1.70000000E+00
  1.70000000E+00  1.30000000E+00  1.30000000E+00  1.30000000E+00  1.30000000E+00
  1.55000000E+00  1.55000000E+00  1.70000000E+00  1.30000000E+00  1.55000000E+00
  1.70000000E+00  1.30000000E+00  1.70000000E+00  1.70000000E+00  1.70000000E+00
  1.70000000E+00  1.30000000E+00  1.70000000E+00  1.70000000E+00  1.30000000E+00
  1.70000000E+00  1.70000000E+00  1.70000000E+00  1.70000000E+00  1.70000000E+00
  1.70000000E+00  1.70000000E+00  1.70000000E+00  1.70000000E+00  1.70000000E+00
  1.70000000E+00  1.70000000E+00  1.70000000E+00  1.30000000E+00  1.70000000E+00
  1.30000000E+00  1.30000000E+00  1.70000000E+00  1.30000000E+00  1.70000000E+00
  1.70000000E+00  1.30000000E+00  1.70000000E+00  1.30000000E+00  1.70000000E+00
  1.30000000E+00  1.70000000E+00  1.30000000E+00  1.70000000E+00  1.30000000E+00
  1.70000000E+00  1.30000000E+00  1.70000000E+00  1.30000000E+00  1.70000000E+00
  1.30000000E+00  1.70000000E+00  1.30000000E+00  1.30000000E+00  1.70000000E+00
  1.30000000E+00  1.30000000E+00  1.30000000E+00  1.70000000E+00  1.30000000E+00
  1.70000000E+00  1.30000000E+00  1.30000000E+00  1.70000000E+00  1.30000000E+00
  1.30000000E+00  1.70000000E+00  1.30000000E+00  1.30000000E+00  1.50000000E+00
  1.50000000E+00  1.50000000E+00  1.50000000E+00  1.50000000E+00  1.50000000E+00
  1.70000000E+00  1.70000000E+00  1.70000000E+00  1.70000000E+00  1.70000000E+00
  1.70000000E+00  1.30000000E+00  1.30000000E+00  1.30000000E+00  1.30000000E+00
  1.30000000E+00  1.30000000E+00  1.30000000E+00  1.30000000E+00  1.30000000E+00
  1.30000000E+00  1.30000000E+00  1.30000000E+00  1.30000000E+00  1.30000000E+00
  1.30000000E+00  1.30000000E+00  1.30000000E+00  1.30000000E+00  1.50000000E+00
  1.70000000E+00  1.70000000E+00  1.70000000E+00  1.70000000E+00  1.30000000E+00
  1.30000000E+00  1.30000000E+00  1.70000000E+00  1.30000000E+00  1.70000000E+00
  1.30000000E+00  1.70000000E+00  1.30000000E+00  1.30000000E+00  1.55000000E+00
  1.70000000E+00  1.70000000E+00  1.70000000E+00  1.70000000E+00  1.70000000E+00
  1.70000000E+00  1.70000000E+00  1.30000000E+00  1.70000000E+00  1.30000000E+00
  1.70000000E+00  1.30000000E+00  1.70000000E+00  1.30000000E+00  1.70000000E+00
  1.70000000E+00  1.30000000E+00  1.70000000E+00  1.30000000E+00  1.30000000E+00
  1.70000000E+00  1.70000000E+00  1.70000000E+00  1.70000000E+00  1.50000000E+00
  1.70000000E+00  1.70000000E+00  1.70000000E+00  1.70000000E+00  1.70000000E+00
  1.70000000E+00  1.70000000E+00  1.70000000E+00  1.30000000E+00  1.70000000E+00
  1.30000000E+00  1.70000000E+00  1.30000000E+00  1.70000000E+00  1.30000000E+00
  1.70000000E+00  1.70000000E+00  1.30000000E+00  1.30000000E+00  1.30000000E+00
  1.30000000E+00  1.55000000E+00  1.55000000E+00  1.70000000E+00  1.30000000E+00
  1.55000000E+00  1.70000000E+00  1.30000000E+00  1.70000000E+00  1.70000000E+00
  1.70000000E+00  1.70000000E+00  1.30000000E+00  1.70000000E+00  1.70000000E+00
  1.30000000E+00  1.70000000E+00  1.70000000E+00  1.70000000E+00  1.70000000E+00
  1.70000000E+00  1.70000000E+00  1.70000000E+00  1.70000000E+00  1.70000000E+00
  1.70000000E+00  1.70000000E+00  1.70000000E+00  1.70000000E+00  1.30000000E+00
  1.70000000E+00  1.30000000E+00  1.30000000E+00  1.70000000E+00  1.30000000E+00
  1.70000000E+00  1.70000000E+00  1.30000000E+00  1.70000000E+00  1.30000000E+00
  1.70000000E+00  1.30000000E+00  1.70000000E+00  1.30000000E+00  1.70000000E+00
  1.30000000E+00  1.70000000E+00  1.30000000E+00  1.70000000E+00  1.30000000E+00
  1.70000000E+00  1.30000000E+00  1.70000000E+00  1.30000000E+00  1.30000000E+00
  1.70000000E+00  1.30000000E+00  1.30000000E+00  1.30000000E+00  1.70000000E+00
  1.30000000E+00  1.70000000E+00  1.30000000E+00  1.30000000E+00  1.70000000E+00
  1.30000000E+00  1.30000000E+00  1.70000000E+00  1.30000000E+00  1.30000000E+00
  1.50000000E+00  1.50000000E+00  1.50000000E+00  1.50000000E+00  1.50000000E+00
  1.50000000E+00  1.70000000E+00  1.70000000E+00  1.70000000E+00  1.70000000E+00
  1.70000000E+00  1.70000000E+00  1.30000000E+00  1.30000000E+00  1.30000000E+00
  1.30000000E+00  1.30000000E+00  1.30000000E+00  1.30000000E+00  1.30000000E+00
  1.30000000E+00  1.30000000E+00  1.30000000E+00  1.30000000E+00  1.30000000E+00
  1.30000000E+00  1.30000000E+00  1.30000000E+00  1.30000000E+00  1.30000000E+00
  1.50000000E+00  1.70000000E+00  1.70000000E+00  1.70000000E+00  1.70000000E+00
  1.30000000E+00  1.30000000E+00  1.30000000E+00  1.70000000E+00  1.30000000E+00
  1.70000000E+00  1.30000000E+00  1.70000000E+00  1.30000000E+00  1.30000000E+00
  1.55000000E+00  1.70000000E+00  1.70000000E+00  1.70000000E+00  1.70000000E+00
  1.70000000E+00  1.70000000E+00  1.70000000E+00  1.30000000E+00  1.70000000E+00
  1.30000000E+00  1.70000000E+00  1.30000000E+00  1.70000000E+00  1.30000000E+00
  1.70000000E+00  1.70000000E+00  1.30000000E+00  1.70000000E+00  1.30000000E+00
  1.30000000E+00  1.70000000E+00  1.70000000E+00  1.70000000E+00  1.70000000E+00
  1.50000000E+00  1.70000000E+00  1.70000000E+00  1.70000000E+00  1.70000000E+00
  1.70000000E+00  1.70000000E+00  1.70000000E+00  1.70000000E+00  1.30000000E+00
  1.70000000E+00  1.30000000E+00  1.70000000E+00  1.30000000E+00  1.70000000E+00
  1.30000000E+00  1.70000000E+00  1.70000000E+00  1.30000000E+00  1.30000000E+00
  1.30000000E+00  1.30000000E+00  1.55000000E+00  1.55000000E+00  1.70000000E+00
  1.30000000E+00  1.55000000E+00  1.70000000E+00  1.30000000E+00  1.70000000E+00
  1.70000000E+00  1.70000000E+00  1.70000000E+00  1.30000000E+00  1.70000000E+00
  1.70000000E+00  1.30000000E+00  1.70000000E+00  1.70000000E+00  1.70000000E+00
  1.70000000E+00  1.70000000E+00  1.70000000E+00  1.70000000E+00  1.70000000E+00
  1.70000000E+00  1.70000000E+00  1.70000000E+00  1.70000000E+00  1.70000000E+00
  1.30000000E+00  1.70000000E+00  1.30000000E+00  1.30000000E+00  1.70000000E+00
  1.30000000E+00  1.70000000E+00  1.70000000E+00  1.30000000E+00  1.70000000E+00
  1.30000000E+00  1.70000000E+00  1.30000000E+00  1.70000000E+00  1.30000000E+00
  1.70000000E+00  1.30000000E+00  1.70000000E+00  1.30000000E+00  1.70000000E+00
  1.30000000E+00  1.70000000E+00  1.30000000E+00  1.70000000E+00  1.30000000E+00
  1.30000000E+00  1.70000000E+00  1.30000000E+00  1.30000000E+00  1.30000000E+00
  1.70000000E+00  1.30000000E+00  1.70000000E+00  1.30000000E+00  1.30000000E+00
  1.70000000E+00  1.30000000E+00  1.30000000E+00  1.70000000E+00  1.30000000E+00
  1.30000000E+00  1.50000000E+00  1.50000000E+00  1.50000000E+00  1.50000000E+00
  1.50000000E+00  1.50000000E+00  1.70000000E+00  1.70000000E+00  1.70000000E+00
  1.70000000E+00  1.70000000E+00  1.70000000E+00  1.30000000E+00  1.30000000E+00
  1.30000000E+00  1.30000000E+00  1.30000000E+00  1.30000000E+00  1.30000000E+00
  1.30000000E+00  1.30000000E+00  1.30000000E+00  1.30000000E+00  1.30000000E+00
  1.30000000E+00  1.30000000E+00  1.30000000E+00  1.30000000E+00  1.30000000E+00
  1.30000000E+00  1.50000000E+00  1.70000000E+00  1.70000000E+00  1.70000000E+00
  1.70000000E+00  1.30000000E+00  1.30000000E+00  1.30000000E+00  1.70000000E+00
  1.30000000E+00  1.70000000E+00  1.30000000E+00  1.70000000E+00  1.30000000E+00
  1.30000000E+00  1.55000000E+00  1.70000000E+00  1.70000000E+00  1.70000000E+00
  1.70000000E+00  1.70000000E+00  1.70000000E+00  1.70000000E+00  1.30000000E+00
  1.70000000E+00  1.30000000E+00  1.70000000E+00  1.30000000E+00  1.70000000E+00
  1.30000000E+00  1.70000000E+00  1.70000000E+00  1.30000000E+00  1.70000000E+00
  1.30000000E+00  1.30000000E+00  1.70000000E+00  1.70000000E+00  1.70000000E+00
  1.70000000E+00  1.50000000E+00  1.70000000E+00  1.70000000E+00  1.70000000E+00
  1.70000000E+00  1.70000000E+00  1.70000000E+00  1.70000000E+00  1.70000000E+00
  1.30000000E+00  1.70000000E+00  1.30000000E+00  1.70000000E+00  1.30000000E+00
  1.70000000E+00  1.30000000E+00  1.70000000E+00  1.70000000E+00  1.30000000E+00
  1.30000000E+00  1.30000000E+00  1.30000000E+00  1.55000000E+00  1.55000000E+00
  1.70000000E+00  1.30000000E+00  1.55000000E+00  1.70000000E+00  1.30000000E+00
  1.70000000E+00  1.70000000E+00  1.70000000E+00  1.70000000E+00  1.30000000E+00
  1.70000000E+00  1.70000000E+00  1.30000000E+00  1.70000000E+00  1.70000000E+00
  1.70000000E+00  1.70000000E+00  1.70000000E+00  1.70000000E+00  1.70000000E+00
  1.70000000E+00  1.70000000E+00  1.70000000E+00  1.70000000E+00  1.70000000E+00
  1.70000000E+00  1.30000000E+00  1.70000000E+00  1.30000000E+00  1.30000000E+00
  1.70000000E+00  1.30000000E+00  1.70000000E+00  1.70000000E+00  1.30000000E+00
  1.70000000E+00  1.30000000E+00  1.70000000E+00  1.30000000E+00  1.70000000E+00
  1.30000000E+00  1.70000000E+00  1.30000000E+00  1.70000000E+00  1.30000000E+00
  1.70000000E+00  1.30000000E+00  1.70000000E+00  1.30000000E+00  1.70000000E+00
  1.30000000E+00  1.30000000E+00  1.70000000E+00  1.30000000E+00  1.30000000E+00
  1.30000000E+00  1.70000000E+00  1.30000000E+00  1.70000000E+00  1.30000000E+00
  1.30000000E+00  1.70000000E+00  1.30000000E+00  1.30000000E+00  1.70000000E+00
  1.30000000E+00  1.30000000E+00  1.50000000E+00  1.50000000E+00  1.50000000E+00
  1.50000000E+00  1.50000000E+00  1.50000000E+00  1.70000000E+00  1.70000000E+00
  1.70000000E+00  1.70000000E+00  1.70000000E+00  1.70000000E+00  1.30000000E+00
  1.30000000E+00  1.30000000E+00  1.30000000E+00  1.30000000E+00  1.30000000E+00
  1.30000000E+00  1.30000000E+00  1.30000000E+00  1.30000000E+00  1.30000000E+00
  1.30000000E+00  1.30000000E+00  1.30000000E+00  1.30000000E+00  1.30000000E+00
  1.30000000E+00  1.30000000E+00  1.50000000E+00  1.70000000E+00  1.70000000E+00
  1.70000000E+00  1.70000000E+00  1.30000000E+00  1.30000000E+00  1.30000000E+00
  1.70000000E+00  1.30000000E+00  1.70000000E+00  1.30000000E+00  1.70000000E+00
  1.30000000E+00  1.30000000E+00  1.55000000E+00  1.70000000E+00  1.70000000E+00
  1.70000000E+00  1.70000000E+00  1.70000000E+00  1.70000000E+00  1.70000000E+00
  1.30000000E+00  1.70000000E+00  1.30000000E+00  1.70000000E+00  1.30000000E+00
  1.70000000E+00  1.30000000E+00  1.70000000E+00  1.70000000E+00  1.30000000E+00
  1.70000000E+00  1.30000000E+00  1.30000000E+00  1.70000000E+00  1.70000000E+00
  1.70000000E+00  1.70000000E+00  1.50000000E+00  1.70000000E+00  1.70000000E+00
  1.70000000E+00  1.70000000E+00  1.70000000E+00  1.70000000E+00  1.70000000E+00
  1.70000000E+00  1.30000000E+00  1.70000000E+00  1.30000000E+00  1.70000000E+00
  1.30000000E+00  1.70000000E+00  1.30000000E+00  1.70000000E+00  1.70000000E+00
  1.30000000E+00  1.30000000E+00  1.30000000E+00  1.30000000E+00  1.55000000E+00
  1.55000000E+00  1.70000000E+00  1.30000000E+00  1.55000000E+00  1.70000000E+00
  1.30000000E+00  1.70000000E+00  1.70000000E+00  1.70000000E+00  1.70000000E+00
  1.30000000E+00  1.70000000E+00  1.70000000E+00  1.30000000E+00  1.70000000E+00
  1.70000000E+00  1.70000000E+00  1.70000000E+00  1.70000000E+00  1.70000000E+00
  1.70000000E+00  1.70000000E+00  1.70000000E+00  1.70000000E+00  1.70000000E+00
  1.70000000E+00  1.70000000E+00  1.30000000E+00  1.70000000E+00  1.30000000E+00
  1.30000000E+00  1.70000000E+00  1.30000000E+00  1.70000000E+00  1.70000000E+00
  1.30000000E+00  1.70000000E+00  1.30000000E+00  1.70000000E+00  1.30000000E+00
  1.70000000E+00  1.30000000E+00  1.70000000E+00  1.30000000E+00  1.70000000E+00
  1.30000000E+00  1.70000000E+00  1.30000000E+00  1.70000000E+00  1.30000000E+00
  1.70000000E+00  1.30000000E+00  1.30000000E+00  1.70000000E+00  1.30000000E+00
  1.30000000E+00  1.30000000E+00  1.70000000E+00  1.30000000E+00  1.70000000E+00
  1.30000000E+00  1.30000000E+00  1.70000000E+00  1.30000000E+00  1.30000000E+00
  1.70000000E+00  1.30000000E+00  1.30000000E+00  1.50000000E+00  1.50000000E+00
  1.50000000E+00  1.50000000E+00  1.50000000E+00  1.50000000E+00  1.70000000E+00
  1.70000000E+00  1.70000000E+00  1.70000000E+00  1.70000000E+00  1.70000000E+00
  1.30000000E+00  1.30000000E+00  1.30000000E+00  1.30000000E+00  1.30000000E+00
  1.30000000E+00  1.30000000E+00  1.30000000E+00  1.30000000E+00  1.30000000E+00
  1.30000000E+00  1.30000000E+00  1.30000000E+00  1.30000000E+00  1.30000000E+00
  1.30000000E+00  1.30000000E+00  1.30000000E+00  1.50000000E+00  1.70000000E+00
  1.70000000E+00  1.70000000E+00  1.70000000E+00  1.30000000E+00  1.30000000E+00
  1.30000000E+00  1.70000000E+00  1.30000000E+00  1.70000000E+00  1.30000000E+00
  1.70000000E+00  1.30000000E+00  1.30000000E+00  1.55000000E+00  1.70000000E+00
  1.70000000E+00  1.70000000E+00  1.70000000E+00  1.70000000E+00  1.70000000E+00
  1.70000000E+00  1.30000000E+00  1.70000000E+00  1.30000000E+00  1.70000000E+00
  1.30000000E+00  1.70000000E+00  1.30000000E+00  1.70000000E+00  1.70000000E+00
  1.30000000E+00  1.70000000E+00  1.30000000E+00  1.30000000E+00  1.70000000E+00
  1.70000000E+00  1.70000000E+00  1.70000000E+00  1.50000000E+00  1.70000000E+00
  1.70000000E+00  1.70000000E+00  1.70000000E+00  1.70000000E+00  1.70000000E+00
  1.70000000E+00  1.70000000E+00  1.30000000E+00  1.70000000E+00  1.30000000E+00
  1.70000000E+00  1.30000000E+00  1.70000000E+00  1.30000000E+00  1.70000000E+00
  1.70000000E+00  1.30000000E+00  1.30000000E+00  1.30000000E+00  1.30000000E+00
  1.55000000E+00  1.55000000E+00  1.70000000E+00  1.30000000E+00  1.55000000E+00
  1.70000000E+00  1.30000000E+00  1.70000000E+00  1.70000000E+00  1.70000000E+00
  1.70000000E+00  1.30000000E+00  1.70000000E+00  1.70000000E+00  1.30000000E+00
  1.70000000E+00  1.70000000E+00  1.70000000E+00  1.70000000E+00  1.70000000E+00
  1.70000000E+00  1.70000000E+00  1.70000000E+00  1.70000000E+00  1.70000000E+00
  1.70000000E+00  1.70000000E+00  1.70000000E+00  1.30000000E+00  1.70000000E+00
  1.30000000E+00  1.30000000E+00  1.70000000E+00  1.30000000E+00  1.70000000E+00
  1.70000000E+00  1.30000000E+00  1.70000000E+00  1.30000000E+00  1.70000000E+00
  1.30000000E+00  1.70000000E+00  1.30000000E+00  1.70000000E+00  1.30000000E+00
  1.70000000E+00  1.30000000E+00  1.70000000E+00  1.30000000E+00  1.70000000E+00
  1.30000000E+00  1.70000000E+00  1.30000000E+00  1.30000000E+00  1.70000000E+00
  1.30000000E+00  1.30000000E+00  1.30000000E+00  1.70000000E+00  1.30000000E+00
  1.70000000E+00  1.30000000E+00  1.30000000E+00  1.70000000E+00  1.30000000E+00
  1.30000000E+00  1.70000000E+00  1.30000000E+00  1.30000000E+00  1.50000000E+00
  1.50000000E+00  1.50000000E+00  1.50000000E+00  1.50000000E+00  1.50000000E+00
  1.70000000E+00  1.70000000E+00  1.70000000E+00  1.70000000E+00  1.70000000E+00
  1.70000000E+00  1.30000000E+00  1.30000000E+00  1.30000000E+00  1.30000000E+00
  1.30000000E+00  1.30000000E+00  1.30000000E+00  1.30000000E+00  1.30000000E+00
  1.30000000E+00  1.30000000E+00  1.30000000E+00  1.30000000E+00  1.30000000E+00
  1.30000000E+00  1.30000000E+00  1.30000000E+00  1.30000000E+00  1.50000000E+00
  1.70000000E+00  1.70000000E+00  1.70000000E+00  1.70000000E+00  1.30000000E+00
  1.30000000E+00  1.30000000E+00  1.70000000E+00  1.30000000E+00  1.70000000E+00
  1.30000000E+00  1.70000000E+00  1.30000000E+00  1.30000000E+00  1.55000000E+00
  1.70000000E+00  1.70000000E+00  1.70000000E+00  1.70000000E+00  1.70000000E+00
  1.70000000E+00  1.70000000E+00  1.30000000E+00  1.70000000E+00  1.30000000E+00
  1.70000000E+00  1.30000000E+00  1.70000000E+00  1.30000000E+00  1.70000000E+00
  1.70000000E+00  1.30000000E+00  1.70000000E+00  1.30000000E+00  1.30000000E+00
  1.70000000E+00  1.70000000E+00  1.70000000E+00  1.70000000E+00  1.50000000E+00
  1.70000000E+00  1.70000000E+00  1.70000000E+00  1.70000000E+00  1.70000000E+00
  1.70000000E+00  1.70000000E+00  1.70000000E+00  1.30000000E+00  1.70000000E+00
  1.30000000E+00  1.70000000E+00  1.30000000E+00  1.70000000E+00  1.30000000E+00
  1.70000000E+00  1.70000000E+00  1.30000000E+00  1.30000000E+00  1.30000000E+00
  1.30000000E+00  1.55000000E+00  1.55000000E+00  1.70000000E+00  1.30000000E+00
  1.55000000E+00  1.70000000E+00  1.30000000E+00  1.70000000E+00  1.70000000E+00
  1.70000000E+00  1.70000000E+00  1.30000000E+00  1.70000000E+00  1.70000000E+00
  1.30000000E+00  1.70000000E+00  1.70000000E+00  1.70000000E+00  1.70000000E+00
  1.70000000E+00  1.70000000E+00  1.70000000E+00  1.70000000E+00  1.70000000E+00
  1.70000000E+00  1.70000000E+00  1.70000000E+00  1.70000000E+00  1.30000000E+00
  1.70000000E+00  1.30000000E+00  1.30000000E+00  1.70000000E+00  1.30000000E+00
  1.70000000E+00  1.70000000E+00  1.30000000E+00  1.70000000E+00  1.30000000E+00
  1.70000000E+00  1.30000000E+00  1.70000000E+00  1.30000000E+00  1.70000000E+00
  1.30000000E+00  1.70000000E+00  1.30000000E+00  1.70000000E+00  1.30000000E+00
  1.70000000E+00  1.30000000E+00  1.70000000E+00  1.30000000E+00  1.30000000E+00
  1.70000000E+00  1.30000000E+00  1.30000000E+00  1.30000000E+00  1.70000000E+00
  1.30000000E+00  1.70000000E+00  1.30000000E+00  1.30000000E+00  1.70000000E+00
  1.30000000E+00  1.30000000E+00  1.70000000E+00  1.30000000E+00  1.30000000E+00
  1.50000000E+00  1.50000000E+00  1.50000000E+00  1.50000000E+00  1.50000000E+00
  1.50000000E+00  1.70000000E+00  1.70000000E+00  1.70000000E+00  1.70000000E+00
  1.70000000E+00  1.70000000E+00  1.30000000E+00  1.30000000E+00  1.30000000E+00
  1.30000000E+00  1.30000000E+00  1.30000000E+00  1.30000000E+00  1.30000000E+00
  1.30000000E+00  1.30000000E+00  1.30000000E+00  1.30000000E+00  1.30000000E+00
  1.30000000E+00  1.30000000E+00  1.30000000E+00  1.30000000E+00  1.30000000E+00
  1.50000000E+00  1.70000000E+00  1.70000000E+00  1.70000000E+00  1.70000000E+00
  1.30000000E+00  1.30000000E+00  1.30000000E+00  1.70000000E+00  1.30000000E+00
  1.70000000E+00  1.30000000E+00  1.70000000E+00  1.30000000E+00  1.30000000E+00
  1.55000000E+00  1.70000000E+00  1.70000000E+00  1.70000000E+00  1.70000000E+00
  1.70000000E+00  1.70000000E+00  1.70000000E+00  1.30000000E+00  1.70000000E+00
  1.30000000E+00  1.70000000E+00  1.30000000E+00  1.70000000E+00  1.30000000E+00
  1.70000000E+00  1.70000000E+00  1.30000000E+00  1.70000000E+00  1.30000000E+00
  1.30000000E+00  1.70000000E+00  1.70000000E+00  1.70000000E+00  1.70000000E+00
  1.50000000E+00  1.70000000E+00  1.70000000E+00  1.70000000E+00  1.70000000E+00
  1.70000000E+00  1.70000000E+00  1.70000000E+00  1.70000000E+00  1.30000000E+00
  1.70000000E+00  1.30000000E+00  1.70000000E+00  1.30000000E+00  1.70000000E+00
  1.30000000E+00  1.70000000E+00  1.70000000E+00  1.30000000E+00  1.30000000E+00
  1.30000000E+00  1.30000000E+00  1.55000000E+00  1.55000000E+00  1.70000000E+00
  1.30000000E+00  1.55000000E+00  1.70000000E+00  1.30000000E+00  1.70000000E+00
  1.70000000E+00  1.70000000E+00  1.70000000E+00  1.30000000E+00  1.70000000E+00
  1.70000000E+00  1.30000000E+00  1.70000000E+00  1.70000000E+00  1.70000000E+00
  1.70000000E+00  1.70000000E+00  1.70000000E+00  1.70000000E+00  1.70000000E+00
  1.70000000E+00  1.70000000E+00  1.70000000E+00  1.70000000E+00  1.70000000E+00
  1.30000000E+00  1.70000000E+00  1.30000000E+00  1.30000000E+00  1.70000000E+00
  1.30000000E+00  1.70000000E+00  1.70000000E+00  1.30000000E+00  1.70000000E+00
  1.30000000E+00  1.70000000E+00  1.30000000E+00  1.70000000E+00  1.30000000E+00
  1.70000000E+00  1.30000000E+00  1.70000000E+00  1.30000000E+00  1.70000000E+00
  1.30000000E+00  1.70000000E+00  1.30000000E+00  1.70000000E+00  1.30000000E+00
  1.30000000E+00  1.70000000E+00  1.30000000E+00  1.30000000E+00  1.30000000E+00
  1.70000000E+00  1.30000000E+00  1.70000000E+00  1.30000000E+00  1.30000000E+00
  1.70000000E+00  1.30000000E+00  1.30000000E+00  1.70000000E+00  1.30000000E+00
  1.30000000E+00  1.50000000E+00  1.50000000E+00  1.50000000E+00  1.50000000E+00
  1.50000000E+00  1.50000000E+00  1.70000000E+00  1.70000000E+00  1.70000000E+00
  1.70000000E+00  1.70000000E+00  1.70000000E+00  1.30000000E+00  1.30000000E+00
  1.30000000E+00  1.30000000E+00  1.30000000E+00  1.30000000E+00  1.30000000E+00
  1.30000000E+00  1.30000000E+00  1.30000000E+00  1.30000000E+00  1.30000000E+00
  1.30000000E+00  1.30000000E+00  1.30000000E+00  1.30000000E+00  1.30000000E+00
  1.30000000E+00  1.50000000E+00  1.70000000E+00  1.70000000E+00  1.70000000E+00
  1.70000000E+00  1.30000000E+00  1.30000000E+00  1.30000000E+00  1.70000000E+00
  1.30000000E+00  1.70000000E+00  1.30000000E+00  1.70000000E+00  1.30000000E+00
  1.30000000E+00  1.55000000E+00  1.70000000E+00  1.70000000E+00  1.70000000E+00
  1.70000000E+00  1.70000000E+00  1.70000000E+00  1.70000000E+00  1.30000000E+00
  1.70000000E+00  1.30000000E+00  1.70000000E+00  1.30000000E+00  1.70000000E+00
  1.30000000E+00  1.70000000E+00  1.70000000E+00  1.30000000E+00  1.70000000E+00
  1.30000000E+00  1.30000000E+00  1.70000000E+00  1.70000000E+00  1.70000000E+00
  1.70000000E+00  1.50000000E+00  1.70000000E+00  1.70000000E+00  1.70000000E+00
  1.70000000E+00  1.70000000E+00  1.70000000E+00  1.70000000E+00  1.70000000E+00
  1.30000000E+00  1.70000000E+00  1.30000000E+00  1.70000000E+00  1.30000000E+00
  1.70000000E+00  1.30000000E+00  1.70000000E+00  1.70000000E+00  1.30000000E+00
  1.30000000E+00  1.30000000E+00  1.30000000E+00  1.55000000E+00  1.55000000E+00
  1.70000000E+00  1.30000000E+00  1.55000000E+00  1.70000000E+00  1.30000000E+00
  1.70000000E+00  1.70000000E+00  1.70000000E+00  1.70000000E+00  1.30000000E+00
  1.70000000E+00  1.70000000E+00  1.30000000E+00  1.70000000E+00  1.70000000E+00
  1.70000000E+00  1.70000000E+00  1.70000000E+00  1.70000000E+00  1.70000000E+00
  1.70000000E+00  1.70000000E+00  1.70000000E+00  1.70000000E+00  1.70000000E+00
  1.70000000E+00  1.30000000E+00  1.70000000E+00  1.30000000E+00  1.30000000E+00
  1.70000000E+00  1.30000000E+00  1.70000000E+00  1.70000000E+00  1.30000000E+00
  1.70000000E+00  1.30000000E+00  1.70000000E+00  1.30000000E+00  1.70000000E+00
  1.30000000E+00  1.70000000E+00  1.30000000E+00  1.70000000E+00  1.30000000E+00
  1.70000000E+00  1.30000000E+00  1.70000000E+00  1.30000000E+00  1.70000000E+00
  1.30000000E+00  1.30000000E+00  1.70000000E+00  1.30000000E+00  1.30000000E+00
  1.30000000E+00  1.70000000E+00  1.30000000E+00  1.70000000E+00  1.30000000E+00
  1.30000000E+00  1.70000000E+00  1.30000000E+00  1.30000000E+00  1.70000000E+00
  1.30000000E+00  1.30000000E+00  1.50000000E+00  1.50000000E+00  1.50000000E+00
  1.50000000E+00  1.50000000E+00  1.50000000E+00  1.70000000E+00  1.70000000E+00
  1.70000000E+00  1.70000000E+00  1.70000000E+00  1.70000000E+00  1.30000000E+00
  1.30000000E+00  1.30000000E+00  1.30000000E+00  1.30000000E+00  1.30000000E+00
  1.30000000E+00  1.30000000E+00  1.30000000E+00  1.30000000E+00  1.30000000E+00
  1.30000000E+00  1.30000000E+00  1.30000000E+00  1.30000000E+00  1.30000000E+00
  1.30000000E+00  1.30000000E+00  1.50000000E+00  1.70000000E+00  1.70000000E+00
  1.70000000E+00  1.70000000E+00  1.30000000E+00  1.30000000E+00  1.30000000E+00
  1.70000000E+00  1.30000000E+00  1.70000000E+00  1.30000000E+00  1.70000000E+00
  1.30000000E+00  1.30000000E+00  1.55000000E+00  1.70000000E+00  1.70000000E+00
  1.70000000E+00  1.70000000E+00  1.70000000E+00  1.70000000E+00  1.70000000E+00
  1.30000000E+00  1.70000000E+00  1.30000000E+00  1.70000000E+00  1.30000000E+00
  1.70000000E+00  1.30000000E+00  1.70000000E+00  1.70000000E+00  1.30000000E+00
  1.70000000E+00  1.30000000E+00  1.30000000E+00  1.70000000E+00  1.70000000E+00
  1.70000000E+00  1.70000000E+00  1.50000000E+00  1.70000000E+00  1.70000000E+00
  1.70000000E+00  1.70000000E+00  1.70000000E+00  1.70000000E+00  1.70000000E+00
  1.70000000E+00  1.30000000E+00  1.70000000E+00  1.30000000E+00  1.70000000E+00
  1.30000000E+00  1.70000000E+00  1.30000000E+00  1.70000000E+00  1.70000000E+00
  1.30000000E+00  1.30000000E+00  1.30000000E+00  1.30000000E+00  1.55000000E+00
  1.55000000E+00  1.70000000E+00  1.30000000E+00  1.55000000E+00  1.70000000E+00
  1.30000000E+00  1.70000000E+00  1.70000000E+00  1.70000000E+00  1.70000000E+00
  1.30000000E+00  1.70000000E+00  1.70000000E+00  1.30000000E+00  1.70000000E+00
  1.70000000E+00  1.70000000E+00  1.70000000E+00  1.70000000E+00  1.70000000E+00
  1.70000000E+00  1.70000000E+00  1.70000000E+00  1.70000000E+00  1.70000000E+00
  1.70000000E+00  1.70000000E+00  1.30000000E+00  1.70000000E+00  1.30000000E+00
  1.30000000E+00  1.70000000E+00  1.30000000E+00  1.70000000E+00  1.70000000E+00
  1.30000000E+00  1.70000000E+00  1.30000000E+00  1.70000000E+00  1.30000000E+00
  1.70000000E+00  1.30000000E+00  1.70000000E+00  1.30000000E+00  1.70000000E+00
  1.30000000E+00  1.70000000E+00  1.30000000E+00  1.70000000E+00  1.30000000E+00
  1.70000000E+00  1.30000000E+00  1.30000000E+00  1.70000000E+00  1.30000000E+00
  1.30000000E+00  1.30000000E+00  1.70000000E+00  1.30000000E+00  1.70000000E+00
  1.30000000E+00  1.30000000E+00  1.70000000E+00  1.30000000E+00  1.30000000E+00
  1.70000000E+00  1.30000000E+00  1.30000000E+00  1.50000000E+00  1.50000000E+00
  1.50000000E+00  1.50000000E+00  1.50000000E+00  1.50000000E+00  1.70000000E+00
  1.70000000E+00  1.70000000E+00  1.70000000E+00  1.70000000E+00  1.70000000E+00
  1.30000000E+00  1.30000000E+00  1.30000000E+00  1.30000000E+00  1.30000000E+00
  1.30000000E+00  1.30000000E+00  1.30000000E+00  1.30000000E+00  1.30000000E+00
  1.30000000E+00  1.30000000E+00  1.30000000E+00  1.30000000E+00  1.30000000E+00
  1.30000000E+00  1.30000000E+00  1.30000000E+00  1.50000000E+00  1.70000000E+00
  1.70000000E+00  1.70000000E+00  1.70000000E+00  1.30000000E+00  1.30000000E+00
  1.30000000E+00  1.70000000E+00  1.30000000E+00  1.70000000E+00  1.30000000E+00
  1.70000000E+00  1.30000000E+00  1.30000000E+00  1.55000000E+00  1.70000000E+00
  1.70000000E+00  1.70000000E+00  1.70000000E+00  1.70000000E+00  1.70000000E+00
  1.70000000E+00  1.30000000E+00  1.70000000E+00  1.30000000E+00  1.70000000E+00
  1.30000000E+00  1.70000000E+00  1.30000000E+00  1.70000000E+00  1.70000000E+00
  1.30000000E+00  1.70000000E+00  1.30000000E+00  1.30000000E+00  1.70000000E+00
  1.70000000E+00  1.70000000E+00  1.70000000E+00  1.50000000E+00  1.70000000E+00
  1.70000000E+00  1.70000000E+00  1.70000000E+00  1.70000000E+00  1.70000000E+00
  1.70000000E+00  1.70000000E+00  1.30000000E+00  1.70000000E+00  1.30000000E+00
  1.70000000E+00  1.30000000E+00  1.70000000E+00  1.30000000E+00  1.70000000E+00
  1.70000000E+00  1.30000000E+00  1.30000000E+00  1.30000000E+00  1.30000000E+00
  1.55000000E+00  1.55000000E+00  1.70000000E+00  1.30000000E+00  1.55000000E+00
  1.70000000E+00  1.30000000E+00  1.70000000E+00  1.70000000E+00  1.70000000E+00
  1.70000000E+00  1.30000000E+00  1.70000000E+00  1.70000000E+00  1.30000000E+00
  1.70000000E+00  1.70000000E+00  1.70000000E+00  1.70000000E+00  1.70000000E+00
  1.70000000E+00  1.70000000E+00  1.70000000E+00  1.70000000E+00  1.70000000E+00
  1.70000000E+00  1.70000000E+00  1.70000000E+00  1.30000000E+00  1.70000000E+00
  1.30000000E+00  1.30000000E+00  1.70000000E+00  1.30000000E+00  1.70000000E+00
  1.70000000E+00  1.30000000E+00  1.70000000E+00  1.30000000E+00  1.70000000E+00
  1.30000000E+00  1.70000000E+00  1.30000000E+00  1.70000000E+00  1.30000000E+00
  1.70000000E+00  1.30000000E+00  1.70000000E+00  1.30000000E+00  1.70000000E+00
  1.30000000E+00  1.70000000E+00  1.30000000E+00  1.30000000E+00  1.70000000E+00
  1.30000000E+00  1.30000000E+00  1.30000000E+00  1.70000000E+00  1.30000000E+00
  1.70000000E+00  1.30000000E+00  1.30000000E+00  1.70000000E+00  1.30000000E+00
  1.30000000E+00  1.70000000E+00  1.30000000E+00  1.30000000E+00  1.50000000E+00
  1.50000000E+00  1.50000000E+00  1.50000000E+00  1.50000000E+00  1.50000000E+00
  1.70000000E+00  1.70000000E+00  1.70000000E+00  1.70000000E+00  1.70000000E+00
  1.70000000E+00  1.30000000E+00  1.30000000E+00  1.30000000E+00  1.30000000E+00
  1.30000000E+00  1.30000000E+00  1.30000000E+00  1.30000000E+00  1.30000000E+00
  1.30000000E+00  1.30000000E+00  1.30000000E+00  1.30000000E+00  1.30000000E+00
  1.30000000E+00  1.30000000E+00  1.30000000E+00  1.30000000E+00  1.50000000E+00
  1.70000000E+00  1.70000000E+00  1.70000000E+00  1.70000000E+00  1.30000000E+00
  1.30000000E+00  1.30000000E+00  1.70000000E+00  1.30000000E+00  1.70000000E+00
  1.30000000E+00  1.70000000E+00  1.30000000E+00  1.30000000E+00  1.55000000E+00
  1.70000000E+00  1.70000000E+00  1.70000000E+00  1.70000000E+00  1.70000000E+00
  1.70000000E+00  1.70000000E+00  1.30000000E+00  1.70000000E+00  1.30000000E+00
  1.70000000E+00  1.30000000E+00  1.70000000E+00  1.30000000E+00  1.70000000E+00
  1.70000000E+00  1.30000000E+00  1.70000000E+00  1.30000000E+00  1.30000000E+00
  1.70000000E+00  1.70000000E+00  1.70000000E+00  1.70000000E+00  1.50000000E+00
  1.70000000E+00  1.70000000E+00  1.70000000E+00  1.70000000E+00  1.70000000E+00
  1.70000000E+00  1.70000000E+00  1.70000000E+00  1.30000000E+00  1.70000000E+00
  1.30000000E+00  1.70000000E+00  1.30000000E+00  1.70000000E+00  1.30000000E+00
  1.70000000E+00  1.70000000E+00  1.30000000E+00  1.30000000E+00  1.30000000E+00
  1.30000000E+00  1.55000000E+00  1.55000000E+00  1.70000000E+00  1.30000000E+00
  1.55000000E+00  1.70000000E+00  1.30000000E+00  1.70000000E+00  1.70000000E+00
  1.70000000E+00  1.70000000E+00  1.30000000E+00  1.70000000E+00  1.70000000E+00
  1.30000000E+00  1.70000000E+00  1.70000000E+00  1.70000000E+00  1.70000000E+00
  1.70000000E+00  1.70000000E+00  1.70000000E+00  1.70000000E+00  1.70000000E+00
  1.70000000E+00  1.70000000E+00  1.70000000E+00  1.70000000E+00  1.30000000E+00
  1.70000000E+00  1.30000000E+00  1.30000000E+00  1.70000000E+00  1.30000000E+00
  1.70000000E+00  1.70000000E+00  1.30000000E+00  1.70000000E+00  1.30000000E+00
  1.70000000E+00  1.30000000E+00  1.70000000E+00  1.30000000E+00  1.70000000E+00
  1.30000000E+00  1.70000000E+00  1.30000000E+00  1.70000000E+00  1.30000000E+00
  1.70000000E+00  1.30000000E+00  1.70000000E+00  1.30000000E+00  1.30000000E+00
  1.70000000E+00  1.30000000E+00  1.30000000E+00  1.30000000E+00  1.70000000E+00
  1.30000000E+00  1.70000000E+00  1.30000000E+00  1.30000000E+00  1.70000000E+00
  1.30000000E+00  1.30000000E+00  1.70000000E+00  1.30000000E+00  1.30000000E+00
  1.50000000E+00  1.50000000E+00  1.50000000E+00  1.50000000E+00  1.50000000E+00
  1.50000000E+00  1.70000000E+00  1.70000000E+00  1.70000000E+00  1.70000000E+00
  1.70000000E+00  1.70000000E+00  1.30000000E+00  1.30000000E+00  1.30000000E+00
  1.30000000E+00  1.30000000E+00  1.30000000E+00  1.30000000E+00  1.30000000E+00
  1.30000000E+00  1.30000000E+00  1.30000000E+00  1.30000000E+00  1.30000000E+00
  1.30000000E+00  1.30000000E+00  1.30000000E+00  1.30000000E+00  1.30000000E+00
  1.50000000E+00  1.70000000E+00  1.70000000E+00  1.70000000E+00  1.70000000E+00
  1.30000000E+00  1.30000000E+00  1.30000000E+00  1.70000000E+00  1.30000000E+00
  1.70000000E+00  1.30000000E+00  1.70000000E+00  1.30000000E+00  1.30000000E+00
  1.55000000E+00  1.70000000E+00  1.70000000E+00  1.70000000E+00  1.70000000E+00
  1.70000000E+00  1.70000000E+00  1.70000000E+00  1.30000000E+00  1.70000000E+00
  1.30000000E+00  1.70000000E+00  1.30000000E+00  1.70000000E+00  1.30000000E+00
  1.70000000E+00  1.70000000E+00  1.30000000E+00  1.70000000E+00  1.30000000E+00
  1.30000000E+00  1.70000000E+00  1.70000000E+00  1.70000000E+00  1.70000000E+00
  1.50000000E+00  1.70000000E+00  1.70000000E+00  1.70000000E+00  1.70000000E+00
  1.70000000E+00  1.70000000E+00  1.70000000E+00  1.70000000E+00  1.30000000E+00
  1.70000000E+00  1.30000000E+00  1.70000000E+00  1.30000000E+00  1.70000000E+00
  1.30000000E+00  1.70000000E+00  1.70000000E+00  1.30000000E+00  1.30000000E+00
  1.30000000E+00  1.30000000E+00  1.55000000E+00  1.55000000E+00  1.70000000E+00
  1.30000000E+00  1.55000000E+00  1.70000000E+00  1.30000000E+00  1.70000000E+00
  1.70000000E+00  1.70000000E+00  1.70000000E+00  1.30000000E+00  1.70000000E+00
  1.70000000E+00  1.30000000E+00  1.70000000E+00  1.70000000E+00  1.70000000E+00
  1.70000000E+00  1.70000000E+00  1.70000000E+00  1.70000000E+00  1.70000000E+00
  1.70000000E+00  1.70000000E+00  1.70000000E+00  1.70000000E+00  1.70000000E+00
  1.30000000E+00  1.70000000E+00  1.30000000E+00  1.30000000E+00  1.70000000E+00
  1.30000000E+00  1.70000000E+00  1.70000000E+00  1.30000000E+00  1.70000000E+00
  1.30000000E+00  1.70000000E+00  1.30000000E+00  1.70000000E+00  1.30000000E+00
  1.70000000E+00  1.30000000E+00  1.70000000E+00  1.30000000E+00  1.70000000E+00
  1.30000000E+00  1.70000000E+00  1.30000000E+00  1.70000000E+00  1.30000000E+00
  1.30000000E+00  1.70000000E+00  1.30000000E+00  1.30000000E+00  1.30000000E+00
  1.70000000E+00  1.30000000E+00  1.70000000E+00  1.30000000E+00  1.30000000E+00
  1.70000000E+00  1.30000000E+00  1.30000000E+00  1.70000000E+00  1.30000000E+00
  1.30000000E+00  1.50000000E+00  1.50000000E+00  1.50000000E+00  1.50000000E+00
  1.50000000E+00  1.50000000E+00  1.70000000E+00  1.70000000E+00  1.70000000E+00
  1.70000000E+00  1.70000000E+00  1.70000000E+00  1.30000000E+00  1.30000000E+00
  1.30000000E+00  1.30000000E+00  1.30000000E+00  1.30000000E+00  1.30000000E+00
  1.30000000E+00  1.30000000E+00  1.30000000E+00  1.30000000E+00  1.30000000E+00
  1.30000000E+00  1.30000000E+00  1.30000000E+00  1.30000000E+00  1.30000000E+00
  1.30000000E+00  1.50000000E+00  1.70000000E+00  1.70000000E+00  1.70000000E+00
  1.70000000E+00  1.30000000E+00  1.30000000E+00  1.30000000E+00  1.70000000E+00
  1.30000000E+00  1.70000000E+00  1.30000000E+00  1.70000000E+00  1.30000000E+00
  1.30000000E+00  1.55000000E+00  1.70000000E+00  1.70000000E+00  1.70000000E+00
  1.70000000E+00  1.70000000E+00  1.70000000E+00  1.70000000E+00  1.30000000E+00
  1.70000000E+00  1.30000000E+00  1.70000000E+00  1.30000000E+00  1.70000000E+00
  1.30000000E+00  1.70000000E+00  1.70000000E+00  1.30000000E+00  1.70000000E+00
  1.30000000E+00  1.30000000E+00  1.70000000E+00  1.70000000E+00  1.70000000E+00
  1.70000000E+00  1.50000000E+00  1.70000000E+00  1.70000000E+00  1.70000000E+00
  1.70000000E+00  1.70000000E+00  1.70000000E+00  1.70000000E+00  1.70000000E+00
  1.30000000E+00  1.70000000E+00  1.30000000E+00  1.70000000E+00  1.30000000E+00
  1.70000000E+00  1.30000000E+00  1.70000000E+00  1.70000000E+00  1.30000000E+00
  1.30000000E+00  1.30000000E+00  1.30000000E+00  1.55000000E+00  1.55000000E+00
  1.70000000E+00  1.30000000E+00  1.55000000E+00  1.70000000E+00  1.30000000E+00
  1.70000000E+00  1.70000000E+00  1.70000000E+00  1.70000000E+00  1.30000000E+00
  1.70000000E+00  1.70000000E+00  1.30000000E+00  1.70000000E+00  1.70000000E+00
  1.70000000E+00  1.70000000E+00  1.70000000E+00  1.70000000E+00  1.70000000E+00
  1.70000000E+00  1.70000000E+00  1.70000000E+00  1.70000000E+00  1.70000000E+00
  1.70000000E+00  1.30000000E+00  1.70000000E+00  1.30000000E+00  1.30000000E+00
  1.70000000E+00  1.30000000E+00  1.70000000E+00  1.70000000E+00  1.30000000E+00
  1.70000000E+00  1.30000000E+00  1.70000000E+00  1.30000000E+00  1.70000000E+00
  1.30000000E+00  1.70000000E+00  1.30000000E+00  1.70000000E+00  1.30000000E+00
  1.70000000E+00  1.30000000E+00  1.70000000E+00  1.30000000E+00  1.70000000E+00
  1.30000000E+00  1.30000000E+00  1.70000000E+00  1.30000000E+00  1.30000000E+00
  1.30000000E+00  1.70000000E+00  1.30000000E+00  1.70000000E+00  1.30000000E+00
  1.30000000E+00  1.70000000E+00  1.30000000E+00  1.30000000E+00  1.70000000E+00
  1.30000000E+00  1.30000000E+00  1.50000000E+00  1.50000000E+00  1.50000000E+00
  1.50000000E+00  1.50000000E+00  1.50000000E+00  1.70000000E+00  1.70000000E+00
  1.70000000E+00  1.70000000E+00  1.70000000E+00  1.70000000E+00  1.30000000E+00
  1.30000000E+00  1.30000000E+00  1.30000000E+00  1.30000000E+00  1.30000000E+00
  1.30000000E+00  1.30000000E+00  1.30000000E+00  1.30000000E+00  1.30000000E+00
  1.30000000E+00  1.30000000E+00  1.30000000E+00  1.30000000E+00  1.30000000E+00
  1.30000000E+00  1.30000000E+00  1.50000000E+00  1.70000000E+00  1.70000000E+00
  1.70000000E+00  1.70000000E+00  1.30000000E+00  1.30000000E+00  1.30000000E+00
  1.70000000E+00  1.30000000E+00  1.70000000E+00  1.30000000E+00  1.70000000E+00
  1.30000000E+00  1.30000000E+00  1.55000000E+00  1.70000000E+00  1.70000000E+00
  1.70000000E+00  1.70000000E+00  1.70000000E+00  1.70000000E+00  1.70000000E+00
  1.30000000E+00  1.70000000E+00  1.30000000E+00  1.70000000E+00  1.30000000E+00
  1.70000000E+00  1.30000000E+00  1.70000000E+00  1.70000000E+00  1.30000000E+00
  1.70000000E+00  1.30000000E+00  1.30000000E+00  1.70000000E+00  1.70000000E+00
  1.70000000E+00  1.70000000E+00  1.50000000E+00  1.70000000E+00  1.70000000E+00
  1.70000000E+00  1.70000000E+00  1.70000000E+00  1.70000000E+00  1.70000000E+00
  1.70000000E+00  1.30000000E+00  1.70000000E+00  1.30000000E+00  1.70000000E+00
  1.30000000E+00  1.70000000E+00  1.30000000E+00  1.70000000E+00  1.70000000E+00
  1.30000000E+00  1.30000000E+00  1.30000000E+00  1.30000000E+00  1.55000000E+00
  1.55000000E+00  1.70000000E+00  1.30000000E+00  1.55000000E+00  1.70000000E+00
  1.30000000E+00  1.70000000E+00  1.70000000E+00  1.70000000E+00  1.70000000E+00
  1.30000000E+00  1.70000000E+00  1.70000000E+00  1.30000000E+00  1.70000000E+00
  1.70000000E+00  1.70000000E+00  1.70000000E+00  1.70000000E+00  1.70000000E+00
  1.70000000E+00  1.70000000E+00  1.70000000E+00  1.70000000E+00  1.70000000E+00
  1.70000000E+00  1.70000000E+00  1.30000000E+00  1.70000000E+00  1.30000000E+00
  1.30000000E+00  1.70000000E+00  1.30000000E+00  1.70000000E+00  1.70000000E+00
  1.30000000E+00  1.70000000E+00  1.30000000E+00  1.70000000E+00  1.30000000E+00
  1.70000000E+00  1.30000000E+00  1.70000000E+00  1.30000000E+00  1.70000000E+00
  1.30000000E+00  1.70000000E+00  1.30000000E+00  1.70000000E+00  1.30000000E+00
  1.70000000E+00  1.30000000E+00  1.30000000E+00  1.70000000E+00  1.30000000E+00
  1.30000000E+00  1.30000000E+00  1.70000000E+00  1.30000000E+00  1.70000000E+00
  1.30000000E+00  1.30000000E+00  1.70000000E+00  1.30000000E+00  1.30000000E+00
  1.70000000E+00  1.30000000E+00  1.30000000E+00  1.50000000E+00  1.50000000E+00
  1.50000000E+00  1.50000000E+00  1.50000000E+00  1.50000000E+00  1.70000000E+00
  1.70000000E+00  1.70000000E+00  1.70000000E+00  1.70000000E+00  1.70000000E+00
  1.30000000E+00  1.30000000E+00  1.30000000E+00  1.30000000E+00  1.30000000E+00
  1.30000000E+00  1.30000000E+00  1.30000000E+00  1.30000000E+00  1.30000000E+00
  1.30000000E+00  1.30000000E+00  1.30000000E+00  1.30000000E+00  1.30000000E+00
  1.30000000E+00  1.30000000E+00  1.30000000E+00  1.50000000E+00  1.70000000E+00
  1.70000000E+00  1.70000000E+00  1.70000000E+00  1.30000000E+00  1.30000000E+00
  1.30000000E+00  1.70000000E+00  1.30000000E+00  1.70000000E+00  1.30000000E+00
  1.70000000E+00  1.30000000E+00  1.30000000E+00  1.55000000E+00  1.70000000E+00
  1.70000000E+00  1.70000000E+00  1.70000000E+00  1.70000000E+00  1.70000000E+00
  1.70000000E+00  1.30000000E+00  1.70000000E+00  1.30000000E+00  1.70000000E+00
  1.30000000E+00  1.70000000E+00  1.30000000E+00  1.70000000E+00  1.70000000E+00
  1.30000000E+00  1.70000000E+00  1.30000000E+00  1.30000000E+00  1.70000000E+00
  1.70000000E+00  1.70000000E+00  1.70000000E+00  1.50000000E+00  1.70000000E+00
  1.70000000E+00  1.70000000E+00  1.70000000E+00  1.70000000E+00  1.70000000E+00
  1.70000000E+00  1.70000000E+00  1.30000000E+00  1.70000000E+00  1.30000000E+00
  1.70000000E+00  1.30000000E+00  1.70000000E+00  1.30000000E+00  1.70000000E+00
  1.70000000E+00  1.30000000E+00  1.30000000E+00  1.30000000E+00  1.30000000E+00
  1.55000000E+00  1.55000000E+00  1.70000000E+00  1.30000000E+00  1.55000000E+00
  1.70000000E+00  1.30000000E+00  1.70000000E+00  1.70000000E+00  1.70000000E+00
  1.70000000E+00  1.30000000E+00  1.70000000E+00  1.70000000E+00  1.30000000E+00
  1.70000000E+00  1.70000000E+00  1.70000000E+00  1.70000000E+00  1.70000000E+00
  1.70000000E+00  1.70000000E+00  1.70000000E+00  1.70000000E+00  1.70000000E+00
  1.70000000E+00  1.70000000E+00  1.70000000E+00  1.30000000E+00  1.70000000E+00
  1.30000000E+00  1.30000000E+00  1.70000000E+00  1.30000000E+00  1.70000000E+00
  1.70000000E+00  1.30000000E+00  1.70000000E+00  1.30000000E+00  1.70000000E+00
  1.30000000E+00  1.70000000E+00  1.30000000E+00  1.70000000E+00  1.30000000E+00
  1.70000000E+00  1.30000000E+00  1.70000000E+00  1.30000000E+00  1.70000000E+00
  1.30000000E+00  1.70000000E+00  1.30000000E+00  1.30000000E+00  1.70000000E+00
  1.30000000E+00  1.30000000E+00  1.30000000E+00  1.70000000E+00  1.30000000E+00
  1.70000000E+00  1.30000000E+00  1.30000000E+00  1.70000000E+00  1.30000000E+00
  1.30000000E+00  1.70000000E+00  1.30000000E+00  1.30000000E+00  1.50000000E+00
  1.50000000E+00  1.50000000E+00  1.50000000E+00  1.50000000E+00  1.50000000E+00
  1.70000000E+00  1.70000000E+00  1.70000000E+00  1.70000000E+00  1.70000000E+00
  1.70000000E+00  1.30000000E+00  1.30000000E+00  1.30000000E+00  1.30000000E+00
  1.30000000E+00  1.30000000E+00  1.30000000E+00  1.30000000E+00  1.30000000E+00
  1.30000000E+00  1.30000000E+00  1.30000000E+00  1.30000000E+00  1.30000000E+00
  1.30000000E+00  1.30000000E+00  1.30000000E+00  1.30000000E+00  1.50000000E+00
  1.70000000E+00  1.70000000E+00  1.70000000E+00  1.70000000E+00  1.30000000E+00
  1.30000000E+00  1.30000000E+00  1.70000000E+00  1.30000000E+00  1.70000000E+00
  1.30000000E+00  1.70000000E+00  1.30000000E+00  1.30000000E+00  1.55000000E+00
  1.70000000E+00  1.70000000E+00  1.70000000E+00  1.70000000E+00  1.70000000E+00
  1.70000000E+00  1.70000000E+00  1.30000000E+00  1.70000000E+00  1.30000000E+00
  1.70000000E+00  1.30000000E+00  1.70000000E+00  1.30000000E+00  1.70000000E+00
  1.70000000E+00  1.30000000E+00  1.70000000E+00  1.30000000E+00  1.30000000E+00
  1.70000000E+00  1.70000000E+00  1.70000000E+00  1.70000000E+00  1.50000000E+00
  1.70000000E+00  1.70000000E+00  1.70000000E+00  1.70000000E+00  1.70000000E+00
  1.70000000E+00  1.70000000E+00  1.70000000E+00  1.30000000E+00  1.70000000E+00
  1.30000000E+00  1.70000000E+00  1.30000000E+00  1.70000000E+00  1.30000000E+00
  1.70000000E+00  1.70000000E+00  1.30000000E+00  1.30000000E+00  1.30000000E+00
  1.30000000E+00  1.55000000E+00  1.55000000E+00  1.70000000E+00  1.30000000E+00
  1.55000000E+00  1.70000000E+00  1.30000000E+00  1.70000000E+00  1.70000000E+00
  1.70000000E+00  1.70000000E+00  1.30000000E+00  1.70000000E+00  1.70000000E+00
  1.30000000E+00  1.70000000E+00  1.70000000E+00  1.70000000E+00  1.70000000E+00
  1.70000000E+00  1.70000000E+00  1.70000000E+00  1.70000000E+00  1.70000000E+00
  1.70000000E+00  1.70000000E+00  1.70000000E+00  1.70000000E+00  1.30000000E+00
  1.70000000E+00  1.30000000E+00  1.30000000E+00  1.70000000E+00  1.30000000E+00
  1.70000000E+00  1.70000000E+00  1.30000000E+00  1.70000000E+00  1.30000000E+00
  1.70000000E+00  1.30000000E+00  1.70000000E+00  1.30000000E+00  1.70000000E+00
  1.30000000E+00  1.70000000E+00  1.30000000E+00  1.70000000E+00  1.30000000E+00
  1.70000000E+00  1.30000000E+00  1.70000000E+00  1.30000000E+00  1.30000000E+00
  1.70000000E+00  1.30000000E+00  1.30000000E+00  1.30000000E+00  1.70000000E+00
  1.30000000E+00  1.70000000E+00  1.30000000E+00  1.30000000E+00  1.70000000E+00
  1.30000000E+00  1.30000000E+00  1.70000000E+00  1.30000000E+00  1.30000000E+00
  1.50000000E+00  1.50000000E+00  1.50000000E+00  1.50000000E+00  1.50000000E+00
  1.50000000E+00  1.70000000E+00  1.70000000E+00  1.70000000E+00  1.70000000E+00
  1.70000000E+00  1.70000000E+00  1.30000000E+00  1.30000000E+00  1.30000000E+00
  1.30000000E+00  1.30000000E+00  1.30000000E+00  1.30000000E+00  1.30000000E+00
  1.30000000E+00  1.30000000E+00  1.30000000E+00  1.30000000E+00  1.30000000E+00
  1.30000000E+00  1.30000000E+00  1.30000000E+00  1.30000000E+00  1.30000000E+00
  1.50000000E+00  1.70000000E+00  1.70000000E+00  1.70000000E+00  1.70000000E+00
  1.30000000E+00  1.30000000E+00  1.30000000E+00  1.70000000E+00  1.30000000E+00
  1.70000000E+00  1.30000000E+00  1.70000000E+00  1.30000000E+00  1.30000000E+00
  1.55000000E+00  1.70000000E+00  1.70000000E+00  1.70000000E+00  1.70000000E+00
  1.70000000E+00  1.70000000E+00  1.70000000E+00  1.30000000E+00  1.70000000E+00
  1.30000000E+00  1.70000000E+00  1.30000000E+00  1.70000000E+00  1.30000000E+00
  1.70000000E+00  1.70000000E+00  1.30000000E+00  1.70000000E+00  1.30000000E+00
  1.30000000E+00  1.70000000E+00  1.70000000E+00  1.70000000E+00  1.70000000E+00
  1.50000000E+00  1.70000000E+00  1.70000000E+00  1.70000000E+00  1.70000000E+00
  1.70000000E+00  1.70000000E+00  1.70000000E+00  1.70000000E+00  1.30000000E+00
  1.70000000E+00  1.30000000E+00  1.70000000E+00  1.30000000E+00  1.70000000E+00
  1.30000000E+00  1.70000000E+00  1.70000000E+00  1.30000000E+00  1.30000000E+00
  1.30000000E+00  1.30000000E+00  1.55000000E+00  1.55000000E+00  1.70000000E+00
  1.30000000E+00  1.55000000E+00  1.70000000E+00  1.30000000E+00  1.70000000E+00
  1.70000000E+00  1.70000000E+00  1.70000000E+00  1.30000000E+00  1.70000000E+00
  1.70000000E+00  1.30000000E+00  1.70000000E+00  1.70000000E+00  1.70000000E+00
  1.70000000E+00  1.70000000E+00  1.70000000E+00  1.70000000E+00  1.70000000E+00
  1.70000000E+00  1.70000000E+00  1.70000000E+00  1.70000000E+00  1.70000000E+00
  1.30000000E+00  1.70000000E+00  1.30000000E+00  1.30000000E+00  1.70000000E+00
  1.30000000E+00  1.70000000E+00  1.70000000E+00  1.30000000E+00  1.70000000E+00
  1.30000000E+00  1.70000000E+00  1.30000000E+00  1.70000000E+00  1.30000000E+00
  1.70000000E+00  1.30000000E+00  1.70000000E+00  1.30000000E+00  1.70000000E+00
  1.30000000E+00  1.70000000E+00  1.30000000E+00  1.70000000E+00  1.30000000E+00
  1.30000000E+00  1.70000000E+00  1.30000000E+00  1.30000000E+00  1.30000000E+00
  1.70000000E+00  1.30000000E+00  1.70000000E+00  1.30000000E+00  1.30000000E+00
  1.70000000E+00  1.30000000E+00  1.30000000E+00  1.70000000E+00  1.30000000E+00
  1.30000000E+00  1.50000000E+00  1.50000000E+00  1.50000000E+00  1.50000000E+00
  1.50000000E+00  1.50000000E+00  1.70000000E+00  1.70000000E+00  1.70000000E+00
  1.70000000E+00  1.70000000E+00  1.70000000E+00  1.30000000E+00  1.30000000E+00
  1.30000000E+00  1.30000000E+00  1.30000000E+00  1.30000000E+00  1.30000000E+00
  1.30000000E+00  1.30000000E+00  1.30000000E+00  1.30000000E+00  1.30000000E+00
  1.30000000E+00  1.30000000E+00  1.30000000E+00  1.30000000E+00  1.30000000E+00
  1.30000000E+00  1.50000000E+00  1.70000000E+00  1.70000000E+00  1.70000000E+00
  1.70000000E+00  1.30000000E+00  1.30000000E+00  1.30000000E+00  1.70000000E+00
  1.30000000E+00  1.70000000E+00  1.30000000E+00  1.70000000E+00  1.30000000E+00
  1.30000000E+00  1.55000000E+00  1.70000000E+00  1.70000000E+00  1.70000000E+00
  1.70000000E+00  1.70000000E+00  1.70000000E+00  1.70000000E+00  1.30000000E+00
  1.70000000E+00  1.30000000E+00  1.70000000E+00  1.30000000E+00  1.70000000E+00
  1.30000000E+00  1.70000000E+00  1.70000000E+00  1.30000000E+00  1.70000000E+00
  1.30000000E+00  1.30000000E+00  1.70000000E+00  1.70000000E+00  1.70000000E+00
  1.70000000E+00  1.50000000E+00  1.70000000E+00  1.70000000E+00  1.70000000E+00
  1.70000000E+00  1.70000000E+00  1.70000000E+00  1.70000000E+00  1.70000000E+00
  1.30000000E+00  1.70000000E+00  1.30000000E+00  1.70000000E+00  1.30000000E+00
  1.70000000E+00  1.30000000E+00  1.70000000E+00  1.70000000E+00  1.30000000E+00
  1.30000000E+00  1.30000000E+00  1.30000000E+00  1.55000000E+00  1.55000000E+00
  1.70000000E+00  1.30000000E+00  1.55000000E+00  1.70000000E+00  1.30000000E+00
  1.70000000E+00  1.70000000E+00  1.70000000E+00  1.70000000E+00  1.30000000E+00
  1.70000000E+00  1.70000000E+00  1.30000000E+00  1.70000000E+00  1.70000000E+00
  1.70000000E+00  1.70000000E+00  1.70000000E+00  1.70000000E+00  1.70000000E+00
  1.70000000E+00  1.70000000E+00  1.70000000E+00  1.70000000E+00  1.70000000E+00
  1.70000000E+00  1.30000000E+00  1.70000000E+00  1.30000000E+00  1.30000000E+00
  1.70000000E+00  1.30000000E+00  1.70000000E+00  1.70000000E+00  1.30000000E+00
  1.70000000E+00  1.30000000E+00  1.70000000E+00  1.30000000E+00  1.70000000E+00
  1.30000000E+00  1.70000000E+00  1.30000000E+00  1.70000000E+00  1.30000000E+00
  1.70000000E+00  1.30000000E+00  1.70000000E+00  1.30000000E+00  1.70000000E+00
  1.30000000E+00  1.30000000E+00  1.70000000E+00  1.30000000E+00  1.30000000E+00
  1.30000000E+00  1.70000000E+00  1.30000000E+00  1.70000000E+00  1.30000000E+00
  1.30000000E+00  1.70000000E+00  1.30000000E+00  1.30000000E+00  1.70000000E+00
  1.30000000E+00  1.30000000E+00  1.50000000E+00  1.50000000E+00  1.50000000E+00
  1.50000000E+00  1.50000000E+00  1.50000000E+00  1.70000000E+00  1.70000000E+00
  1.70000000E+00  1.70000000E+00  1.70000000E+00  1.70000000E+00  1.30000000E+00
  1.30000000E+00  1.30000000E+00  1.30000000E+00  1.30000000E+00  1.30000000E+00
  1.30000000E+00  1.30000000E+00  1.30000000E+00  1.30000000E+00  1.30000000E+00
  1.30000000E+00  1.30000000E+00  1.30000000E+00  1.30000000E+00  1.30000000E+00
  1.30000000E+00  1.30000000E+00  1.50000000E+00  1.70000000E+00  1.70000000E+00
  1.70000000E+00  1.70000000E+00  1.30000000E+00  1.30000000E+00  1.30000000E+00
  1.70000000E+00  1.30000000E+00  1.70000000E+00  1.30000000E+00  1.70000000E+00
  1.30000000E+00  1.30000000E+00  1.55000000E+00  1.70000000E+00  1.70000000E+00
  1.70000000E+00  1.70000000E+00  1.70000000E+00  1.70000000E+00  1.70000000E+00
  1.30000000E+00  1.70000000E+00  1.30000000E+00  1.70000000E+00  1.30000000E+00
  1.70000000E+00  1.30000000E+00  1.70000000E+00  1.70000000E+00  1.30000000E+00
  1.70000000E+00  1.30000000E+00  1.30000000E+00  1.70000000E+00  1.70000000E+00
  1.70000000E+00  1.70000000E+00  1.50000000E+00  1.70000000E+00  1.70000000E+00
  1.70000000E+00  1.70000000E+00  1.70000000E+00  1.70000000E+00  1.70000000E+00
  1.70000000E+00  1.30000000E+00  1.70000000E+00  1.30000000E+00  1.70000000E+00
  1.30000000E+00  1.70000000E+00  1.30000000E+00  1.70000000E+00  1.70000000E+00
  1.30000000E+00  1.30000000E+00  1.30000000E+00  1.30000000E+00  1.55000000E+00
  1.55000000E+00  1.70000000E+00  1.30000000E+00  1.55000000E+00  1.70000000E+00
  1.30000000E+00  1.70000000E+00  1.70000000E+00  1.70000000E+00  1.70000000E+00
  1.30000000E+00  1.70000000E+00  1.70000000E+00  1.30000000E+00  1.70000000E+00
  1.70000000E+00  1.70000000E+00  1.70000000E+00  1.70000000E+00  1.70000000E+00
  1.70000000E+00  1.70000000E+00  1.70000000E+00  1.70000000E+00  1.70000000E+00
  1.70000000E+00  1.70000000E+00  1.30000000E+00  1.70000000E+00  1.30000000E+00
  1.30000000E+00  1.70000000E+00  1.30000000E+00  1.70000000E+00  1.70000000E+00
  1.30000000E+00  1.70000000E+00  1.30000000E+00  1.70000000E+00  1.30000000E+00
  1.70000000E+00  1.30000000E+00  1.70000000E+00  1.30000000E+00  1.70000000E+00
  1.30000000E+00  1.70000000E+00  1.30000000E+00  1.70000000E+00  1.30000000E+00
  1.70000000E+00  1.30000000E+00  1.30000000E+00  1.70000000E+00  1.30000000E+00
  1.30000000E+00  1.30000000E+00  1.70000000E+00  1.30000000E+00  1.70000000E+00
  1.30000000E+00  1.30000000E+00  1.70000000E+00  1.30000000E+00  1.30000000E+00
  1.70000000E+00  1.30000000E+00  1.30000000E+00  1.50000000E+00  1.50000000E+00
  1.50000000E+00  1.50000000E+00  1.50000000E+00  1.50000000E+00  1.70000000E+00
  1.70000000E+00  1.70000000E+00  1.70000000E+00  1.70000000E+00  1.70000000E+00
  1.30000000E+00  1.30000000E+00  1.30000000E+00  1.30000000E+00  1.30000000E+00
  1.30000000E+00  1.30000000E+00  1.30000000E+00  1.30000000E+00  1.30000000E+00
  1.30000000E+00  1.30000000E+00  1.30000000E+00  1.30000000E+00  1.30000000E+00
  1.30000000E+00  1.30000000E+00  1.30000000E+00  1.50000000E+00  1.70000000E+00
  1.70000000E+00  1.70000000E+00  1.70000000E+00  1.30000000E+00  1.30000000E+00
  1.30000000E+00  1.70000000E+00  1.30000000E+00  1.70000000E+00  1.30000000E+00
  1.70000000E+00  1.30000000E+00  1.30000000E+00  1.55000000E+00  1.70000000E+00
  1.70000000E+00  1.70000000E+00  1.70000000E+00  1.70000000E+00  1.70000000E+00
  1.70000000E+00  1.30000000E+00  1.70000000E+00  1.30000000E+00  1.70000000E+00
  1.30000000E+00  1.70000000E+00  1.30000000E+00  1.70000000E+00  1.70000000E+00
  1.30000000E+00  1.70000000E+00  1.30000000E+00  1.30000000E+00  1.70000000E+00
  1.70000000E+00  1.70000000E+00  1.70000000E+00  1.50000000E+00  1.70000000E+00
  1.70000000E+00  1.70000000E+00  1.70000000E+00  1.70000000E+00  1.70000000E+00
  1.70000000E+00  1.70000000E+00  1.30000000E+00  1.70000000E+00  1.30000000E+00
  1.70000000E+00  1.30000000E+00  1.70000000E+00  1.30000000E+00  1.70000000E+00
  1.70000000E+00  1.30000000E+00  1.30000000E+00  1.30000000E+00  1.30000000E+00
  1.55000000E+00  1.55000000E+00  1.70000000E+00  1.30000000E+00  1.55000000E+00
  1.70000000E+00  1.30000000E+00  1.70000000E+00  1.70000000E+00  1.70000000E+00
  1.70000000E+00  1.30000000E+00  1.70000000E+00  1.70000000E+00  1.30000000E+00
  1.70000000E+00  1.70000000E+00  1.70000000E+00  1.70000000E+00  1.70000000E+00
  1.70000000E+00  1.70000000E+00  1.70000000E+00  1.70000000E+00  1.70000000E+00
  1.70000000E+00  1.70000000E+00  1.70000000E+00  1.30000000E+00  1.70000000E+00
  1.30000000E+00  1.30000000E+00  1.70000000E+00  1.30000000E+00  1.70000000E+00
  1.70000000E+00  1.30000000E+00  1.70000000E+00  1.30000000E+00  1.70000000E+00
  1.30000000E+00  1.70000000E+00  1.30000000E+00  1.70000000E+00  1.30000000E+00
  1.70000000E+00  1.30000000E+00  1.70000000E+00  1.30000000E+00  1.70000000E+00
  1.30000000E+00  1.70000000E+00  1.30000000E+00  1.30000000E+00  1.70000000E+00
  1.30000000E+00  1.30000000E+00  1.30000000E+00  1.70000000E+00  1.30000000E+00
  1.70000000E+00  1.30000000E+00  1.30000000E+00  1.70000000E+00  1.30000000E+00
  1.30000000E+00  1.70000000E+00  1.30000000E+00  1.30000000E+00  1.50000000E+00
  1.50000000E+00  1.50000000E+00  1.50000000E+00  1.50000000E+00  1.50000000E+00
  1.70000000E+00  1.70000000E+00  1.70000000E+00  1.70000000E+00  1.70000000E+00
  1.70000000E+00  1.30000000E+00  1.30000000E+00  1.30000000E+00  1.30000000E+00
  1.30000000E+00  1.30000000E+00  1.30000000E+00  1.30000000E+00  1.30000000E+00
  1.30000000E+00  1.30000000E+00  1.30000000E+00  1.30000000E+00  1.30000000E+00
  1.30000000E+00  1.30000000E+00  1.30000000E+00  1.30000000E+00  1.50000000E+00
  1.70000000E+00  1.70000000E+00  1.70000000E+00  1.70000000E+00  1.30000000E+00
  1.30000000E+00  1.30000000E+00  1.70000000E+00  1.30000000E+00  1.70000000E+00
  1.30000000E+00  1.70000000E+00  1.30000000E+00  1.30000000E+00  1.55000000E+00
  1.70000000E+00  1.70000000E+00  1.70000000E+00  1.70000000E+00  1.70000000E+00
  1.70000000E+00  1.70000000E+00  1.30000000E+00  1.70000000E+00  1.30000000E+00
  1.70000000E+00  1.30000000E+00  1.70000000E+00  1.30000000E+00  1.70000000E+00
  1.70000000E+00  1.30000000E+00  1.70000000E+00  1.30000000E+00  1.30000000E+00
  1.70000000E+00  1.70000000E+00  1.70000000E+00  1.70000000E+00  1.50000000E+00
  1.70000000E+00  1.70000000E+00  1.70000000E+00  1.70000000E+00  1.70000000E+00
  1.70000000E+00  1.70000000E+00  1.70000000E+00  1.30000000E+00  1.70000000E+00
  1.30000000E+00  1.70000000E+00  1.30000000E+00  1.70000000E+00  1.30000000E+00
  1.70000000E+00  1.70000000E+00  1.30000000E+00  1.30000000E+00  1.30000000E+00
  1.30000000E+00  1.55000000E+00  1.55000000E+00  1.70000000E+00  1.30000000E+00
  1.55000000E+00  1.70000000E+00  1.30000000E+00  1.70000000E+00  1.70000000E+00
  1.70000000E+00  1.70000000E+00  1.30000000E+00  1.70000000E+00  1.70000000E+00
  1.30000000E+00  1.70000000E+00  1.70000000E+00  1.70000000E+00  1.70000000E+00
  1.70000000E+00  1.70000000E+00  1.70000000E+00  1.70000000E+00  1.70000000E+00
  1.70000000E+00  1.70000000E+00  1.70000000E+00  1.70000000E+00  1.30000000E+00
  1.70000000E+00  1.30000000E+00  1.30000000E+00  1.70000000E+00  1.30000000E+00
  1.70000000E+00  1.70000000E+00  1.30000000E+00  1.70000000E+00  1.30000000E+00
  1.70000000E+00  1.30000000E+00  1.70000000E+00  1.30000000E+00  1.70000000E+00
  1.30000000E+00  1.70000000E+00  1.30000000E+00  1.70000000E+00  1.30000000E+00
  1.70000000E+00  1.30000000E+00  1.70000000E+00  1.30000000E+00  1.30000000E+00
  1.70000000E+00  1.30000000E+00  1.30000000E+00  1.30000000E+00  1.70000000E+00
  1.30000000E+00  1.70000000E+00  1.30000000E+00  1.30000000E+00  1.70000000E+00
  1.30000000E+00  1.30000000E+00  1.70000000E+00  1.30000000E+00  1.30000000E+00
  1.50000000E+00  1.50000000E+00  1.50000000E+00  1.50000000E+00  1.50000000E+00
  1.50000000E+00  1.70000000E+00  1.70000000E+00  1.70000000E+00  1.70000000E+00
  1.70000000E+00  1.70000000E+00  1.30000000E+00  1.30000000E+00  1.30000000E+00
  1.30000000E+00  1.30000000E+00  1.30000000E+00  1.30000000E+00  1.30000000E+00
  1.30000000E+00  1.30000000E+00  1.30000000E+00  1.30000000E+00  1.30000000E+00
  1.30000000E+00  1.30000000E+00  1.30000000E+00  1.30000000E+00  1.30000000E+00
  1.50000000E+00  1.70000000E+00  1.70000000E+00  1.70000000E+00  1.70000000E+00
  1.30000000E+00  1.30000000E+00  1.30000000E+00  1.70000000E+00  1.30000000E+00
  1.70000000E+00  1.30000000E+00  1.70000000E+00  1.30000000E+00  1.30000000E+00
  1.55000000E+00  1.70000000E+00  1.70000000E+00  1.70000000E+00  1.70000000E+00
  1.70000000E+00  1.70000000E+00  1.70000000E+00  1.30000000E+00  1.70000000E+00
  1.30000000E+00  1.70000000E+00  1.30000000E+00  1.70000000E+00  1.30000000E+00
  1.70000000E+00  1.70000000E+00  1.30000000E+00  1.70000000E+00  1.30000000E+00
  1.30000000E+00  1.70000000E+00  1.70000000E+00  1.70000000E+00  1.70000000E+00
  1.50000000E+00  1.70000000E+00  1.70000000E+00  1.70000000E+00  1.70000000E+00
  1.70000000E+00  1.70000000E+00  1.70000000E+00  1.70000000E+00  1.30000000E+00
  1.70000000E+00  1.30000000E+00  1.70000000E+00  1.30000000E+00  1.70000000E+00
  1.30000000E+00  1.70000000E+00  1.70000000E+00  1.30000000E+00  1.30000000E+00
  1.30000000E+00  1.30000000E+00  1.55000000E+00  1.55000000E+00  1.70000000E+00
  1.30000000E+00  1.55000000E+00  1.70000000E+00  1.30000000E+00  1.70000000E+00
  1.70000000E+00  1.70000000E+00  1.70000000E+00  1.30000000E+00  1.70000000E+00
  1.70000000E+00  1.30000000E+00  1.70000000E+00  1.70000000E+00  1.70000000E+00
  1.70000000E+00  1.70000000E+00  1.70000000E+00  1.70000000E+00  1.70000000E+00
  1.70000000E+00  1.70000000E+00  1.70000000E+00  1.70000000E+00  1.70000000E+00
  1.30000000E+00  1.70000000E+00  1.30000000E+00  1.30000000E+00  1.70000000E+00
  1.30000000E+00  1.70000000E+00  1.70000000E+00  1.30000000E+00  1.70000000E+00
  1.30000000E+00  1.70000000E+00  1.30000000E+00  1.70000000E+00  1.30000000E+00
  1.70000000E+00  1.30000000E+00  1.70000000E+00  1.30000000E+00  1.70000000E+00
  1.30000000E+00  1.70000000E+00  1.30000000E+00  1.70000000E+00  1.30000000E+00
  1.30000000E+00  1.70000000E+00  1.30000000E+00  1.30000000E+00  1.30000000E+00
  1.70000000E+00  1.30000000E+00  1.70000000E+00  1.30000000E+00  1.30000000E+00
  1.70000000E+00  1.30000000E+00  1.30000000E+00  1.70000000E+00  1.30000000E+00
  1.30000000E+00  1.50000000E+00  1.50000000E+00  1.50000000E+00  1.50000000E+00
  1.50000000E+00  1.50000000E+00  1.70000000E+00  1.70000000E+00  1.70000000E+00
  1.70000000E+00  1.70000000E+00  1.70000000E+00  1.30000000E+00  1.30000000E+00
  1.30000000E+00  1.30000000E+00  1.30000000E+00  1.30000000E+00  1.30000000E+00
  1.30000000E+00  1.30000000E+00  1.30000000E+00  1.30000000E+00  1.30000000E+00
  1.30000000E+00  1.30000000E+00  1.30000000E+00  1.30000000E+00  1.30000000E+00
  1.30000000E+00  1.50000000E+00  1.70000000E+00  1.70000000E+00  1.70000000E+00
  1.70000000E+00  1.30000000E+00  1.30000000E+00  1.30000000E+00  1.70000000E+00
  1.30000000E+00  1.70000000E+00  1.30000000E+00  1.70000000E+00  1.30000000E+00
  1.30000000E+00  1.55000000E+00  1.70000000E+00  1.70000000E+00  1.70000000E+00
  1.70000000E+00  1.70000000E+00  1.70000000E+00  1.70000000E+00  1.30000000E+00
  1.70000000E+00  1.30000000E+00  1.70000000E+00  1.30000000E+00  1.70000000E+00
  1.30000000E+00  1.70000000E+00  1.70000000E+00  1.30000000E+00  1.70000000E+00
  1.30000000E+00  1.30000000E+00  1.70000000E+00  1.70000000E+00  1.70000000E+00
  1.70000000E+00  1.50000000E+00  1.70000000E+00  1.70000000E+00  1.70000000E+00
  1.70000000E+00  1.70000000E+00  1.70000000E+00  1.70000000E+00  1.70000000E+00
  1.30000000E+00  1.70000000E+00  1.30000000E+00  1.70000000E+00  1.30000000E+00
  1.70000000E+00  1.30000000E+00  1.70000000E+00  1.70000000E+00  1.30000000E+00
  1.30000000E+00  1.30000000E+00  1.30000000E+00  1.55000000E+00  1.55000000E+00
  1.70000000E+00  1.30000000E+00  1.55000000E+00  1.70000000E+00  1.30000000E+00
  1.70000000E+00  1.70000000E+00  1.70000000E+00  1.70000000E+00  1.30000000E+00
  1.70000000E+00  1.70000000E+00  1.30000000E+00  1.70000000E+00  1.70000000E+00
  1.70000000E+00  1.70000000E+00  1.70000000E+00  1.70000000E+00  1.70000000E+00
  1.70000000E+00  1.70000000E+00  1.70000000E+00  1.70000000E+00  1.70000000E+00
  1.70000000E+00  1.30000000E+00  1.70000000E+00  1.30000000E+00  1.30000000E+00
  1.70000000E+00  1.30000000E+00  1.70000000E+00  1.70000000E+00  1.30000000E+00
  1.70000000E+00  1.30000000E+00  1.70000000E+00  1.30000000E+00  1.70000000E+00
  1.30000000E+00  1.70000000E+00  1.30000000E+00  1.70000000E+00  1.30000000E+00
  1.70000000E+00  1.30000000E+00  1.70000000E+00  1.30000000E+00  1.70000000E+00
  1.30000000E+00  1.30000000E+00  1.70000000E+00  1.30000000E+00  1.30000000E+00
  1.30000000E+00  1.70000000E+00  1.30000000E+00  1.70000000E+00  1.30000000E+00
  1.30000000E+00  1.70000000E+00  1.30000000E+00  1.30000000E+00  1.70000000E+00
  1.30000000E+00  1.30000000E+00  1.50000000E+00  1.50000000E+00  1.50000000E+00
  1.50000000E+00  1.50000000E+00  1.50000000E+00  1.70000000E+00  1.70000000E+00
  1.70000000E+00  1.70000000E+00  1.70000000E+00  1.70000000E+00  1.30000000E+00
  1.30000000E+00  1.30000000E+00  1.30000000E+00  1.30000000E+00  1.30000000E+00
  1.30000000E+00  1.30000000E+00  1.30000000E+00  1.30000000E+00  1.30000000E+00
  1.30000000E+00  1.30000000E+00  1.30000000E+00  1.30000000E+00  1.30000000E+00
  1.30000000E+00  1.30000000E+00  1.50000000E+00  1.70000000E+00  1.70000000E+00
  1.70000000E+00  1.70000000E+00  1.30000000E+00  1.30000000E+00  1.30000000E+00
  1.70000000E+00  1.30000000E+00  1.70000000E+00  1.30000000E+00  1.70000000E+00
  1.30000000E+00  1.30000000E+00  1.55000000E+00  1.70000000E+00  1.70000000E+00
  1.70000000E+00  1.70000000E+00  1.70000000E+00  1.70000000E+00  1.70000000E+00
  1.30000000E+00  1.70000000E+00  1.30000000E+00  1.70000000E+00  1.30000000E+00
  1.70000000E+00  1.30000000E+00  1.70000000E+00  1.70000000E+00  1.30000000E+00
  1.70000000E+00  1.30000000E+00  1.30000000E+00  1.70000000E+00  1.70000000E+00
  1.70000000E+00  1.70000000E+00  1.50000000E+00  1.70000000E+00  1.70000000E+00
  1.70000000E+00  1.70000000E+00  1.70000000E+00  1.70000000E+00  1.70000000E+00
  1.70000000E+00  1.30000000E+00  1.70000000E+00  1.30000000E+00  1.70000000E+00
  1.30000000E+00  1.70000000E+00  1.30000000E+00  1.70000000E+00  1.70000000E+00
  1.30000000E+00  1.30000000E+00  1.30000000E+00  1.30000000E+00  1.55000000E+00
  1.55000000E+00  1.70000000E+00  1.30000000E+00  1.55000000E+00  1.70000000E+00
  1.30000000E+00  1.70000000E+00  1.70000000E+00  1.70000000E+00  1.70000000E+00
  1.30000000E+00  1.70000000E+00  1.70000000E+00  1.30000000E+00  1.70000000E+00
  1.70000000E+00  1.70000000E+00  1.70000000E+00  1.70000000E+00  1.70000000E+00
  1.70000000E+00  1.70000000E+00  1.70000000E+00  1.70000000E+00  1.70000000E+00
  1.70000000E+00  1.70000000E+00  1.30000000E+00  1.70000000E+00  1.30000000E+00
  1.30000000E+00  1.70000000E+00  1.30000000E+00  1.70000000E+00  1.70000000E+00
  1.30000000E+00  1.70000000E+00  1.30000000E+00  1.70000000E+00  1.30000000E+00
  1.70000000E+00  1.30000000E+00  1.70000000E+00  1.30000000E+00  1.70000000E+00
  1.30000000E+00  1.70000000E+00  1.30000000E+00  1.70000000E+00  1.30000000E+00
  1.70000000E+00  1.30000000E+00  1.30000000E+00  1.70000000E+00  1.30000000E+00
  1.30000000E+00  1.30000000E+00  1.70000000E+00  1.30000000E+00  1.70000000E+00
  1.30000000E+00  1.30000000E+00  1.70000000E+00  1.30000000E+00  1.30000000E+00
  1.70000000E+00  1.30000000E+00  1.30000000E+00  1.50000000E+00  1.50000000E+00
  1.50000000E+00  1.50000000E+00  1.50000000E+00  1.50000000E+00  1.70000000E+00
  1.70000000E+00  1.70000000E+00  1.70000000E+00  1.70000000E+00  1.70000000E+00
  1.30000000E+00  1.30000000E+00  1.30000000E+00  1.30000000E+00  1.30000000E+00
  1.30000000E+00  1.30000000E+00  1.30000000E+00  1.30000000E+00  1.30000000E+00
  1.30000000E+00  1.30000000E+00  1.30000000E+00  1.30000000E+00  1.30000000E+00
  1.30000000E+00  1.30000000E+00  1.30000000E+00  1.50000000E+00  1.70000000E+00
  1.70000000E+00  1.70000000E+00  1.70000000E+00  1.30000000E+00  1.30000000E+00
  1.30000000E+00  1.70000000E+00  1.30000000E+00  1.70000000E+00  1.30000000E+00
  1.70000000E+00  1.30000000E+00  1.30000000E+00  1.55000000E+00  1.70000000E+00
  1.70000000E+00  1.70000000E+00  1.70000000E+00  1.70000000E+00  1.70000000E+00
  1.70000000E+00  1.30000000E+00  1.70000000E+00  1.30000000E+00  1.70000000E+00
  1.30000000E+00  1.70000000E+00  1.30000000E+00  1.70000000E+00  1.70000000E+00
  1.30000000E+00  1.70000000E+00  1.30000000E+00  1.30000000E+00  1.70000000E+00
  1.70000000E+00  1.70000000E+00  1.70000000E+00  1.50000000E+00  1.70000000E+00
  1.70000000E+00  1.70000000E+00  1.70000000E+00  1.70000000E+00  1.70000000E+00
  1.70000000E+00  1.70000000E+00  1.30000000E+00  1.70000000E+00  1.30000000E+00
  1.70000000E+00  1.30000000E+00  1.70000000E+00  1.30000000E+00  1.70000000E+00
  1.70000000E+00  1.30000000E+00  1.30000000E+00  1.30000000E+00  1.30000000E+00
  1.55000000E+00  1.55000000E+00  1.70000000E+00  1.30000000E+00  1.55000000E+00
  1.70000000E+00  1.30000000E+00  1.70000000E+00  1.70000000E+00  1.70000000E+00
  1.70000000E+00  1.30000000E+00  1.70000000E+00  1.70000000E+00  1.30000000E+00
  1.70000000E+00  1.70000000E+00  1.70000000E+00  1.70000000E+00  1.70000000E+00
  1.70000000E+00  1.70000000E+00  1.70000000E+00  1.70000000E+00  1.70000000E+00
  1.70000000E+00  1.70000000E+00  1.70000000E+00  1.30000000E+00  1.70000000E+00
  1.30000000E+00  1.30000000E+00  1.70000000E+00  1.30000000E+00  1.70000000E+00
  1.70000000E+00  1.30000000E+00  1.70000000E+00  1.30000000E+00  1.70000000E+00
  1.30000000E+00  1.70000000E+00  1.30000000E+00  1.70000000E+00  1.30000000E+00
  1.70000000E+00  1.30000000E+00  1.70000000E+00  1.30000000E+00  1.70000000E+00
  1.30000000E+00  1.70000000E+00  1.30000000E+00  1.30000000E+00  1.70000000E+00
  1.30000000E+00  1.30000000E+00  1.30000000E+00  1.70000000E+00  1.30000000E+00
  1.70000000E+00  1.30000000E+00  1.30000000E+00  1.70000000E+00  1.30000000E+00
  1.30000000E+00  1.70000000E+00  1.30000000E+00  1.30000000E+00  1.50000000E+00
  1.50000000E+00  1.50000000E+00  1.50000000E+00  1.50000000E+00  1.50000000E+00
  1.70000000E+00  1.70000000E+00  1.70000000E+00  1.70000000E+00  1.70000000E+00
  1.70000000E+00  1.30000000E+00  1.30000000E+00  1.30000000E+00  1.30000000E+00
  1.30000000E+00  1.30000000E+00  1.30000000E+00  1.30000000E+00  1.30000000E+00
  1.30000000E+00  1.30000000E+00  1.30000000E+00  1.30000000E+00  1.30000000E+00
  1.30000000E+00  1.30000000E+00  1.30000000E+00  1.30000000E+00  1.50000000E+00
  1.70000000E+00  1.70000000E+00  1.70000000E+00  1.70000000E+00  1.30000000E+00
  1.30000000E+00  1.30000000E+00  1.70000000E+00  1.30000000E+00  1.70000000E+00
  1.30000000E+00  1.70000000E+00  1.30000000E+00  1.30000000E+00  1.55000000E+00
  1.70000000E+00  1.70000000E+00  1.70000000E+00  1.70000000E+00  1.70000000E+00
  1.70000000E+00  1.70000000E+00  1.30000000E+00  1.70000000E+00  1.30000000E+00
  1.70000000E+00  1.30000000E+00  1.70000000E+00  1.30000000E+00  1.70000000E+00
  1.70000000E+00  1.30000000E+00  1.70000000E+00  1.30000000E+00  1.30000000E+00
  1.70000000E+00  1.70000000E+00  1.70000000E+00  1.70000000E+00  1.50000000E+00
  1.70000000E+00  1.70000000E+00  1.70000000E+00  1.70000000E+00  1.70000000E+00
  1.70000000E+00  1.70000000E+00  1.70000000E+00  1.30000000E+00  1.70000000E+00
  1.30000000E+00  1.70000000E+00  1.30000000E+00  1.70000000E+00  1.30000000E+00
  1.70000000E+00  1.70000000E+00  1.30000000E+00  1.30000000E+00  1.30000000E+00
  1.30000000E+00  1.55000000E+00  1.55000000E+00  1.70000000E+00  1.30000000E+00
  1.55000000E+00  1.70000000E+00  1.30000000E+00  1.70000000E+00  1.70000000E+00
  1.70000000E+00  1.70000000E+00  1.30000000E+00  1.70000000E+00  1.70000000E+00
  1.30000000E+00  1.70000000E+00  1.70000000E+00  1.70000000E+00  1.70000000E+00
  1.70000000E+00  1.70000000E+00  1.70000000E+00  1.70000000E+00  1.70000000E+00
  1.70000000E+00  1.70000000E+00  1.70000000E+00  1.70000000E+00  1.30000000E+00
  1.70000000E+00  1.30000000E+00  1.30000000E+00  1.70000000E+00  1.30000000E+00
  1.70000000E+00  1.70000000E+00  1.30000000E+00  1.70000000E+00  1.30000000E+00
  1.70000000E+00  1.30000000E+00  1.70000000E+00  1.30000000E+00  1.70000000E+00
  1.30000000E+00  1.70000000E+00  1.30000000E+00  1.70000000E+00  1.30000000E+00
  1.70000000E+00  1.30000000E+00  1.70000000E+00  1.30000000E+00  1.30000000E+00
  1.70000000E+00  1.30000000E+00  1.30000000E+00  1.30000000E+00  1.70000000E+00
  1.30000000E+00  1.70000000E+00  1.30000000E+00  1.30000000E+00  1.70000000E+00
  1.30000000E+00  1.30000000E+00  1.70000000E+00  1.30000000E+00  1.30000000E+00
  1.50000000E+00  1.50000000E+00  1.50000000E+00  1.50000000E+00  1.50000000E+00
  1.50000000E+00  1.70000000E+00  1.70000000E+00  1.70000000E+00  1.70000000E+00
  1.70000000E+00  1.70000000E+00  1.30000000E+00  1.30000000E+00  1.30000000E+00
  1.30000000E+00  1.30000000E+00  1.30000000E+00  1.30000000E+00  1.30000000E+00
  1.30000000E+00  1.30000000E+00  1.30000000E+00  1.30000000E+00  1.30000000E+00
  1.30000000E+00  1.30000000E+00  1.30000000E+00  1.30000000E+00  1.30000000E+00
  1.50000000E+00  1.70000000E+00  1.70000000E+00  1.70000000E+00  1.70000000E+00
  1.30000000E+00  1.30000000E+00  1.30000000E+00  1.70000000E+00  1.30000000E+00
  1.70000000E+00  1.30000000E+00  1.70000000E+00  1.30000000E+00  1.30000000E+00
  1.55000000E+00  1.70000000E+00  1.70000000E+00  1.70000000E+00  1.70000000E+00
  1.70000000E+00  1.70000000E+00  1.70000000E+00  1.30000000E+00  1.70000000E+00
  1.30000000E+00  1.70000000E+00  1.30000000E+00  1.70000000E+00  1.30000000E+00
  1.70000000E+00  1.70000000E+00  1.30000000E+00  1.70000000E+00  1.30000000E+00
  1.30000000E+00  1.70000000E+00  1.70000000E+00  1.70000000E+00  1.70000000E+00
  1.50000000E+00  1.70000000E+00  1.70000000E+00  1.70000000E+00  1.70000000E+00
  1.70000000E+00  1.70000000E+00  1.70000000E+00  1.70000000E+00  1.30000000E+00
  1.70000000E+00  1.30000000E+00  1.70000000E+00  1.30000000E+00  1.70000000E+00
  1.30000000E+00  1.70000000E+00  1.70000000E+00  1.30000000E+00  1.30000000E+00
  1.30000000E+00  1.30000000E+00  1.55000000E+00  1.55000000E+00  1.70000000E+00
  1.30000000E+00  1.55000000E+00  1.70000000E+00  1.30000000E+00  1.70000000E+00
  1.70000000E+00  1.70000000E+00  1.70000000E+00  1.30000000E+00  1.70000000E+00
  1.70000000E+00  1.30000000E+00  1.70000000E+00  1.70000000E+00  1.70000000E+00
  1.70000000E+00  1.70000000E+00  1.70000000E+00  1.70000000E+00  1.70000000E+00
  1.70000000E+00  1.70000000E+00  1.70000000E+00  1.70000000E+00  1.70000000E+00
  1.30000000E+00  1.70000000E+00  1.30000000E+00  1.30000000E+00  1.70000000E+00
  1.30000000E+00  1.70000000E+00  1.70000000E+00  1.30000000E+00  1.70000000E+00
  1.30000000E+00  1.70000000E+00  1.30000000E+00  1.70000000E+00  1.30000000E+00
  1.70000000E+00  1.30000000E+00  1.70000000E+00  1.30000000E+00  1.70000000E+00
  1.30000000E+00  1.70000000E+00  1.30000000E+00  1.70000000E+00  1.30000000E+00
  1.30000000E+00  1.70000000E+00  1.30000000E+00  1.30000000E+00  1.30000000E+00
  1.70000000E+00  1.30000000E+00  1.70000000E+00  1.30000000E+00  1.30000000E+00
  1.70000000E+00  1.30000000E+00  1.30000000E+00  1.70000000E+00  1.30000000E+00
  1.30000000E+00  1.50000000E+00  1.50000000E+00  1.50000000E+00  1.50000000E+00
  1.50000000E+00  1.50000000E+00  1.70000000E+00  1.70000000E+00  1.70000000E+00
  1.70000000E+00  1.70000000E+00  1.70000000E+00  1.30000000E+00  1.30000000E+00
  1.30000000E+00  1.30000000E+00  1.30000000E+00  1.30000000E+00  1.30000000E+00
  1.30000000E+00  1.30000000E+00  1.30000000E+00  1.30000000E+00  1.30000000E+00
  1.30000000E+00  1.30000000E+00  1.30000000E+00  1.30000000E+00  1.30000000E+00
  1.30000000E+00  1.50000000E+00  1.70000000E+00  1.70000000E+00  1.70000000E+00
  1.70000000E+00  1.30000000E+00  1.30000000E+00  1.30000000E+00  1.70000000E+00
  1.30000000E+00  1.70000000E+00  1.30000000E+00  1.70000000E+00  1.30000000E+00
  1.30000000E+00  1.55000000E+00  1.70000000E+00  1.70000000E+00  1.70000000E+00
  1.70000000E+00  1.70000000E+00  1.70000000E+00  1.70000000E+00  1.30000000E+00
  1.70000000E+00  1.30000000E+00  1.70000000E+00  1.30000000E+00  1.70000000E+00
  1.30000000E+00  1.70000000E+00  1.70000000E+00  1.30000000E+00  1.70000000E+00
  1.30000000E+00  1.30000000E+00  1.70000000E+00  1.70000000E+00  1.70000000E+00
  1.70000000E+00  1.50000000E+00  1.70000000E+00  1.70000000E+00  1.70000000E+00
  1.70000000E+00  1.70000000E+00  1.70000000E+00  1.70000000E+00  1.70000000E+00
  1.30000000E+00  1.70000000E+00  1.30000000E+00  1.70000000E+00  1.30000000E+00
  1.70000000E+00  1.30000000E+00  1.70000000E+00  1.70000000E+00  1.30000000E+00
  1.30000000E+00  1.30000000E+00  1.30000000E+00  1.55000000E+00  1.55000000E+00
  1.70000000E+00  1.30000000E+00  1.55000000E+00  1.70000000E+00  1.30000000E+00
  1.70000000E+00  1.70000000E+00  1.70000000E+00  1.70000000E+00  1.30000000E+00
  1.70000000E+00  1.70000000E+00  1.30000000E+00  1.70000000E+00  1.70000000E+00
  1.70000000E+00  1.70000000E+00  1.70000000E+00  1.70000000E+00  1.70000000E+00
  1.70000000E+00  1.70000000E+00  1.70000000E+00  1.70000000E+00  1.70000000E+00
  1.70000000E+00  1.30000000E+00  1.70000000E+00  1.30000000E+00  1.30000000E+00
  1.70000000E+00  1.30000000E+00  1.70000000E+00  1.70000000E+00  1.30000000E+00
  1.70000000E+00  1.30000000E+00  1.70000000E+00  1.30000000E+00  1.70000000E+00
  1.30000000E+00  1.70000000E+00  1.30000000E+00  1.70000000E+00  1.30000000E+00
  1.70000000E+00  1.30000000E+00  1.70000000E+00  1.30000000E+00  1.70000000E+00
  1.30000000E+00  1.30000000E+00  1.70000000E+00  1.30000000E+00  1.30000000E+00
  1.30000000E+00  1.70000000E+00  1.30000000E+00  1.70000000E+00  1.30000000E+00
  1.30000000E+00  1.70000000E+00  1.30000000E+00  1.30000000E+00  1.70000000E+00
  1.30000000E+00  1.30000000E+00  1.50000000E+00  1.50000000E+00  1.50000000E+00
  1.50000000E+00  1.50000000E+00  1.50000000E+00  1.70000000E+00  1.70000000E+00
  1.70000000E+00  1.70000000E+00  1.70000000E+00  1.70000000E+00  1.30000000E+00
  1.30000000E+00  1.30000000E+00  1.30000000E+00  1.30000000E+00  1.30000000E+00
  1.30000000E+00  1.30000000E+00  1.30000000E+00  1.30000000E+00  1.30000000E+00
  1.30000000E+00  1.30000000E+00  1.30000000E+00  1.30000000E+00  1.30000000E+00
  1.30000000E+00  1.30000000E+00  1.50000000E+00  1.70000000E+00  1.70000000E+00
  1.70000000E+00  1.70000000E+00  1.30000000E+00  1.30000000E+00  1.30000000E+00
  1.70000000E+00  1.30000000E+00  1.70000000E+00  1.30000000E+00  1.70000000E+00
  1.30000000E+00  1.30000000E+00  1.55000000E+00  1.70000000E+00  1.70000000E+00
  1.70000000E+00  1.70000000E+00  1.70000000E+00  1.70000000E+00  1.70000000E+00
  1.30000000E+00  1.70000000E+00  1.30000000E+00  1.70000000E+00  1.30000000E+00
  1.70000000E+00  1.30000000E+00  1.70000000E+00  1.70000000E+00  1.30000000E+00
  1.70000000E+00  1.30000000E+00  1.30000000E+00  1.70000000E+00  1.70000000E+00
  1.70000000E+00  1.70000000E+00  1.50000000E+00  1.70000000E+00  1.70000000E+00
  1.70000000E+00  1.70000000E+00  1.70000000E+00  1.70000000E+00  1.70000000E+00
  1.70000000E+00  1.30000000E+00  1.70000000E+00  1.30000000E+00  1.70000000E+00
  1.30000000E+00  1.70000000E+00  1.30000000E+00  1.70000000E+00  1.70000000E+00
  1.30000000E+00  1.30000000E+00  1.30000000E+00  1.30000000E+00  1.55000000E+00
  1.55000000E+00  1.70000000E+00  1.30000000E+00  1.55000000E+00  1.70000000E+00
  1.30000000E+00  1.70000000E+00  1.70000000E+00  1.70000000E+00  1.70000000E+00
  1.30000000E+00  1.70000000E+00  1.70000000E+00  1.30000000E+00  1.70000000E+00
  1.70000000E+00  1.70000000E+00  1.70000000E+00  1.70000000E+00  1.70000000E+00
  1.70000000E+00  1.70000000E+00  1.70000000E+00  1.70000000E+00  1.70000000E+00
  1.70000000E+00  1.70000000E+00  1.30000000E+00  1.70000000E+00  1.30000000E+00
  1.30000000E+00  1.70000000E+00  1.30000000E+00  1.70000000E+00  1.70000000E+00
  1.30000000E+00  1.70000000E+00  1.30000000E+00  1.70000000E+00  1.30000000E+00
  1.70000000E+00  1.30000000E+00  1.70000000E+00  1.30000000E+00  1.70000000E+00
  1.30000000E+00  1.70000000E+00  1.30000000E+00  1.70000000E+00  1.30000000E+00
  1.70000000E+00  1.30000000E+00  1.30000000E+00  1.70000000E+00  1.30000000E+00
  1.30000000E+00  1.30000000E+00  1.70000000E+00  1.30000000E+00  1.70000000E+00
  1.30000000E+00  1.30000000E+00  1.70000000E+00  1.30000000E+00  1.30000000E+00
  1.70000000E+00  1.30000000E+00  1.30000000E+00  1.50000000E+00  1.50000000E+00
  1.50000000E+00  1.50000000E+00  1.50000000E+00  1.50000000E+00  1.70000000E+00
  1.70000000E+00  1.70000000E+00  1.70000000E+00  1.70000000E+00  1.70000000E+00
  1.30000000E+00  1.30000000E+00  1.30000000E+00  1.30000000E+00  1.30000000E+00
  1.30000000E+00  1.30000000E+00  1.30000000E+00  1.30000000E+00  1.30000000E+00
  1.30000000E+00  1.30000000E+00  1.30000000E+00  1.30000000E+00  1.30000000E+00
  1.30000000E+00  1.30000000E+00  1.30000000E+00  1.50000000E+00  1.70000000E+00
  1.70000000E+00  1.70000000E+00  1.70000000E+00  1.30000000E+00  1.30000000E+00
  1.30000000E+00  1.70000000E+00  1.30000000E+00  1.70000000E+00  1.30000000E+00
  1.70000000E+00  1.30000000E+00  1.30000000E+00  1.55000000E+00  1.70000000E+00
  1.70000000E+00  1.70000000E+00  1.70000000E+00  1.70000000E+00  1.70000000E+00
  1.70000000E+00  1.30000000E+00  1.70000000E+00  1.30000000E+00  1.70000000E+00
  1.30000000E+00  1.70000000E+00  1.30000000E+00  1.70000000E+00  1.70000000E+00
  1.30000000E+00  1.70000000E+00  1.30000000E+00  1.30000000E+00  1.70000000E+00
  1.70000000E+00  1.70000000E+00  1.70000000E+00  1.50000000E+00  1.70000000E+00
  1.70000000E+00  1.70000000E+00  1.70000000E+00  1.70000000E+00  1.70000000E+00
  1.70000000E+00  1.70000000E+00  1.30000000E+00  1.70000000E+00  1.30000000E+00
  1.70000000E+00  1.30000000E+00  1.70000000E+00  1.30000000E+00  1.70000000E+00
  1.70000000E+00  1.30000000E+00  1.30000000E+00  1.30000000E+00  1.30000000E+00
  1.55000000E+00  1.55000000E+00  1.70000000E+00  1.30000000E+00  1.55000000E+00
  1.70000000E+00  1.30000000E+00  1.70000000E+00  1.70000000E+00  1.70000000E+00
  1.70000000E+00  1.30000000E+00  1.70000000E+00  1.70000000E+00  1.30000000E+00
  1.70000000E+00  1.70000000E+00  1.70000000E+00  1.70000000E+00  1.70000000E+00
  1.70000000E+00  1.70000000E+00  1.70000000E+00  1.70000000E+00  1.70000000E+00
  1.70000000E+00  1.70000000E+00  1.70000000E+00  1.30000000E+00  1.70000000E+00
  1.30000000E+00  1.30000000E+00  1.70000000E+00  1.30000000E+00  1.70000000E+00
  1.70000000E+00  1.30000000E+00  1.70000000E+00  1.30000000E+00  1.70000000E+00
  1.30000000E+00  1.70000000E+00  1.30000000E+00  1.70000000E+00  1.30000000E+00
  1.70000000E+00  1.30000000E+00  1.70000000E+00  1.30000000E+00  1.70000000E+00
  1.30000000E+00  1.70000000E+00  1.30000000E+00  1.30000000E+00  1.70000000E+00
  1.30000000E+00  1.30000000E+00  1.30000000E+00  1.70000000E+00  1.30000000E+00
  1.70000000E+00  1.30000000E+00  1.30000000E+00  1.70000000E+00  1.30000000E+00
  1.30000000E+00  1.70000000E+00  1.30000000E+00  1.30000000E+00  1.50000000E+00
  1.50000000E+00  1.50000000E+00  1.50000000E+00  1.50000000E+00  1.50000000E+00
  1.70000000E+00  1.70000000E+00  1.70000000E+00  1.70000000E+00  1.70000000E+00
  1.70000000E+00  1.30000000E+00  1.30000000E+00  1.30000000E+00  1.30000000E+00
  1.30000000E+00  1.30000000E+00  1.30000000E+00  1.30000000E+00  1.30000000E+00
  1.30000000E+00  1.30000000E+00  1.30000000E+00  1.30000000E+00  1.30000000E+00
  1.30000000E+00  1.30000000E+00  1.30000000E+00  1.30000000E+00  1.50000000E+00
  1.70000000E+00  1.70000000E+00  1.70000000E+00  1.70000000E+00  1.30000000E+00
  1.30000000E+00  1.30000000E+00  1.70000000E+00  1.30000000E+00  1.70000000E+00
  1.30000000E+00  1.70000000E+00  1.30000000E+00  1.30000000E+00  1.55000000E+00
  1.70000000E+00  1.70000000E+00  1.70000000E+00  1.70000000E+00  1.70000000E+00
  1.70000000E+00  1.70000000E+00  1.30000000E+00  1.70000000E+00  1.30000000E+00
  1.70000000E+00  1.30000000E+00  1.70000000E+00  1.30000000E+00  1.70000000E+00
  1.70000000E+00  1.30000000E+00  1.70000000E+00  1.30000000E+00  1.30000000E+00
  1.70000000E+00  1.70000000E+00  1.70000000E+00  1.70000000E+00  1.50000000E+00
  1.70000000E+00  1.70000000E+00  1.70000000E+00  1.70000000E+00  1.70000000E+00
  1.70000000E+00  1.70000000E+00  1.70000000E+00  1.30000000E+00  1.70000000E+00
  1.30000000E+00  1.70000000E+00  1.30000000E+00  1.70000000E+00  1.30000000E+00
  1.70000000E+00  1.70000000E+00  1.30000000E+00  1.30000000E+00  1.30000000E+00
  1.30000000E+00  1.55000000E+00  1.55000000E+00  1.70000000E+00  1.30000000E+00
  1.55000000E+00  1.70000000E+00  1.30000000E+00  1.70000000E+00  1.70000000E+00
  1.70000000E+00  1.70000000E+00  1.30000000E+00  1.70000000E+00  1.70000000E+00
  1.30000000E+00  1.70000000E+00  1.70000000E+00  1.70000000E+00  1.70000000E+00
  1.70000000E+00  1.70000000E+00  1.70000000E+00  1.70000000E+00  1.70000000E+00
  1.70000000E+00  1.70000000E+00  1.70000000E+00  1.70000000E+00  1.30000000E+00
  1.70000000E+00  1.30000000E+00  1.30000000E+00  1.70000000E+00  1.30000000E+00
  1.70000000E+00  1.70000000E+00  1.30000000E+00  1.70000000E+00  1.30000000E+00
  1.70000000E+00  1.30000000E+00  1.70000000E+00  1.30000000E+00  1.70000000E+00
  1.30000000E+00  1.70000000E+00  1.30000000E+00  1.70000000E+00  1.30000000E+00
  1.70000000E+00  1.30000000E+00  1.70000000E+00  1.30000000E+00  1.30000000E+00
  1.70000000E+00  1.30000000E+00  1.30000000E+00  1.30000000E+00  1.70000000E+00
  1.30000000E+00  1.70000000E+00  1.30000000E+00  1.30000000E+00  1.70000000E+00
  1.30000000E+00  1.30000000E+00  1.70000000E+00  1.30000000E+00  1.30000000E+00
  1.50000000E+00  1.50000000E+00  1.50000000E+00  1.50000000E+00  1.50000000E+00
  1.50000000E+00  1.70000000E+00  1.70000000E+00  1.70000000E+00  1.70000000E+00
  1.70000000E+00  1.70000000E+00  1.30000000E+00  1.30000000E+00  1.30000000E+00
  1.30000000E+00  1.30000000E+00  1.30000000E+00  1.30000000E+00  1.30000000E+00
  1.30000000E+00  1.30000000E+00  1.30000000E+00  1.30000000E+00  1.30000000E+00
  1.30000000E+00  1.30000000E+00  1.30000000E+00  1.30000000E+00  1.30000000E+00
  1.50000000E+00  1.70000000E+00  1.70000000E+00  1.70000000E+00  1.70000000E+00
  1.30000000E+00  1.30000000E+00  1.30000000E+00  1.70000000E+00  1.30000000E+00
  1.70000000E+00  1.30000000E+00  1.70000000E+00  1.30000000E+00  1.30000000E+00
  1.55000000E+00  1.70000000E+00  1.70000000E+00  1.70000000E+00  1.70000000E+00
  1.70000000E+00  1.70000000E+00  1.70000000E+00  1.30000000E+00  1.70000000E+00
  1.30000000E+00  1.70000000E+00  1.30000000E+00  1.70000000E+00  1.30000000E+00
  1.70000000E+00  1.70000000E+00  1.30000000E+00  1.70000000E+00  1.30000000E+00
  1.30000000E+00  1.70000000E+00  1.70000000E+00  1.70000000E+00  1.70000000E+00
  1.50000000E+00  1.70000000E+00  1.70000000E+00  1.70000000E+00  1.70000000E+00
  1.70000000E+00  1.70000000E+00  1.70000000E+00  1.70000000E+00  1.30000000E+00
  1.70000000E+00  1.30000000E+00  1.70000000E+00  1.30000000E+00  1.70000000E+00
  1.30000000E+00  1.70000000E+00  1.70000000E+00  1.30000000E+00  1.30000000E+00
  1.30000000E+00  1.30000000E+00  1.55000000E+00  1.55000000E+00  1.70000000E+00
  1.30000000E+00  1.55000000E+00  1.70000000E+00  1.30000000E+00  1.70000000E+00
  1.70000000E+00  1.70000000E+00  1.70000000E+00  1.30000000E+00  1.70000000E+00
  1.70000000E+00  1.30000000E+00  1.70000000E+00  1.70000000E+00  1.70000000E+00
  1.70000000E+00  1.70000000E+00  1.70000000E+00  1.70000000E+00  1.70000000E+00
  1.70000000E+00  1.70000000E+00  1.70000000E+00  1.70000000E+00  1.70000000E+00
  1.30000000E+00  1.70000000E+00  1.30000000E+00  1.30000000E+00  1.70000000E+00
  1.30000000E+00  1.70000000E+00  1.70000000E+00  1.30000000E+00  1.70000000E+00
  1.30000000E+00  1.70000000E+00  1.30000000E+00  1.70000000E+00  1.30000000E+00
  1.70000000E+00  1.30000000E+00  1.70000000E+00  1.30000000E+00  1.70000000E+00
  1.30000000E+00  1.70000000E+00  1.30000000E+00  1.70000000E+00  1.30000000E+00
  1.30000000E+00  1.70000000E+00  1.30000000E+00  1.30000000E+00  1.30000000E+00
  1.70000000E+00  1.30000000E+00  1.70000000E+00  1.30000000E+00  1.30000000E+00
  1.70000000E+00  1.30000000E+00  1.30000000E+00  1.70000000E+00  1.30000000E+00
  1.30000000E+00  1.50000000E+00  1.50000000E+00  1.50000000E+00  1.50000000E+00
  1.50000000E+00  1.50000000E+00  1.70000000E+00  1.70000000E+00  1.70000000E+00
  1.70000000E+00  1.70000000E+00  1.70000000E+00  1.30000000E+00  1.30000000E+00
  1.30000000E+00  1.30000000E+00  1.30000000E+00  1.30000000E+00  1.30000000E+00
  1.30000000E+00  1.30000000E+00  1.30000000E+00  1.30000000E+00  1.30000000E+00
  1.30000000E+00  1.30000000E+00  1.30000000E+00  1.30000000E+00  1.30000000E+00
  1.30000000E+00  1.50000000E+00  1.70000000E+00  1.70000000E+00  1.70000000E+00
  1.70000000E+00  1.30000000E+00  1.30000000E+00  1.30000000E+00  1.70000000E+00
  1.30000000E+00  1.70000000E+00  1.30000000E+00  1.70000000E+00  1.30000000E+00
  1.30000000E+00  1.55000000E+00  1.70000000E+00  1.70000000E+00  1.70000000E+00
  1.70000000E+00  1.70000000E+00  1.70000000E+00  1.70000000E+00  1.30000000E+00
  1.70000000E+00  1.30000000E+00  1.70000000E+00  1.30000000E+00  1.70000000E+00
  1.30000000E+00  1.70000000E+00  1.70000000E+00  1.30000000E+00  1.70000000E+00
  1.30000000E+00  1.30000000E+00  1.70000000E+00  1.70000000E+00  1.70000000E+00
  1.70000000E+00  1.50000000E+00  1.70000000E+00  1.70000000E+00  1.70000000E+00
  1.70000000E+00  1.70000000E+00  1.70000000E+00  1.70000000E+00  1.70000000E+00
  1.30000000E+00  1.70000000E+00  1.30000000E+00  1.70000000E+00  1.30000000E+00
  1.70000000E+00  1.30000000E+00  1.70000000E+00  1.70000000E+00  1.30000000E+00
  1.30000000E+00  1.30000000E+00  1.30000000E+00  1.55000000E+00  1.55000000E+00
  1.70000000E+00  1.30000000E+00  1.55000000E+00  1.70000000E+00  1.30000000E+00
  1.70000000E+00  1.70000000E+00  1.70000000E+00  1.70000000E+00  1.30000000E+00
  1.70000000E+00  1.70000000E+00  1.30000000E+00  1.70000000E+00  1.70000000E+00
  1.70000000E+00  1.70000000E+00  1.70000000E+00  1.70000000E+00  1.70000000E+00
  1.70000000E+00  1.70000000E+00  1.70000000E+00  1.70000000E+00  1.70000000E+00
  1.70000000E+00  1.30000000E+00  1.70000000E+00  1.30000000E+00  1.30000000E+00
  1.70000000E+00  1.30000000E+00  1.70000000E+00  1.70000000E+00  1.30000000E+00
  1.70000000E+00  1.30000000E+00  1.70000000E+00  1.30000000E+00  1.70000000E+00
  1.30000000E+00  1.70000000E+00  1.30000000E+00  1.70000000E+00  1.30000000E+00
  1.70000000E+00  1.30000000E+00  1.70000000E+00  1.30000000E+00  1.70000000E+00
  1.30000000E+00  1.30000000E+00  1.70000000E+00  1.30000000E+00  1.30000000E+00
  1.30000000E+00  1.70000000E+00  1.30000000E+00  1.70000000E+00  1.30000000E+00
  1.30000000E+00  1.70000000E+00  1.30000000E+00  1.30000000E+00  1.70000000E+00
  1.30000000E+00  1.30000000E+00  1.50000000E+00  1.50000000E+00  1.50000000E+00
  1.50000000E+00  1.50000000E+00  1.50000000E+00  1.70000000E+00  1.70000000E+00
  1.70000000E+00  1.70000000E+00  1.70000000E+00  1.70000000E+00  1.30000000E+00
  1.30000000E+00  1.30000000E+00  1.30000000E+00  1.30000000E+00  1.30000000E+00
  1.30000000E+00  1.30000000E+00  1.30000000E+00  1.30000000E+00  1.30000000E+00
  1.30000000E+00  1.30000000E+00  1.30000000E+00  1.30000000E+00  1.30000000E+00
  1.30000000E+00  1.30000000E+00  1.50000000E+00  1.70000000E+00  1.70000000E+00
  1.70000000E+00  1.70000000E+00  1.30000000E+00  1.30000000E+00  1.30000000E+00
  1.70000000E+00  1.30000000E+00  1.70000000E+00  1.30000000E+00  1.70000000E+00
  1.30000000E+00  1.30000000E+00  1.55000000E+00  1.70000000E+00  1.70000000E+00
  1.70000000E+00  1.70000000E+00  1.70000000E+00  1.70000000E+00  1.70000000E+00
  1.30000000E+00  1.70000000E+00  1.30000000E+00  1.70000000E+00  1.30000000E+00
  1.70000000E+00  1.30000000E+00  1.70000000E+00  1.70000000E+00  1.30000000E+00
  1.70000000E+00  1.30000000E+00  1.30000000E+00  1.70000000E+00  1.70000000E+00
  1.70000000E+00  1.70000000E+00  1.50000000E+00  1.70000000E+00  1.70000000E+00
  1.70000000E+00  1.70000000E+00  1.70000000E+00  1.70000000E+00  1.70000000E+00
  1.70000000E+00  1.30000000E+00  1.70000000E+00  1.30000000E+00  1.70000000E+00
  1.30000000E+00  1.70000000E+00  1.30000000E+00  1.70000000E+00  1.70000000E+00
  1.30000000E+00  1.30000000E+00  1.30000000E+00  1.30000000E+00  1.55000000E+00
  1.55000000E+00  1.70000000E+00  1.30000000E+00  1.55000000E+00  1.70000000E+00
  1.30000000E+00  1.70000000E+00  1.70000000E+00  1.70000000E+00  1.70000000E+00
  1.30000000E+00  1.70000000E+00  1.70000000E+00  1.30000000E+00  1.70000000E+00
  1.70000000E+00  1.70000000E+00  1.70000000E+00  1.70000000E+00  1.70000000E+00
  1.70000000E+00  1.70000000E+00  1.70000000E+00  1.70000000E+00  1.70000000E+00
  1.70000000E+00  1.70000000E+00  1.30000000E+00  1.70000000E+00  1.30000000E+00
  1.30000000E+00  1.70000000E+00  1.30000000E+00  1.70000000E+00  1.70000000E+00
  1.30000000E+00  1.70000000E+00  1.30000000E+00  1.70000000E+00  1.30000000E+00
  1.70000000E+00  1.30000000E+00  1.70000000E+00  1.30000000E+00  1.70000000E+00
  1.30000000E+00  1.70000000E+00  1.30000000E+00  1.70000000E+00  1.30000000E+00
  1.70000000E+00  1.30000000E+00  1.30000000E+00  1.70000000E+00  1.30000000E+00
  1.30000000E+00  1.30000000E+00  1.70000000E+00  1.30000000E+00  1.70000000E+00
  1.30000000E+00  1.30000000E+00  1.70000000E+00  1.30000000E+00  1.30000000E+00
  1.70000000E+00  1.30000000E+00  1.30000000E+00  1.50000000E+00  1.50000000E+00
  1.50000000E+00  1.50000000E+00  1.50000000E+00  1.50000000E+00  1.70000000E+00
  1.70000000E+00  1.70000000E+00  1.70000000E+00  1.70000000E+00  1.70000000E+00
  1.30000000E+00  1.30000000E+00  1.30000000E+00  1.30000000E+00  1.30000000E+00
  1.30000000E+00  1.30000000E+00  1.30000000E+00  1.30000000E+00  1.30000000E+00
  1.30000000E+00  1.30000000E+00  1.30000000E+00  1.30000000E+00  1.30000000E+00
  1.30000000E+00  1.30000000E+00  1.30000000E+00  1.50000000E+00  1.70000000E+00
  1.70000000E+00  1.70000000E+00  1.70000000E+00  1.30000000E+00  1.30000000E+00
  1.30000000E+00  1.70000000E+00  1.30000000E+00  1.70000000E+00  1.30000000E+00
  1.70000000E+00  1.30000000E+00  1.30000000E+00  1.55000000E+00  1.70000000E+00
  1.70000000E+00  1.70000000E+00  1.70000000E+00  1.70000000E+00  1.70000000E+00
  1.70000000E+00  1.30000000E+00  1.70000000E+00  1.30000000E+00  1.70000000E+00
  1.30000000E+00  1.70000000E+00  1.30000000E+00  1.70000000E+00  1.70000000E+00
  1.30000000E+00  1.70000000E+00  1.30000000E+00  1.30000000E+00  1.70000000E+00
  1.70000000E+00  1.70000000E+00  1.70000000E+00  1.50000000E+00  1.70000000E+00
  1.70000000E+00  1.70000000E+00  1.70000000E+00  1.70000000E+00  1.70000000E+00
  1.70000000E+00  1.70000000E+00  1.30000000E+00  1.70000000E+00  1.30000000E+00
  1.70000000E+00  1.30000000E+00  1.70000000E+00  1.30000000E+00  1.70000000E+00
  1.70000000E+00  1.30000000E+00  1.30000000E+00  1.30000000E+00  1.30000000E+00
  1.55000000E+00  1.55000000E+00  1.70000000E+00  1.30000000E+00  1.55000000E+00
  1.70000000E+00  1.30000000E+00  1.70000000E+00  1.70000000E+00  1.70000000E+00
  1.70000000E+00  1.30000000E+00  1.70000000E+00  1.70000000E+00  1.30000000E+00
  1.70000000E+00  1.70000000E+00  1.70000000E+00  1.70000000E+00  1.70000000E+00
  1.70000000E+00  1.70000000E+00  1.70000000E+00  1.70000000E+00  1.70000000E+00
  1.70000000E+00  1.70000000E+00  1.70000000E+00  1.30000000E+00  1.70000000E+00
  1.30000000E+00  1.30000000E+00  1.70000000E+00  1.30000000E+00  1.70000000E+00
  1.70000000E+00  1.30000000E+00  1.70000000E+00  1.30000000E+00  1.70000000E+00
  1.30000000E+00  1.70000000E+00  1.30000000E+00  1.70000000E+00  1.30000000E+00
  1.70000000E+00  1.30000000E+00  1.70000000E+00  1.30000000E+00  1.70000000E+00
  1.30000000E+00  1.70000000E+00  1.30000000E+00  1.30000000E+00  1.70000000E+00
  1.30000000E+00  1.30000000E+00  1.30000000E+00  1.70000000E+00  1.30000000E+00
  1.70000000E+00  1.30000000E+00  1.30000000E+00  1.70000000E+00  1.30000000E+00
  1.30000000E+00  1.70000000E+00  1.30000000E+00  1.30000000E+00  1.50000000E+00
  1.50000000E+00  1.50000000E+00  1.50000000E+00  1.50000000E+00  1.50000000E+00
  1.70000000E+00  1.70000000E+00  1.70000000E+00  1.70000000E+00  1.70000000E+00
  1.70000000E+00  1.30000000E+00  1.30000000E+00  1.30000000E+00  1.30000000E+00
  1.30000000E+00  1.30000000E+00  1.30000000E+00  1.30000000E+00  1.30000000E+00
  1.30000000E+00  1.30000000E+00  1.30000000E+00  1.30000000E+00  1.30000000E+00
  1.30000000E+00  1.30000000E+00  1.30000000E+00  1.30000000E+00  1.50000000E+00
  1.70000000E+00  1.70000000E+00  1.70000000E+00  1.70000000E+00  1.30000000E+00
  1.30000000E+00  1.30000000E+00  1.70000000E+00  1.30000000E+00  1.70000000E+00
  1.30000000E+00  1.70000000E+00  1.30000000E+00  1.30000000E+00  1.55000000E+00
  1.70000000E+00  1.70000000E+00  1.70000000E+00  1.70000000E+00  1.70000000E+00
  1.70000000E+00  1.70000000E+00  1.30000000E+00  1.70000000E+00  1.30000000E+00
  1.70000000E+00  1.30000000E+00  1.70000000E+00  1.30000000E+00  1.70000000E+00
  1.70000000E+00  1.30000000E+00  1.70000000E+00  1.30000000E+00  1.30000000E+00
  1.70000000E+00  1.70000000E+00  1.70000000E+00  1.70000000E+00  1.50000000E+00
  1.70000000E+00  1.70000000E+00  1.70000000E+00  1.70000000E+00  1.70000000E+00
  1.70000000E+00  1.70000000E+00  1.70000000E+00  1.30000000E+00  1.70000000E+00
  1.30000000E+00  1.70000000E+00  1.30000000E+00  1.70000000E+00  1.30000000E+00
  1.70000000E+00  1.70000000E+00  1.30000000E+00  1.30000000E+00  1.30000000E+00
  1.30000000E+00  1.55000000E+00  1.55000000E+00  1.70000000E+00  1.30000000E+00
  1.55000000E+00  1.70000000E+00  1.30000000E+00  1.70000000E+00  1.70000000E+00
  1.70000000E+00  1.70000000E+00  1.30000000E+00  1.70000000E+00  1.70000000E+00
  1.30000000E+00  1.70000000E+00  1.70000000E+00  1.70000000E+00  1.70000000E+00
  1.70000000E+00  1.70000000E+00  1.70000000E+00  1.70000000E+00  1.70000000E+00
  1.70000000E+00  1.70000000E+00  1.70000000E+00  1.70000000E+00  1.30000000E+00
  1.70000000E+00  1.30000000E+00  1.30000000E+00  1.70000000E+00  1.30000000E+00
  1.70000000E+00  1.70000000E+00  1.30000000E+00  1.70000000E+00  1.30000000E+00
  1.70000000E+00  1.30000000E+00  1.70000000E+00  1.30000000E+00  1.70000000E+00
  1.30000000E+00  1.70000000E+00  1.30000000E+00  1.70000000E+00  1.30000000E+00
  1.70000000E+00  1.30000000E+00  1.70000000E+00  1.30000000E+00  1.30000000E+00
  1.70000000E+00  1.30000000E+00  1.30000000E+00  1.30000000E+00  1.70000000E+00
  1.30000000E+00  1.70000000E+00  1.30000000E+00  1.30000000E+00  1.70000000E+00
  1.30000000E+00  1.30000000E+00  1.70000000E+00  1.30000000E+00  1.30000000E+00
  1.50000000E+00  1.50000000E+00  1.50000000E+00  1.50000000E+00  1.50000000E+00
  1.50000000E+00  1.70000000E+00  1.70000000E+00  1.70000000E+00  1.70000000E+00
  1.70000000E+00  1.70000000E+00  1.30000000E+00  1.30000000E+00  1.30000000E+00
  1.30000000E+00  1.30000000E+00  1.30000000E+00  1.30000000E+00  1.30000000E+00
  1.30000000E+00  1.30000000E+00  1.30000000E+00  1.30000000E+00  1.30000000E+00
  1.30000000E+00  1.30000000E+00  1.30000000E+00  1.30000000E+00  1.30000000E+00
  1.50000000E+00  1.70000000E+00  1.70000000E+00  1.70000000E+00  1.70000000E+00
  1.30000000E+00  1.30000000E+00  1.30000000E+00  1.70000000E+00  1.30000000E+00
  1.70000000E+00  1.30000000E+00  1.70000000E+00  1.30000000E+00  1.30000000E+00
  1.55000000E+00  1.70000000E+00  1.70000000E+00  1.70000000E+00  1.70000000E+00
  1.70000000E+00  1.70000000E+00  1.70000000E+00  1.30000000E+00  1.70000000E+00
  1.30000000E+00  1.70000000E+00  1.30000000E+00  1.70000000E+00  1.30000000E+00
  1.70000000E+00  1.70000000E+00  1.30000000E+00  1.70000000E+00  1.30000000E+00
  1.30000000E+00  1.70000000E+00  1.70000000E+00  1.70000000E+00  1.70000000E+00
  1.50000000E+00  1.70000000E+00  1.70000000E+00  1.70000000E+00  1.70000000E+00
  1.70000000E+00  1.70000000E+00  1.70000000E+00  1.70000000E+00  1.30000000E+00
  1.70000000E+00  1.30000000E+00  1.70000000E+00  1.30000000E+00  1.70000000E+00
  1.30000000E+00  1.70000000E+00  1.70000000E+00  1.30000000E+00  1.30000000E+00
  1.30000000E+00  1.30000000E+00  1.55000000E+00  1.55000000E+00  1.70000000E+00
  1.30000000E+00  1.55000000E+00  1.70000000E+00  1.30000000E+00  1.70000000E+00
  1.70000000E+00  1.70000000E+00  1.70000000E+00  1.30000000E+00  1.70000000E+00
  1.70000000E+00  1.30000000E+00  1.70000000E+00  1.70000000E+00  1.70000000E+00
  1.70000000E+00  1.70000000E+00  1.70000000E+00  1.70000000E+00  1.70000000E+00
  1.70000000E+00  1.70000000E+00  1.70000000E+00  1.70000000E+00  1.70000000E+00
  1.30000000E+00  1.70000000E+00  1.30000000E+00  1.30000000E+00  1.70000000E+00
  1.30000000E+00  1.70000000E+00  1.70000000E+00  1.30000000E+00  1.70000000E+00
  1.30000000E+00  1.70000000E+00  1.30000000E+00  1.70000000E+00  1.30000000E+00
  1.70000000E+00  1.30000000E+00  1.70000000E+00  1.30000000E+00  1.70000000E+00
  1.30000000E+00  1.70000000E+00  1.30000000E+00  1.70000000E+00  1.30000000E+00
  1.30000000E+00  1.70000000E+00  1.30000000E+00  1.30000000E+00  1.30000000E+00
  1.70000000E+00  1.30000000E+00  1.70000000E+00  1.30000000E+00  1.30000000E+00
  1.70000000E+00  1.30000000E+00  1.30000000E+00  1.70000000E+00  1.30000000E+00
  1.30000000E+00  1.50000000E+00  1.50000000E+00  1.50000000E+00  1.50000000E+00
  1.50000000E+00  1.50000000E+00  1.70000000E+00  1.70000000E+00  1.70000000E+00
  1.70000000E+00  1.70000000E+00  1.70000000E+00  1.30000000E+00  1.30000000E+00
  1.30000000E+00  1.30000000E+00  1.30000000E+00  1.30000000E+00  1.30000000E+00
  1.30000000E+00  1.30000000E+00  1.30000000E+00  1.30000000E+00  1.30000000E+00
  1.30000000E+00  1.30000000E+00  1.30000000E+00  1.30000000E+00  1.30000000E+00
  1.30000000E+00  1.50000000E+00  1.70000000E+00  1.70000000E+00  1.70000000E+00
  1.70000000E+00  1.30000000E+00  1.30000000E+00  1.30000000E+00  1.70000000E+00
  1.30000000E+00  1.70000000E+00  1.30000000E+00  1.70000000E+00  1.30000000E+00
  1.30000000E+00  1.55000000E+00  1.70000000E+00  1.70000000E+00  1.70000000E+00
  1.70000000E+00  1.70000000E+00  1.70000000E+00  1.70000000E+00  1.30000000E+00
  1.70000000E+00  1.30000000E+00  1.70000000E+00  1.30000000E+00  1.70000000E+00
  1.30000000E+00  1.70000000E+00  1.70000000E+00  1.30000000E+00  1.70000000E+00
  1.30000000E+00  1.30000000E+00  1.70000000E+00  1.70000000E+00  1.70000000E+00
  1.70000000E+00  1.50000000E+00  1.70000000E+00  1.70000000E+00  1.70000000E+00
  1.70000000E+00  1.70000000E+00  1.70000000E+00  1.70000000E+00  1.70000000E+00
  1.30000000E+00  1.70000000E+00  1.30000000E+00  1.70000000E+00  1.30000000E+00
  1.70000000E+00  1.30000000E+00  1.70000000E+00  1.70000000E+00  1.30000000E+00
  1.30000000E+00  1.30000000E+00  1.30000000E+00  1.55000000E+00  1.55000000E+00
  1.70000000E+00  1.30000000E+00  1.55000000E+00  1.70000000E+00  1.30000000E+00
  1.70000000E+00  1.70000000E+00  1.70000000E+00  1.70000000E+00  1.30000000E+00
  1.70000000E+00  1.70000000E+00  1.30000000E+00  1.70000000E+00  1.70000000E+00
  1.70000000E+00  1.70000000E+00  1.70000000E+00  1.70000000E+00  1.70000000E+00
  1.70000000E+00  1.70000000E+00  1.70000000E+00  1.70000000E+00  1.70000000E+00
  1.70000000E+00  1.30000000E+00  1.70000000E+00  1.30000000E+00  1.30000000E+00
  1.70000000E+00  1.30000000E+00  1.70000000E+00  1.70000000E+00  1.30000000E+00
  1.70000000E+00  1.30000000E+00  1.70000000E+00  1.30000000E+00  1.70000000E+00
  1.30000000E+00  1.70000000E+00  1.30000000E+00  1.70000000E+00  1.30000000E+00
  1.70000000E+00  1.30000000E+00  1.70000000E+00  1.30000000E+00  1.70000000E+00
  1.30000000E+00  1.30000000E+00  1.70000000E+00  1.30000000E+00  1.30000000E+00
  1.30000000E+00  1.70000000E+00  1.30000000E+00  1.70000000E+00  1.30000000E+00
  1.30000000E+00  1.70000000E+00  1.30000000E+00  1.30000000E+00  1.70000000E+00
  1.30000000E+00  1.30000000E+00  1.50000000E+00  1.50000000E+00  1.50000000E+00
  1.50000000E+00  1.50000000E+00  1.50000000E+00  1.70000000E+00  1.70000000E+00
  1.70000000E+00  1.70000000E+00  1.70000000E+00  1.70000000E+00  1.30000000E+00
  1.30000000E+00  1.30000000E+00  1.30000000E+00  1.30000000E+00  1.30000000E+00
  1.30000000E+00  1.30000000E+00  1.30000000E+00  1.30000000E+00  1.30000000E+00
  1.30000000E+00  1.30000000E+00  1.30000000E+00  1.30000000E+00  1.30000000E+00
  1.30000000E+00  1.30000000E+00  1.50000000E+00  1.70000000E+00  1.70000000E+00
  1.70000000E+00  1.70000000E+00  1.30000000E+00  1.30000000E+00  1.30000000E+00
  1.70000000E+00  1.30000000E+00  1.70000000E+00  1.30000000E+00  1.70000000E+00
  1.30000000E+00  1.30000000E+00  1.55000000E+00  1.70000000E+00  1.70000000E+00
  1.70000000E+00  1.70000000E+00  1.70000000E+00  1.70000000E+00  1.70000000E+00
  1.30000000E+00  1.70000000E+00  1.30000000E+00  1.70000000E+00  1.30000000E+00
  1.70000000E+00  1.30000000E+00  1.70000000E+00  1.70000000E+00  1.30000000E+00
  1.70000000E+00  1.30000000E+00  1.30000000E+00  1.70000000E+00  1.70000000E+00
  1.70000000E+00  1.70000000E+00  1.50000000E+00  1.70000000E+00  1.70000000E+00
  1.70000000E+00  1.70000000E+00  1.70000000E+00  1.70000000E+00  1.70000000E+00
  1.70000000E+00  1.30000000E+00  1.70000000E+00  1.30000000E+00  1.70000000E+00
  1.30000000E+00  1.70000000E+00  1.30000000E+00  1.70000000E+00  1.70000000E+00
  1.30000000E+00  1.30000000E+00  1.30000000E+00  1.30000000E+00  1.55000000E+00
  1.55000000E+00  1.70000000E+00  1.30000000E+00  1.55000000E+00  1.70000000E+00
  1.30000000E+00  1.70000000E+00  1.70000000E+00  1.70000000E+00  1.70000000E+00
  1.30000000E+00  1.70000000E+00  1.70000000E+00  1.30000000E+00  1.70000000E+00
  1.70000000E+00  1.70000000E+00  1.70000000E+00  1.70000000E+00  1.70000000E+00
  1.70000000E+00  1.70000000E+00  1.70000000E+00  1.70000000E+00  1.70000000E+00
  1.70000000E+00  1.70000000E+00  1.30000000E+00  1.70000000E+00  1.30000000E+00
  1.30000000E+00  1.70000000E+00  1.30000000E+00  1.70000000E+00  1.70000000E+00
  1.30000000E+00  1.70000000E+00  1.30000000E+00  1.70000000E+00  1.30000000E+00
  1.70000000E+00  1.30000000E+00  1.70000000E+00  1.30000000E+00  1.70000000E+00
  1.30000000E+00  1.70000000E+00  1.30000000E+00  1.70000000E+00  1.30000000E+00
  1.70000000E+00  1.30000000E+00  1.30000000E+00  1.70000000E+00  1.30000000E+00
  1.30000000E+00  1.30000000E+00  1.70000000E+00  1.30000000E+00  1.70000000E+00
  1.30000000E+00  1.30000000E+00  1.70000000E+00  1.30000000E+00  1.30000000E+00
  1.70000000E+00  1.30000000E+00  1.30000000E+00  1.50000000E+00  1.50000000E+00
  1.50000000E+00  1.50000000E+00  1.50000000E+00  1.50000000E+00  1.70000000E+00
  1.70000000E+00  1.70000000E+00  1.70000000E+00  1.70000000E+00  1.70000000E+00
  1.30000000E+00  1.30000000E+00  1.30000000E+00  1.30000000E+00  1.30000000E+00
  1.30000000E+00  1.30000000E+00  1.30000000E+00  1.30000000E+00  1.30000000E+00
  1.30000000E+00  1.30000000E+00  1.30000000E+00  1.30000000E+00  1.30000000E+00
  1.30000000E+00  1.30000000E+00  1.30000000E+00  1.50000000E+00  1.70000000E+00
  1.70000000E+00  1.70000000E+00  1.70000000E+00  1.30000000E+00  1.30000000E+00
  1.30000000E+00  1.70000000E+00  1.30000000E+00  1.70000000E+00  1.30000000E+00
  1.70000000E+00  1.30000000E+00  1.30000000E+00  1.55000000E+00  1.70000000E+00
  1.70000000E+00  1.70000000E+00  1.70000000E+00  1.70000000E+00  1.70000000E+00
  1.70000000E+00  1.30000000E+00  1.70000000E+00  1.30000000E+00  1.70000000E+00
  1.30000000E+00  1.70000000E+00  1.30000000E+00  1.70000000E+00  1.70000000E+00
  1.30000000E+00  1.70000000E+00  1.30000000E+00  1.30000000E+00  1.70000000E+00
  1.70000000E+00  1.70000000E+00  1.70000000E+00  1.50000000E+00  1.70000000E+00
  1.70000000E+00  1.70000000E+00  1.70000000E+00  1.70000000E+00  1.70000000E+00
  1.70000000E+00  1.70000000E+00  1.30000000E+00  1.70000000E+00  1.30000000E+00
  1.70000000E+00  1.30000000E+00  1.70000000E+00  1.30000000E+00  1.70000000E+00
  1.70000000E+00  1.30000000E+00  1.30000000E+00  1.30000000E+00  1.30000000E+00
  1.55000000E+00  1.55000000E+00  1.70000000E+00  1.30000000E+00  1.55000000E+00
  1.70000000E+00  1.30000000E+00  1.70000000E+00  1.70000000E+00  1.70000000E+00
  1.70000000E+00  1.30000000E+00  1.70000000E+00  1.70000000E+00  1.30000000E+00
  1.70000000E+00  1.70000000E+00  1.70000000E+00  1.70000000E+00  1.70000000E+00
  1.70000000E+00  1.70000000E+00  1.70000000E+00  1.70000000E+00  1.70000000E+00
  1.70000000E+00  1.70000000E+00  1.70000000E+00  1.30000000E+00  1.70000000E+00
  1.30000000E+00  1.30000000E+00  1.70000000E+00  1.30000000E+00  1.70000000E+00
  1.70000000E+00  1.30000000E+00  1.70000000E+00  1.30000000E+00  1.70000000E+00
  1.30000000E+00  1.70000000E+00  1.30000000E+00  1.70000000E+00  1.30000000E+00
  1.70000000E+00  1.30000000E+00  1.70000000E+00  1.30000000E+00  1.70000000E+00
  1.30000000E+00  1.70000000E+00  1.30000000E+00  1.30000000E+00  1.70000000E+00
  1.30000000E+00  1.30000000E+00  1.30000000E+00  1.70000000E+00  1.30000000E+00
  1.70000000E+00  1.30000000E+00  1.30000000E+00  1.70000000E+00  1.30000000E+00
  1.30000000E+00  1.70000000E+00  1.30000000E+00  1.30000000E+00  1.50000000E+00
  1.50000000E+00  1.50000000E+00  1.50000000E+00  1.50000000E+00  1.50000000E+00
  1.70000000E+00  1.70000000E+00  1.70000000E+00  1.70000000E+00  1.70000000E+00
  1.70000000E+00  1.30000000E+00  1.30000000E+00  1.30000000E+00  1.30000000E+00
  1.30000000E+00  1.30000000E+00  1.30000000E+00  1.30000000E+00  1.30000000E+00
  1.30000000E+00  1.30000000E+00  1.30000000E+00  1.30000000E+00  1.30000000E+00
  1.30000000E+00  1.30000000E+00  1.30000000E+00  1.30000000E+00  1.50000000E+00
  1.70000000E+00  1.70000000E+00  1.70000000E+00  1.70000000E+00  1.30000000E+00
  1.30000000E+00  1.30000000E+00  1.70000000E+00  1.30000000E+00  1.70000000E+00
  1.30000000E+00  1.70000000E+00  1.30000000E+00  1.30000000E+00  1.55000000E+00
  1.70000000E+00  1.70000000E+00  1.70000000E+00  1.70000000E+00  1.70000000E+00
  1.70000000E+00  1.70000000E+00  1.30000000E+00  1.70000000E+00  1.30000000E+00
  1.70000000E+00  1.30000000E+00  1.70000000E+00  1.30000000E+00  1.70000000E+00
  1.70000000E+00  1.30000000E+00  1.70000000E+00  1.30000000E+00  1.30000000E+00
  1.70000000E+00  1.70000000E+00  1.70000000E+00  1.70000000E+00  1.50000000E+00
  1.70000000E+00  1.70000000E+00  1.70000000E+00  1.70000000E+00  1.70000000E+00
  1.70000000E+00  1.70000000E+00  1.70000000E+00  1.30000000E+00  1.70000000E+00
  1.30000000E+00  1.70000000E+00  1.30000000E+00  1.70000000E+00  1.30000000E+00
  1.70000000E+00  1.70000000E+00  1.30000000E+00  1.30000000E+00  1.30000000E+00
  1.30000000E+00  1.55000000E+00  1.55000000E+00  1.70000000E+00  1.30000000E+00
  1.55000000E+00  1.70000000E+00  1.30000000E+00  1.70000000E+00  1.70000000E+00
  1.70000000E+00  1.70000000E+00  1.30000000E+00  1.70000000E+00  1.70000000E+00
  1.30000000E+00  1.70000000E+00  1.70000000E+00  1.70000000E+00  1.70000000E+00
  1.70000000E+00  1.70000000E+00  1.70000000E+00  1.70000000E+00  1.70000000E+00
  1.70000000E+00  1.70000000E+00  1.70000000E+00  1.70000000E+00  1.30000000E+00
  1.70000000E+00  1.30000000E+00  1.30000000E+00  1.70000000E+00  1.30000000E+00
  1.70000000E+00  1.70000000E+00  1.30000000E+00  1.70000000E+00  1.30000000E+00
  1.70000000E+00  1.30000000E+00  1.70000000E+00  1.30000000E+00  1.70000000E+00
  1.30000000E+00  1.70000000E+00  1.30000000E+00  1.70000000E+00  1.30000000E+00
  1.70000000E+00  1.30000000E+00  1.70000000E+00  1.30000000E+00  1.30000000E+00
  1.70000000E+00  1.30000000E+00  1.30000000E+00  1.30000000E+00  1.70000000E+00
  1.30000000E+00  1.70000000E+00  1.30000000E+00  1.30000000E+00  1.70000000E+00
  1.30000000E+00  1.30000000E+00  1.70000000E+00  1.30000000E+00  1.30000000E+00
  1.50000000E+00  1.50000000E+00  1.50000000E+00  1.50000000E+00  1.50000000E+00
  1.50000000E+00  1.70000000E+00  1.70000000E+00  1.70000000E+00  1.70000000E+00
  1.70000000E+00  1.70000000E+00  1.30000000E+00  1.30000000E+00  1.30000000E+00
  1.30000000E+00  1.30000000E+00  1.30000000E+00  1.30000000E+00  1.30000000E+00
  1.30000000E+00  1.30000000E+00  1.30000000E+00  1.30000000E+00  1.30000000E+00
  1.30000000E+00  1.30000000E+00  1.30000000E+00  1.30000000E+00  1.30000000E+00
  1.50000000E+00  1.70000000E+00  1.70000000E+00  1.70000000E+00  1.70000000E+00
  1.30000000E+00  1.30000000E+00  1.30000000E+00  1.70000000E+00  1.30000000E+00
  1.70000000E+00  1.30000000E+00  1.70000000E+00  1.30000000E+00  1.30000000E+00
  1.55000000E+00  1.70000000E+00  1.70000000E+00  1.70000000E+00  1.70000000E+00
  1.70000000E+00  1.70000000E+00  1.70000000E+00  1.30000000E+00  1.70000000E+00
  1.30000000E+00  1.70000000E+00  1.30000000E+00  1.70000000E+00  1.30000000E+00
  1.70000000E+00  1.70000000E+00  1.30000000E+00  1.70000000E+00  1.30000000E+00
  1.30000000E+00  1.70000000E+00  1.70000000E+00  1.70000000E+00  1.70000000E+00
  1.50000000E+00  1.70000000E+00  1.70000000E+00  1.70000000E+00  1.70000000E+00
  1.70000000E+00  1.70000000E+00  1.70000000E+00  1.70000000E+00  1.30000000E+00
  1.70000000E+00  1.30000000E+00  1.70000000E+00  1.30000000E+00  1.70000000E+00
  1.30000000E+00  1.70000000E+00  1.70000000E+00  1.30000000E+00  1.30000000E+00
  1.30000000E+00  1.30000000E+00  1.55000000E+00  1.55000000E+00  1.70000000E+00
  1.30000000E+00  1.55000000E+00  1.70000000E+00  1.30000000E+00  1.70000000E+00
  1.70000000E+00  1.70000000E+00  1.70000000E+00  1.30000000E+00  1.70000000E+00
  1.70000000E+00  1.30000000E+00  1.70000000E+00  1.70000000E+00  1.70000000E+00
  1.70000000E+00  1.70000000E+00  1.70000000E+00  1.70000000E+00  1.70000000E+00
  1.70000000E+00  1.70000000E+00  1.70000000E+00  1.70000000E+00  1.70000000E+00
  1.30000000E+00  1.70000000E+00  1.30000000E+00  1.30000000E+00  1.70000000E+00
  1.30000000E+00  1.70000000E+00  1.70000000E+00  1.30000000E+00  1.70000000E+00
  1.30000000E+00  1.70000000E+00  1.30000000E+00  1.70000000E+00  1.30000000E+00
  1.70000000E+00  1.30000000E+00  1.70000000E+00  1.30000000E+00  1.70000000E+00
  1.30000000E+00  1.70000000E+00  1.30000000E+00  1.70000000E+00  1.30000000E+00
  1.30000000E+00  1.70000000E+00  1.30000000E+00  1.30000000E+00  1.30000000E+00
  1.70000000E+00  1.30000000E+00  1.70000000E+00  1.30000000E+00  1.30000000E+00
  1.70000000E+00  1.30000000E+00  1.30000000E+00  1.70000000E+00  1.30000000E+00
  1.30000000E+00  1.50000000E+00  1.50000000E+00  1.50000000E+00  1.50000000E+00
  1.50000000E+00  1.50000000E+00  1.70000000E+00  1.70000000E+00  1.70000000E+00
  1.70000000E+00  1.70000000E+00  1.70000000E+00  1.30000000E+00  1.30000000E+00
  1.30000000E+00  1.30000000E+00  1.30000000E+00  1.30000000E+00  1.30000000E+00
  1.30000000E+00  1.30000000E+00  1.30000000E+00  1.30000000E+00  1.30000000E+00
  1.30000000E+00  1.30000000E+00  1.30000000E+00  1.30000000E+00  1.30000000E+00
  1.30000000E+00  1.50000000E+00  1.70000000E+00  1.70000000E+00  1.70000000E+00
  1.70000000E+00  1.30000000E+00  1.30000000E+00  1.30000000E+00  1.70000000E+00
  1.30000000E+00  1.70000000E+00  1.30000000E+00  1.70000000E+00  1.30000000E+00
  1.30000000E+00  1.55000000E+00  1.70000000E+00  1.70000000E+00  1.70000000E+00
  1.70000000E+00  1.70000000E+00  1.70000000E+00  1.70000000E+00  1.30000000E+00
  1.70000000E+00  1.30000000E+00  1.70000000E+00  1.30000000E+00  1.70000000E+00
  1.30000000E+00  1.70000000E+00  1.70000000E+00  1.30000000E+00  1.70000000E+00
  1.30000000E+00  1.30000000E+00  1.70000000E+00  1.70000000E+00  1.70000000E+00
  1.70000000E+00  1.50000000E+00  1.70000000E+00  1.70000000E+00  1.70000000E+00
  1.70000000E+00  1.70000000E+00  1.70000000E+00  1.70000000E+00  1.70000000E+00
  1.30000000E+00  1.70000000E+00  1.30000000E+00  1.70000000E+00  1.30000000E+00
  1.70000000E+00  1.30000000E+00  1.70000000E+00  1.70000000E+00  1.30000000E+00
  1.30000000E+00  1.30000000E+00  1.30000000E+00  1.55000000E+00  1.55000000E+00
  1.70000000E+00  1.30000000E+00  1.55000000E+00  1.70000000E+00  1.30000000E+00
  1.70000000E+00  1.70000000E+00  1.70000000E+00  1.70000000E+00  1.30000000E+00
  1.70000000E+00  1.70000000E+00  1.30000000E+00  1.70000000E+00  1.70000000E+00
  1.70000000E+00  1.70000000E+00  1.70000000E+00  1.70000000E+00  1.70000000E+00
  1.70000000E+00  1.70000000E+00  1.70000000E+00  1.70000000E+00  1.70000000E+00
  1.70000000E+00  1.30000000E+00  1.70000000E+00  1.30000000E+00  1.30000000E+00
  1.70000000E+00  1.30000000E+00  1.70000000E+00  1.70000000E+00  1.30000000E+00
  1.70000000E+00  1.30000000E+00  1.70000000E+00  1.30000000E+00  1.70000000E+00
  1.30000000E+00  1.70000000E+00  1.30000000E+00  1.70000000E+00  1.30000000E+00
  1.70000000E+00  1.30000000E+00  1.70000000E+00  1.30000000E+00  1.70000000E+00
  1.30000000E+00  1.30000000E+00  1.70000000E+00  1.30000000E+00  1.30000000E+00
  1.30000000E+00  1.70000000E+00  1.30000000E+00  1.70000000E+00  1.30000000E+00
  1.30000000E+00  1.70000000E+00  1.30000000E+00  1.30000000E+00  1.70000000E+00
  1.30000000E+00  1.30000000E+00  1.50000000E+00  1.50000000E+00  1.50000000E+00
  1.50000000E+00  1.50000000E+00  1.50000000E+00  1.70000000E+00  1.70000000E+00
  1.70000000E+00  1.70000000E+00  1.70000000E+00  1.70000000E+00  1.30000000E+00
  1.30000000E+00  1.30000000E+00  1.30000000E+00  1.30000000E+00  1.30000000E+00
  1.30000000E+00  1.30000000E+00  1.30000000E+00  1.30000000E+00  1.30000000E+00
  1.30000000E+00  1.30000000E+00  1.30000000E+00  1.30000000E+00  1.30000000E+00
  1.30000000E+00  1.30000000E+00  1.50000000E+00  1.70000000E+00  1.70000000E+00
  1.70000000E+00  1.70000000E+00  1.30000000E+00  1.30000000E+00  1.30000000E+00
  1.70000000E+00  1.30000000E+00  1.70000000E+00  1.30000000E+00  1.70000000E+00
  1.30000000E+00  1.30000000E+00  1.55000000E+00  1.70000000E+00  1.70000000E+00
  1.70000000E+00  1.70000000E+00  1.70000000E+00  1.70000000E+00  1.70000000E+00
  1.30000000E+00  1.70000000E+00  1.30000000E+00  1.70000000E+00  1.30000000E+00
  1.70000000E+00  1.30000000E+00  1.70000000E+00  1.70000000E+00  1.30000000E+00
  1.70000000E+00  1.30000000E+00  1.30000000E+00  1.70000000E+00  1.70000000E+00
  1.70000000E+00  1.70000000E+00  1.50000000E+00  1.70000000E+00  1.70000000E+00
  1.70000000E+00  1.70000000E+00  1.70000000E+00  1.70000000E+00  1.70000000E+00
  1.70000000E+00  1.30000000E+00  1.70000000E+00  1.30000000E+00  1.70000000E+00
  1.30000000E+00  1.70000000E+00  1.30000000E+00  1.70000000E+00  1.70000000E+00
  1.30000000E+00  1.30000000E+00  1.30000000E+00  1.30000000E+00  1.55000000E+00
  1.55000000E+00  1.70000000E+00  1.30000000E+00  1.55000000E+00  1.70000000E+00
  1.30000000E+00  1.70000000E+00  1.70000000E+00  1.70000000E+00  1.70000000E+00
  1.30000000E+00  1.70000000E+00  1.70000000E+00  1.30000000E+00  1.70000000E+00
  1.70000000E+00  1.70000000E+00  1.70000000E+00  1.70000000E+00  1.70000000E+00
  1.70000000E+00  1.70000000E+00  1.70000000E+00  1.70000000E+00  1.70000000E+00
  1.70000000E+00  1.70000000E+00  1.30000000E+00  1.70000000E+00  1.30000000E+00
  1.30000000E+00  1.70000000E+00  1.30000000E+00  1.70000000E+00  1.70000000E+00
  1.30000000E+00  1.70000000E+00  1.30000000E+00  1.70000000E+00  1.30000000E+00
  1.70000000E+00  1.30000000E+00  1.70000000E+00  1.30000000E+00  1.70000000E+00
  1.30000000E+00  1.70000000E+00  1.30000000E+00  1.70000000E+00  1.30000000E+00
  1.70000000E+00  1.30000000E+00  1.30000000E+00  1.70000000E+00  1.30000000E+00
  1.30000000E+00  1.30000000E+00  1.70000000E+00  1.30000000E+00  1.70000000E+00
  1.30000000E+00  1.30000000E+00  1.70000000E+00  1.30000000E+00  1.30000000E+00
  1.70000000E+00  1.30000000E+00  1.30000000E+00  1.50000000E+00  1.50000000E+00
  1.50000000E+00  1.50000000E+00  1.50000000E+00  1.50000000E+00  1.70000000E+00
  1.70000000E+00  1.70000000E+00  1.70000000E+00  1.70000000E+00  1.70000000E+00
  1.30000000E+00  1.30000000E+00  1.30000000E+00  1.30000000E+00  1.30000000E+00
  1.30000000E+00  1.30000000E+00  1.30000000E+00  1.30000000E+00  1.30000000E+00
  1.30000000E+00  1.30000000E+00  1.30000000E+00  1.30000000E+00  1.30000000E+00
  1.30000000E+00  1.30000000E+00  1.30000000E+00  1.50000000E+00  1.70000000E+00
  1.70000000E+00  1.70000000E+00  1.70000000E+00  1.30000000E+00  1.30000000E+00
  1.30000000E+00  1.70000000E+00  1.30000000E+00  1.70000000E+00  1.30000000E+00
  1.70000000E+00  1.30000000E+00  1.30000000E+00  1.55000000E+00  1.70000000E+00
  1.70000000E+00  1.70000000E+00  1.70000000E+00  1.70000000E+00  1.70000000E+00
  1.70000000E+00  1.30000000E+00  1.70000000E+00  1.30000000E+00  1.70000000E+00
  1.30000000E+00  1.70000000E+00  1.30000000E+00  1.70000000E+00  1.70000000E+00
  1.30000000E+00  1.70000000E+00  1.30000000E+00  1.30000000E+00  1.70000000E+00
  1.70000000E+00  1.70000000E+00  1.70000000E+00  1.50000000E+00  1.70000000E+00
  1.70000000E+00  1.70000000E+00  1.70000000E+00  1.70000000E+00  1.70000000E+00
  1.70000000E+00  1.70000000E+00  1.30000000E+00  1.70000000E+00  1.30000000E+00
  1.70000000E+00  1.30000000E+00  1.70000000E+00  1.30000000E+00  1.70000000E+00
  1.70000000E+00  1.30000000E+00  1.30000000E+00  1.30000000E+00  1.30000000E+00
  1.55000000E+00  1.55000000E+00  1.70000000E+00  1.30000000E+00  1.55000000E+00
  1.70000000E+00  1.30000000E+00  1.70000000E+00  1.70000000E+00  1.70000000E+00
  1.70000000E+00  1.30000000E+00  1.70000000E+00  1.70000000E+00  1.30000000E+00
  1.70000000E+00  1.70000000E+00  1.70000000E+00  1.70000000E+00  1.70000000E+00
  1.70000000E+00  1.70000000E+00  1.70000000E+00  1.70000000E+00  1.70000000E+00
  1.70000000E+00  1.70000000E+00  1.70000000E+00  1.30000000E+00  1.70000000E+00
  1.30000000E+00  1.30000000E+00  1.70000000E+00  1.30000000E+00  1.70000000E+00
  1.70000000E+00  1.30000000E+00  1.70000000E+00  1.30000000E+00  1.70000000E+00
  1.30000000E+00  1.70000000E+00  1.30000000E+00  1.70000000E+00  1.30000000E+00
  1.70000000E+00  1.30000000E+00  1.70000000E+00  1.30000000E+00  1.70000000E+00
  1.30000000E+00  1.70000000E+00  1.30000000E+00  1.30000000E+00  1.70000000E+00
  1.30000000E+00  1.30000000E+00  1.30000000E+00  1.70000000E+00  1.30000000E+00
  1.70000000E+00  1.30000000E+00  1.30000000E+00  1.70000000E+00  1.30000000E+00
  1.30000000E+00  1.70000000E+00  1.30000000E+00  1.30000000E+00  1.50000000E+00
  1.50000000E+00  1.50000000E+00  1.50000000E+00  1.50000000E+00  1.50000000E+00
  1.70000000E+00  1.70000000E+00  1.70000000E+00  1.70000000E+00  1.70000000E+00
  1.70000000E+00  1.30000000E+00  1.30000000E+00  1.30000000E+00  1.30000000E+00
  1.30000000E+00  1.30000000E+00  1.30000000E+00  1.30000000E+00  1.30000000E+00
  1.30000000E+00  1.30000000E+00  1.30000000E+00  1.30000000E+00  1.30000000E+00
  1.30000000E+00  1.30000000E+00  1.30000000E+00  1.30000000E+00  1.50000000E+00
  1.70000000E+00  1.70000000E+00  1.70000000E+00  1.70000000E+00  1.30000000E+00
  1.30000000E+00  1.30000000E+00  1.70000000E+00  1.30000000E+00  1.70000000E+00
  1.30000000E+00  1.70000000E+00  1.30000000E+00  1.30000000E+00  1.55000000E+00
  1.70000000E+00  1.70000000E+00  1.70000000E+00  1.70000000E+00  1.70000000E+00
  1.70000000E+00  1.70000000E+00  1.30000000E+00  1.70000000E+00  1.30000000E+00
  1.70000000E+00  1.30000000E+00  1.70000000E+00  1.30000000E+00  1.70000000E+00
  1.70000000E+00  1.30000000E+00  1.70000000E+00  1.30000000E+00  1.30000000E+00
  1.70000000E+00  1.70000000E+00  1.70000000E+00  1.70000000E+00  1.50000000E+00
  1.70000000E+00  1.70000000E+00  1.70000000E+00  1.70000000E+00  1.70000000E+00
  1.70000000E+00  1.70000000E+00  1.70000000E+00  1.30000000E+00  1.70000000E+00
  1.30000000E+00  1.70000000E+00  1.30000000E+00  1.70000000E+00  1.30000000E+00
  1.70000000E+00  1.70000000E+00  1.30000000E+00  1.30000000E+00  1.30000000E+00
  1.30000000E+00  1.55000000E+00  1.55000000E+00  1.70000000E+00  1.30000000E+00
  1.55000000E+00  1.70000000E+00  1.30000000E+00  1.70000000E+00  1.70000000E+00
  1.70000000E+00  1.70000000E+00  1.30000000E+00  1.70000000E+00  1.70000000E+00
  1.30000000E+00  1.70000000E+00  1.70000000E+00  1.70000000E+00  1.70000000E+00
  1.70000000E+00  1.70000000E+00  1.70000000E+00  1.70000000E+00  1.70000000E+00
  1.70000000E+00  1.70000000E+00  1.70000000E+00  1.70000000E+00  1.30000000E+00
  1.70000000E+00  1.30000000E+00  1.30000000E+00  1.70000000E+00  1.30000000E+00
  1.70000000E+00  1.70000000E+00  1.30000000E+00  1.70000000E+00  1.30000000E+00
  1.70000000E+00  1.30000000E+00  1.70000000E+00  1.30000000E+00  1.70000000E+00
  1.30000000E+00  1.70000000E+00  1.30000000E+00  1.70000000E+00  1.30000000E+00
  1.70000000E+00  1.30000000E+00  1.70000000E+00  1.30000000E+00  1.30000000E+00
  1.70000000E+00  1.30000000E+00  1.30000000E+00  1.30000000E+00  1.70000000E+00
  1.30000000E+00  1.70000000E+00  1.30000000E+00  1.30000000E+00  1.70000000E+00
  1.30000000E+00  1.30000000E+00  1.70000000E+00  1.30000000E+00  1.30000000E+00
  1.50000000E+00  1.50000000E+00  1.50000000E+00  1.50000000E+00  1.50000000E+00
  1.50000000E+00  1.70000000E+00  1.70000000E+00  1.70000000E+00  1.70000000E+00
  1.70000000E+00  1.70000000E+00  1.30000000E+00  1.30000000E+00  1.30000000E+00
  1.30000000E+00  1.30000000E+00  1.30000000E+00  1.30000000E+00  1.30000000E+00
  1.30000000E+00  1.30000000E+00  1.30000000E+00  1.30000000E+00  1.30000000E+00
  1.30000000E+00  1.30000000E+00  1.30000000E+00  1.30000000E+00  1.30000000E+00
  1.50000000E+00  1.70000000E+00  1.70000000E+00  1.70000000E+00  1.70000000E+00
  1.30000000E+00  1.30000000E+00  1.30000000E+00  1.70000000E+00  1.30000000E+00
  1.70000000E+00  1.30000000E+00  1.70000000E+00  1.30000000E+00  1.30000000E+00
  1.55000000E+00  1.70000000E+00  1.70000000E+00  1.70000000E+00  1.70000000E+00
  1.70000000E+00  1.70000000E+00  1.70000000E+00  1.30000000E+00  1.70000000E+00
  1.30000000E+00  1.70000000E+00  1.30000000E+00  1.70000000E+00  1.30000000E+00
  1.70000000E+00  1.70000000E+00  1.30000000E+00  1.70000000E+00  1.30000000E+00
  1.30000000E+00  1.70000000E+00  1.70000000E+00  1.70000000E+00  1.70000000E+00
  1.50000000E+00  1.70000000E+00  1.70000000E+00  1.70000000E+00  1.70000000E+00
  1.70000000E+00  1.70000000E+00  1.70000000E+00  1.70000000E+00  1.30000000E+00
  1.70000000E+00  1.30000000E+00  1.70000000E+00  1.30000000E+00  1.70000000E+00
  1.30000000E+00  1.70000000E+00  1.70000000E+00  1.30000000E+00  1.30000000E+00
  1.30000000E+00  1.30000000E+00  1.55000000E+00  1.55000000E+00  1.70000000E+00
  1.30000000E+00  1.55000000E+00  1.70000000E+00  1.30000000E+00  1.70000000E+00
  1.70000000E+00  1.70000000E+00  1.70000000E+00  1.30000000E+00  1.70000000E+00
  1.70000000E+00  1.30000000E+00  1.70000000E+00  1.70000000E+00  1.70000000E+00
  1.70000000E+00  1.70000000E+00  1.70000000E+00  1.70000000E+00  1.70000000E+00
  1.70000000E+00  1.70000000E+00  1.70000000E+00  1.70000000E+00  1.70000000E+00
  1.30000000E+00  1.70000000E+00  1.30000000E+00  1.30000000E+00  1.70000000E+00
  1.30000000E+00  1.70000000E+00  1.70000000E+00  1.30000000E+00  1.70000000E+00
  1.30000000E+00  1.70000000E+00  1.30000000E+00  1.70000000E+00  1.30000000E+00
  1.70000000E+00  1.30000000E+00  1.70000000E+00  1.30000000E+00  1.70000000E+00
  1.30000000E+00  1.70000000E+00  1.30000000E+00  1.70000000E+00  1.30000000E+00
  1.30000000E+00  1.70000000E+00  1.30000000E+00  1.30000000E+00  1.30000000E+00
  1.70000000E+00  1.30000000E+00  1.70000000E+00  1.30000000E+00  1.30000000E+00
  1.70000000E+00  1.30000000E+00  1.30000000E+00  1.70000000E+00  1.30000000E+00
  1.30000000E+00  1.50000000E+00  1.50000000E+00  1.50000000E+00  1.50000000E+00
  1.50000000E+00  1.50000000E+00  1.70000000E+00  1.70000000E+00  1.70000000E+00
  1.70000000E+00  1.70000000E+00  1.70000000E+00  1.30000000E+00  1.30000000E+00
  1.30000000E+00  1.30000000E+00  1.30000000E+00  1.30000000E+00  1.30000000E+00
  1.30000000E+00  1.30000000E+00  1.30000000E+00  1.30000000E+00  1.30000000E+00
  1.30000000E+00  1.30000000E+00  1.30000000E+00  1.30000000E+00  1.30000000E+00
  1.30000000E+00  1.50000000E+00  1.70000000E+00  1.70000000E+00  1.70000000E+00
  1.70000000E+00  1.30000000E+00  1.30000000E+00  1.30000000E+00  1.70000000E+00
  1.30000000E+00  1.70000000E+00  1.30000000E+00  1.70000000E+00  1.30000000E+00
  1.30000000E+00  1.55000000E+00  1.70000000E+00  1.70000000E+00  1.70000000E+00
  1.70000000E+00  1.70000000E+00  1.70000000E+00  1.70000000E+00  1.30000000E+00
  1.70000000E+00  1.30000000E+00  1.70000000E+00  1.30000000E+00  1.70000000E+00
  1.30000000E+00  1.70000000E+00  1.70000000E+00  1.30000000E+00  1.70000000E+00
  1.30000000E+00  1.30000000E+00  1.70000000E+00  1.70000000E+00  1.70000000E+00
  1.70000000E+00  1.50000000E+00  1.70000000E+00  1.70000000E+00  1.70000000E+00
  1.70000000E+00  1.70000000E+00  1.70000000E+00  1.70000000E+00  1.70000000E+00
  1.30000000E+00  1.70000000E+00  1.30000000E+00  1.70000000E+00  1.30000000E+00
  1.70000000E+00  1.30000000E+00  1.70000000E+00  1.70000000E+00  1.30000000E+00
  1.30000000E+00  1.30000000E+00  1.30000000E+00  1.55000000E+00  1.55000000E+00
  1.70000000E+00  1.30000000E+00  1.55000000E+00  1.70000000E+00  1.30000000E+00
  1.70000000E+00  1.70000000E+00  1.70000000E+00  1.70000000E+00  1.30000000E+00
  1.70000000E+00  1.70000000E+00  1.30000000E+00  1.70000000E+00  1.70000000E+00
  1.70000000E+00  1.70000000E+00  1.70000000E+00  1.70000000E+00  1.70000000E+00
  1.70000000E+00  1.70000000E+00  1.70000000E+00  1.70000000E+00  1.70000000E+00
  1.70000000E+00  1.30000000E+00  1.70000000E+00  1.30000000E+00  1.30000000E+00
  1.70000000E+00  1.30000000E+00  1.70000000E+00  1.70000000E+00  1.30000000E+00
  1.70000000E+00  1.30000000E+00  1.70000000E+00  1.30000000E+00  1.70000000E+00
  1.30000000E+00  1.70000000E+00  1.30000000E+00  1.70000000E+00  1.30000000E+00
  1.70000000E+00  1.30000000E+00  1.70000000E+00  1.30000000E+00  1.70000000E+00
  1.30000000E+00  1.30000000E+00  1.70000000E+00  1.30000000E+00  1.30000000E+00
  1.30000000E+00  1.70000000E+00  1.30000000E+00  1.70000000E+00  1.30000000E+00
  1.30000000E+00  1.70000000E+00  1.30000000E+00  1.30000000E+00  1.70000000E+00
  1.30000000E+00  1.30000000E+00  1.50000000E+00  1.50000000E+00  1.50000000E+00
  1.50000000E+00  1.50000000E+00  1.50000000E+00  1.70000000E+00  1.70000000E+00
  1.70000000E+00  1.70000000E+00  1.70000000E+00  1.70000000E+00  1.30000000E+00
  1.30000000E+00  1.30000000E+00  1.30000000E+00  1.30000000E+00  1.30000000E+00
  1.30000000E+00  1.30000000E+00  1.30000000E+00  1.30000000E+00  1.30000000E+00
  1.30000000E+00  1.30000000E+00  1.30000000E+00  1.30000000E+00  1.30000000E+00
  1.30000000E+00  1.30000000E+00  1.50000000E+00  1.70000000E+00  1.70000000E+00
  1.70000000E+00  1.70000000E+00  1.30000000E+00  1.30000000E+00  1.30000000E+00
  1.70000000E+00  1.30000000E+00  1.70000000E+00  1.30000000E+00  1.70000000E+00
  1.30000000E+00  1.30000000E+00  1.55000000E+00  1.70000000E+00  1.70000000E+00
  1.70000000E+00  1.70000000E+00  1.70000000E+00  1.70000000E+00  1.70000000E+00
  1.30000000E+00  1.70000000E+00  1.30000000E+00  1.70000000E+00  1.30000000E+00
  1.70000000E+00  1.30000000E+00  1.70000000E+00  1.70000000E+00  1.30000000E+00
  1.70000000E+00  1.30000000E+00  1.30000000E+00  1.70000000E+00  1.70000000E+00
  1.70000000E+00  1.70000000E+00  1.50000000E+00  1.70000000E+00  1.70000000E+00
  1.70000000E+00  1.70000000E+00  1.70000000E+00  1.70000000E+00  1.70000000E+00
  1.70000000E+00  1.30000000E+00  1.70000000E+00  1.30000000E+00  1.70000000E+00
  1.30000000E+00  1.70000000E+00  1.30000000E+00  1.70000000E+00  1.70000000E+00
  1.30000000E+00  1.30000000E+00  1.30000000E+00  1.30000000E+00  1.55000000E+00
  1.55000000E+00  1.70000000E+00  1.30000000E+00  1.55000000E+00  1.70000000E+00
  1.30000000E+00  1.70000000E+00  1.70000000E+00  1.70000000E+00  1.70000000E+00
  1.30000000E+00  1.70000000E+00  1.70000000E+00  1.30000000E+00  1.70000000E+00
  1.70000000E+00  1.70000000E+00  1.70000000E+00  1.70000000E+00  1.70000000E+00
  1.70000000E+00  1.70000000E+00  1.70000000E+00  1.70000000E+00  1.70000000E+00
  1.70000000E+00  1.70000000E+00  1.30000000E+00  1.70000000E+00  1.30000000E+00
  1.30000000E+00  1.70000000E+00  1.30000000E+00  1.70000000E+00  1.70000000E+00
  1.30000000E+00  1.70000000E+00  1.30000000E+00  1.70000000E+00  1.30000000E+00
  1.70000000E+00  1.30000000E+00  1.70000000E+00  1.30000000E+00  1.70000000E+00
  1.30000000E+00  1.70000000E+00  1.30000000E+00  1.70000000E+00  1.30000000E+00
  1.70000000E+00  1.30000000E+00  1.30000000E+00  1.70000000E+00  1.30000000E+00
  1.30000000E+00  1.30000000E+00  1.70000000E+00  1.30000000E+00  1.70000000E+00
  1.30000000E+00  1.30000000E+00  1.70000000E+00  1.30000000E+00  1.30000000E+00
  1.70000000E+00  1.30000000E+00  1.30000000E+00  1.50000000E+00  1.50000000E+00
  1.50000000E+00  1.50000000E+00  1.50000000E+00  1.50000000E+00  1.70000000E+00
  1.70000000E+00  1.70000000E+00  1.70000000E+00  1.70000000E+00  1.70000000E+00
  1.30000000E+00  1.30000000E+00  1.30000000E+00  1.30000000E+00  1.30000000E+00
  1.30000000E+00  1.30000000E+00  1.30000000E+00  1.30000000E+00  1.30000000E+00
  1.30000000E+00  1.30000000E+00  1.30000000E+00  1.30000000E+00  1.30000000E+00
  1.30000000E+00  1.30000000E+00  1.30000000E+00  1.50000000E+00  1.70000000E+00
  1.70000000E+00  1.70000000E+00  1.70000000E+00  1.30000000E+00  1.30000000E+00
  1.30000000E+00  1.70000000E+00  1.30000000E+00  1.70000000E+00  1.30000000E+00
  1.70000000E+00  1.30000000E+00  1.30000000E+00  1.55000000E+00  1.70000000E+00
  1.70000000E+00  1.70000000E+00  1.70000000E+00  1.70000000E+00  1.70000000E+00
  1.70000000E+00  1.30000000E+00  1.70000000E+00  1.30000000E+00  1.70000000E+00
  1.30000000E+00  1.70000000E+00  1.30000000E+00  1.70000000E+00  1.70000000E+00
  1.30000000E+00  1.70000000E+00  1.30000000E+00  1.30000000E+00  1.70000000E+00
  1.70000000E+00  1.70000000E+00  1.70000000E+00  1.50000000E+00  1.70000000E+00
  1.70000000E+00  1.70000000E+00  1.70000000E+00  1.70000000E+00  1.70000000E+00
  1.70000000E+00  1.70000000E+00  1.30000000E+00  1.70000000E+00  1.30000000E+00
  1.70000000E+00  1.30000000E+00  1.70000000E+00  1.30000000E+00  1.70000000E+00
  1.70000000E+00  1.30000000E+00  1.30000000E+00  1.30000000E+00  1.30000000E+00
  1.55000000E+00  1.55000000E+00  1.70000000E+00  1.30000000E+00  1.55000000E+00
  1.70000000E+00  1.30000000E+00  1.70000000E+00  1.70000000E+00  1.70000000E+00
  1.70000000E+00  1.30000000E+00  1.70000000E+00  1.70000000E+00  1.30000000E+00
  1.70000000E+00  1.70000000E+00  1.70000000E+00  1.70000000E+00  1.70000000E+00
  1.70000000E+00  1.70000000E+00  1.70000000E+00  1.70000000E+00  1.70000000E+00
  1.70000000E+00  1.70000000E+00  1.70000000E+00  1.30000000E+00  1.70000000E+00
  1.30000000E+00  1.30000000E+00  1.70000000E+00  1.30000000E+00  1.70000000E+00
  1.70000000E+00  1.30000000E+00  1.70000000E+00  1.30000000E+00  1.70000000E+00
  1.30000000E+00  1.70000000E+00  1.30000000E+00  1.70000000E+00  1.30000000E+00
  1.70000000E+00  1.30000000E+00  1.70000000E+00  1.30000000E+00  1.70000000E+00
  1.30000000E+00  1.70000000E+00  1.30000000E+00  1.30000000E+00  1.70000000E+00
  1.30000000E+00  1.30000000E+00  1.30000000E+00  1.70000000E+00  1.30000000E+00
  1.70000000E+00  1.30000000E+00  1.30000000E+00  1.70000000E+00  1.30000000E+00
  1.30000000E+00  1.70000000E+00  1.30000000E+00  1.30000000E+00  1.50000000E+00
  1.50000000E+00  1.50000000E+00  1.50000000E+00  1.50000000E+00  1.50000000E+00
  1.70000000E+00  1.70000000E+00  1.70000000E+00  1.70000000E+00  1.70000000E+00
  1.70000000E+00  1.30000000E+00  1.30000000E+00  1.30000000E+00  1.30000000E+00
  1.30000000E+00  1.30000000E+00  1.30000000E+00  1.30000000E+00  1.30000000E+00
  1.30000000E+00  1.30000000E+00  1.30000000E+00  1.30000000E+00  1.30000000E+00
  1.30000000E+00  1.30000000E+00  1.30000000E+00  1.30000000E+00  1.50000000E+00
  1.70000000E+00  1.70000000E+00  1.70000000E+00  1.70000000E+00  1.30000000E+00
  1.30000000E+00  1.30000000E+00  1.70000000E+00  1.30000000E+00  1.70000000E+00
  1.30000000E+00  1.70000000E+00  1.30000000E+00  1.30000000E+00  1.55000000E+00
  1.70000000E+00  1.70000000E+00  1.70000000E+00  1.70000000E+00  1.70000000E+00
  1.70000000E+00  1.70000000E+00  1.30000000E+00  1.70000000E+00  1.30000000E+00
  1.70000000E+00  1.30000000E+00  1.70000000E+00  1.30000000E+00  1.70000000E+00
  1.70000000E+00  1.30000000E+00  1.70000000E+00  1.30000000E+00  1.30000000E+00
  1.70000000E+00  1.70000000E+00  1.70000000E+00  1.70000000E+00  1.50000000E+00
  1.70000000E+00  1.70000000E+00  1.70000000E+00  1.70000000E+00  1.70000000E+00
  1.70000000E+00  1.70000000E+00  1.70000000E+00  1.30000000E+00  1.70000000E+00
  1.30000000E+00  1.70000000E+00  1.30000000E+00  1.70000000E+00  1.30000000E+00
  1.70000000E+00  1.70000000E+00  1.30000000E+00  1.30000000E+00  1.30000000E+00
  1.30000000E+00  1.55000000E+00  1.55000000E+00  1.70000000E+00  1.30000000E+00
  1.55000000E+00  1.70000000E+00  1.30000000E+00  1.70000000E+00  1.70000000E+00
  1.70000000E+00  1.70000000E+00  1.30000000E+00  1.70000000E+00  1.70000000E+00
  1.30000000E+00  1.70000000E+00  1.70000000E+00  1.70000000E+00  1.70000000E+00
  1.70000000E+00  1.70000000E+00  1.70000000E+00  1.70000000E+00  1.70000000E+00
  1.70000000E+00  1.70000000E+00  1.70000000E+00  1.70000000E+00  1.30000000E+00
  1.70000000E+00  1.30000000E+00  1.30000000E+00  1.70000000E+00  1.30000000E+00
  1.70000000E+00  1.70000000E+00  1.30000000E+00  1.70000000E+00  1.30000000E+00
  1.70000000E+00  1.30000000E+00  1.70000000E+00  1.30000000E+00  1.70000000E+00
  1.30000000E+00  1.70000000E+00  1.30000000E+00  1.70000000E+00  1.30000000E+00
  1.70000000E+00  1.30000000E+00  1.70000000E+00  1.30000000E+00  1.30000000E+00
  1.70000000E+00  1.30000000E+00  1.30000000E+00  1.30000000E+00  1.70000000E+00
  1.30000000E+00  1.70000000E+00  1.30000000E+00  1.30000000E+00  1.70000000E+00
  1.30000000E+00  1.30000000E+00  1.70000000E+00  1.30000000E+00  1.30000000E+00
  1.50000000E+00  1.50000000E+00  1.50000000E+00  1.50000000E+00  1.50000000E+00
  1.50000000E+00  1.70000000E+00  1.70000000E+00  1.70000000E+00  1.70000000E+00
  1.70000000E+00  1.70000000E+00  1.30000000E+00  1.30000000E+00  1.30000000E+00
  1.30000000E+00  1.30000000E+00  1.30000000E+00  1.30000000E+00  1.30000000E+00
  1.30000000E+00  1.30000000E+00  1.30000000E+00  1.30000000E+00  1.30000000E+00
  1.30000000E+00  1.30000000E+00  1.30000000E+00  1.30000000E+00  1.30000000E+00
  1.50000000E+00  1.70000000E+00  1.70000000E+00  1.70000000E+00  1.70000000E+00
  1.30000000E+00  1.30000000E+00  1.30000000E+00  1.70000000E+00  1.30000000E+00
  1.70000000E+00  1.30000000E+00  1.70000000E+00  1.30000000E+00  1.30000000E+00
  1.55000000E+00  1.70000000E+00  1.70000000E+00  1.70000000E+00  1.70000000E+00
  1.70000000E+00  1.70000000E+00  1.70000000E+00  1.30000000E+00  1.70000000E+00
  1.30000000E+00  1.70000000E+00  1.30000000E+00  1.70000000E+00  1.30000000E+00
  1.70000000E+00  1.70000000E+00  1.30000000E+00  1.70000000E+00  1.30000000E+00
  1.30000000E+00  1.70000000E+00  1.70000000E+00  1.70000000E+00  1.70000000E+00
  1.50000000E+00  1.70000000E+00  1.70000000E+00  1.70000000E+00  1.70000000E+00
  1.70000000E+00  1.70000000E+00  1.70000000E+00  1.70000000E+00  1.30000000E+00
  1.70000000E+00  1.30000000E+00  1.70000000E+00  1.30000000E+00  1.70000000E+00
  1.30000000E+00  1.70000000E+00  1.70000000E+00  1.30000000E+00  1.30000000E+00
  1.30000000E+00  1.30000000E+00  1.55000000E+00  1.55000000E+00  1.70000000E+00
  1.30000000E+00  1.55000000E+00  1.70000000E+00  1.30000000E+00  1.70000000E+00
  1.70000000E+00  1.70000000E+00  1.70000000E+00  1.30000000E+00  1.70000000E+00
  1.70000000E+00  1.30000000E+00  1.70000000E+00  1.70000000E+00  1.70000000E+00
  1.70000000E+00  1.70000000E+00  1.70000000E+00  1.70000000E+00  1.70000000E+00
  1.70000000E+00  1.70000000E+00  1.70000000E+00  1.70000000E+00  1.70000000E+00
  1.30000000E+00  1.70000000E+00  1.30000000E+00  1.30000000E+00  1.70000000E+00
  1.30000000E+00  1.70000000E+00  1.70000000E+00  1.30000000E+00  1.70000000E+00
  1.30000000E+00  1.70000000E+00  1.30000000E+00  1.70000000E+00  1.30000000E+00
  1.70000000E+00  1.30000000E+00  1.70000000E+00  1.30000000E+00  1.70000000E+00
  1.30000000E+00  1.70000000E+00  1.30000000E+00  1.70000000E+00  1.30000000E+00
  1.30000000E+00  1.70000000E+00  1.30000000E+00  1.30000000E+00  1.30000000E+00
  1.70000000E+00  1.30000000E+00  1.70000000E+00  1.30000000E+00  1.30000000E+00
  1.70000000E+00  1.30000000E+00  1.30000000E+00  1.70000000E+00  1.30000000E+00
  1.30000000E+00  1.50000000E+00  1.50000000E+00  1.50000000E+00  1.50000000E+00
  1.50000000E+00  1.50000000E+00  1.70000000E+00  1.70000000E+00  1.70000000E+00
  1.70000000E+00  1.70000000E+00  1.70000000E+00  1.30000000E+00  1.30000000E+00
  1.30000000E+00  1.30000000E+00  1.30000000E+00  1.30000000E+00  1.30000000E+00
  1.30000000E+00  1.30000000E+00  1.30000000E+00  1.30000000E+00  1.30000000E+00
  1.30000000E+00  1.30000000E+00  1.30000000E+00  1.30000000E+00  1.30000000E+00
  1.30000000E+00  1.50000000E+00  1.70000000E+00  1.70000000E+00  1.70000000E+00
  1.70000000E+00  1.30000000E+00  1.30000000E+00  1.30000000E+00  1.70000000E+00
  1.30000000E+00  1.70000000E+00  1.30000000E+00  1.70000000E+00  1.30000000E+00
  1.30000000E+00  1.55000000E+00  1.70000000E+00  1.70000000E+00  1.70000000E+00
  1.70000000E+00  1.70000000E+00  1.70000000E+00  1.70000000E+00  1.30000000E+00
  1.70000000E+00  1.30000000E+00  1.70000000E+00  1.30000000E+00  1.70000000E+00
  1.30000000E+00  1.70000000E+00  1.70000000E+00  1.30000000E+00  1.70000000E+00
  1.30000000E+00  1.30000000E+00  1.70000000E+00  1.70000000E+00  1.70000000E+00
  1.70000000E+00  1.50000000E+00  1.70000000E+00  1.70000000E+00  1.70000000E+00
  1.70000000E+00  1.70000000E+00  1.70000000E+00  1.70000000E+00  1.70000000E+00
  1.30000000E+00  1.70000000E+00  1.30000000E+00  1.70000000E+00  1.30000000E+00
  1.70000000E+00  1.30000000E+00  1.70000000E+00  1.70000000E+00  1.30000000E+00
  1.30000000E+00  1.30000000E+00  1.30000000E+00  1.55000000E+00  1.55000000E+00
  1.70000000E+00  1.30000000E+00  1.55000000E+00  1.70000000E+00  1.30000000E+00
  1.70000000E+00  1.70000000E+00  1.70000000E+00  1.70000000E+00  1.30000000E+00
  1.70000000E+00  1.70000000E+00  1.30000000E+00  1.70000000E+00  1.70000000E+00
  1.70000000E+00  1.70000000E+00  1.70000000E+00  1.70000000E+00  1.70000000E+00
  1.70000000E+00  1.70000000E+00  1.70000000E+00  1.70000000E+00  1.70000000E+00
  1.70000000E+00  1.30000000E+00  1.70000000E+00  1.30000000E+00  1.30000000E+00
  1.70000000E+00  1.30000000E+00  1.70000000E+00  1.70000000E+00  1.30000000E+00
  1.70000000E+00  1.30000000E+00  1.70000000E+00  1.30000000E+00  1.70000000E+00
  1.30000000E+00  1.70000000E+00  1.30000000E+00  1.70000000E+00  1.30000000E+00
  1.70000000E+00  1.30000000E+00  1.70000000E+00  1.30000000E+00  1.70000000E+00
  1.30000000E+00  1.30000000E+00  1.70000000E+00  1.30000000E+00  1.30000000E+00
  1.30000000E+00  1.70000000E+00  1.30000000E+00  1.70000000E+00  1.30000000E+00
  1.30000000E+00  1.70000000E+00  1.30000000E+00  1.30000000E+00  1.70000000E+00
  1.30000000E+00  1.30000000E+00  1.50000000E+00  1.50000000E+00  1.50000000E+00
  1.50000000E+00  1.50000000E+00  1.50000000E+00  1.70000000E+00  1.70000000E+00
  1.70000000E+00  1.70000000E+00  1.70000000E+00  1.70000000E+00  1.30000000E+00
  1.30000000E+00  1.30000000E+00  1.30000000E+00  1.30000000E+00  1.30000000E+00
  1.30000000E+00  1.30000000E+00  1.30000000E+00  1.30000000E+00  1.30000000E+00
  1.30000000E+00  1.30000000E+00  1.30000000E+00  1.30000000E+00  1.30000000E+00
  1.30000000E+00  1.30000000E+00  1.50000000E+00  1.70000000E+00  1.70000000E+00
  1.70000000E+00  1.70000000E+00  1.30000000E+00  1.30000000E+00  1.30000000E+00
  1.70000000E+00  1.30000000E+00  1.70000000E+00  1.30000000E+00  1.70000000E+00
  1.30000000E+00  1.30000000E+00  1.55000000E+00  1.70000000E+00  1.70000000E+00
  1.70000000E+00  1.70000000E+00  1.70000000E+00  1.70000000E+00  1.70000000E+00
  1.30000000E+00  1.70000000E+00  1.30000000E+00  1.70000000E+00  1.30000000E+00
  1.70000000E+00  1.30000000E+00  1.70000000E+00  1.70000000E+00  1.30000000E+00
  1.70000000E+00  1.30000000E+00  1.30000000E+00  1.70000000E+00  1.70000000E+00
  1.70000000E+00  1.70000000E+00  1.50000000E+00  1.70000000E+00  1.70000000E+00
  1.70000000E+00  1.70000000E+00  1.70000000E+00  1.70000000E+00  1.70000000E+00
  1.70000000E+00  1.30000000E+00  1.70000000E+00  1.30000000E+00  1.70000000E+00
  1.30000000E+00  1.70000000E+00  1.30000000E+00  1.70000000E+00  1.70000000E+00
  1.30000000E+00  1.30000000E+00  1.30000000E+00  1.30000000E+00  1.55000000E+00
  1.55000000E+00  1.70000000E+00  1.30000000E+00  1.55000000E+00  1.70000000E+00
  1.30000000E+00  1.70000000E+00  1.70000000E+00  1.70000000E+00  1.70000000E+00
  1.30000000E+00  1.70000000E+00  1.70000000E+00  1.30000000E+00  1.70000000E+00
  1.70000000E+00  1.70000000E+00  1.70000000E+00  1.70000000E+00  1.70000000E+00
  1.70000000E+00  1.70000000E+00  1.70000000E+00  1.70000000E+00  1.70000000E+00
  1.70000000E+00  1.70000000E+00  1.30000000E+00  1.70000000E+00  1.30000000E+00
  1.30000000E+00  1.70000000E+00  1.30000000E+00  1.70000000E+00  1.70000000E+00
  1.30000000E+00  1.70000000E+00  1.30000000E+00  1.70000000E+00  1.30000000E+00
  1.70000000E+00  1.30000000E+00  1.70000000E+00  1.30000000E+00  1.70000000E+00
  1.30000000E+00  1.70000000E+00  1.30000000E+00  1.70000000E+00  1.30000000E+00
  1.70000000E+00  1.30000000E+00  1.30000000E+00  1.70000000E+00  1.30000000E+00
  1.30000000E+00  1.30000000E+00  1.70000000E+00  1.30000000E+00  1.70000000E+00
  1.30000000E+00  1.30000000E+00  1.70000000E+00  1.30000000E+00  1.30000000E+00
  1.70000000E+00  1.30000000E+00  1.30000000E+00  1.50000000E+00  1.50000000E+00
  1.50000000E+00  1.50000000E+00  1.50000000E+00  1.50000000E+00  1.70000000E+00
  1.70000000E+00  1.70000000E+00  1.70000000E+00  1.70000000E+00  1.70000000E+00
  1.30000000E+00  1.30000000E+00  1.30000000E+00  1.30000000E+00  1.30000000E+00
  1.30000000E+00  1.30000000E+00  1.30000000E+00  1.30000000E+00  1.30000000E+00
  1.30000000E+00  1.30000000E+00  1.30000000E+00  1.30000000E+00  1.30000000E+00
  1.30000000E+00  1.30000000E+00  1.30000000E+00  1.50000000E+00  1.70000000E+00
  1.70000000E+00  1.70000000E+00  1.70000000E+00  1.30000000E+00  1.30000000E+00
  1.30000000E+00  1.70000000E+00  1.30000000E+00  1.70000000E+00  1.30000000E+00
  1.70000000E+00  1.30000000E+00  1.30000000E+00  1.55000000E+00  1.70000000E+00
  1.70000000E+00  1.70000000E+00  1.70000000E+00  1.70000000E+00  1.70000000E+00
  1.70000000E+00  1.30000000E+00  1.70000000E+00  1.30000000E+00  1.70000000E+00
  1.30000000E+00  1.70000000E+00  1.30000000E+00  1.70000000E+00  1.70000000E+00
  1.30000000E+00  1.70000000E+00  1.30000000E+00  1.30000000E+00  1.70000000E+00
  1.70000000E+00  1.70000000E+00  1.70000000E+00  1.50000000E+00  1.70000000E+00
  1.70000000E+00  1.70000000E+00  1.70000000E+00  1.70000000E+00  1.70000000E+00
  1.70000000E+00  1.70000000E+00  1.30000000E+00  1.70000000E+00  1.30000000E+00
  1.70000000E+00  1.30000000E+00  1.70000000E+00  1.30000000E+00  1.70000000E+00
  1.70000000E+00  1.30000000E+00  1.30000000E+00  1.30000000E+00  1.30000000E+00
  1.55000000E+00  1.55000000E+00  1.70000000E+00  1.30000000E+00  1.55000000E+00
  1.70000000E+00  1.30000000E+00  1.70000000E+00  1.70000000E+00  1.70000000E+00
  1.70000000E+00  1.30000000E+00  1.70000000E+00  1.70000000E+00  1.30000000E+00
  1.70000000E+00  1.70000000E+00  1.70000000E+00  1.70000000E+00  1.70000000E+00
  1.70000000E+00  1.70000000E+00  1.70000000E+00  1.70000000E+00  1.70000000E+00
  1.70000000E+00  1.70000000E+00  1.70000000E+00  1.30000000E+00  1.70000000E+00
  1.30000000E+00  1.30000000E+00  1.70000000E+00  1.30000000E+00  1.70000000E+00
  1.70000000E+00  1.30000000E+00  1.70000000E+00  1.30000000E+00  1.70000000E+00
  1.30000000E+00  1.70000000E+00  1.30000000E+00  1.70000000E+00  1.30000000E+00
  1.70000000E+00  1.30000000E+00  1.70000000E+00  1.30000000E+00  1.70000000E+00
  1.30000000E+00  1.70000000E+00  1.30000000E+00  1.30000000E+00  1.70000000E+00
  1.30000000E+00  1.30000000E+00  1.30000000E+00  1.70000000E+00  1.30000000E+00
  1.70000000E+00  1.30000000E+00  1.30000000E+00  1.70000000E+00  1.30000000E+00
  1.30000000E+00  1.70000000E+00  1.30000000E+00  1.30000000E+00  1.50000000E+00
  1.50000000E+00  1.50000000E+00  1.50000000E+00  1.50000000E+00  1.50000000E+00
  1.70000000E+00  1.70000000E+00  1.70000000E+00  1.70000000E+00  1.70000000E+00
  1.70000000E+00  1.30000000E+00  1.30000000E+00  1.30000000E+00  1.30000000E+00
  1.30000000E+00  1.30000000E+00  1.30000000E+00  1.30000000E+00  1.30000000E+00
  1.30000000E+00  1.30000000E+00  1.30000000E+00  1.30000000E+00  1.30000000E+00
  1.30000000E+00  1.30000000E+00  1.30000000E+00  1.30000000E+00  1.50000000E+00
  1.70000000E+00  1.70000000E+00  1.70000000E+00  1.70000000E+00  1.30000000E+00
  1.30000000E+00  1.30000000E+00  1.70000000E+00  1.30000000E+00  1.70000000E+00
  1.30000000E+00  1.70000000E+00  1.30000000E+00  1.30000000E+00  1.55000000E+00
  1.70000000E+00  1.70000000E+00  1.70000000E+00  1.70000000E+00  1.70000000E+00
  1.70000000E+00  1.70000000E+00  1.30000000E+00  1.70000000E+00  1.30000000E+00
  1.70000000E+00  1.30000000E+00  1.70000000E+00  1.30000000E+00  1.70000000E+00
  1.70000000E+00  1.30000000E+00  1.70000000E+00  1.30000000E+00  1.30000000E+00
  1.70000000E+00  1.70000000E+00  1.70000000E+00  1.70000000E+00  1.50000000E+00
  1.70000000E+00  1.70000000E+00  1.70000000E+00  1.70000000E+00  1.70000000E+00
  1.70000000E+00  1.70000000E+00  1.70000000E+00  1.30000000E+00  1.70000000E+00
  1.30000000E+00  1.70000000E+00  1.30000000E+00  1.70000000E+00  1.30000000E+00
  1.70000000E+00  1.70000000E+00  1.30000000E+00  1.30000000E+00  1.30000000E+00
  1.30000000E+00  1.55000000E+00  1.55000000E+00  1.70000000E+00  1.30000000E+00
  1.55000000E+00  1.70000000E+00  1.30000000E+00  1.70000000E+00  1.70000000E+00
  1.70000000E+00  1.70000000E+00  1.30000000E+00  1.70000000E+00  1.70000000E+00
  1.30000000E+00  1.70000000E+00  1.70000000E+00  1.70000000E+00  1.70000000E+00
  1.70000000E+00  1.70000000E+00  1.70000000E+00  1.70000000E+00  1.70000000E+00
  1.70000000E+00  1.70000000E+00  1.70000000E+00  1.70000000E+00  1.30000000E+00
  1.70000000E+00  1.30000000E+00  1.30000000E+00  1.70000000E+00  1.30000000E+00
  1.70000000E+00  1.70000000E+00  1.30000000E+00  1.70000000E+00  1.30000000E+00
  1.70000000E+00  1.30000000E+00  1.70000000E+00  1.30000000E+00  1.70000000E+00
  1.30000000E+00  1.70000000E+00  1.30000000E+00  1.70000000E+00  1.30000000E+00
  1.70000000E+00  1.30000000E+00  1.70000000E+00  1.30000000E+00  1.30000000E+00
  1.70000000E+00  1.30000000E+00  1.30000000E+00  1.30000000E+00  1.70000000E+00
  1.30000000E+00  1.70000000E+00  1.30000000E+00  1.30000000E+00  1.70000000E+00
  1.30000000E+00  1.30000000E+00  1.70000000E+00  1.30000000E+00  1.30000000E+00
  1.50000000E+00  1.50000000E+00  1.50000000E+00  1.50000000E+00  1.50000000E+00
  1.50000000E+00  1.70000000E+00  1.70000000E+00  1.70000000E+00  1.70000000E+00
  1.70000000E+00  1.70000000E+00  1.30000000E+00  1.30000000E+00  1.30000000E+00
  1.30000000E+00  1.30000000E+00  1.30000000E+00  1.30000000E+00  1.30000000E+00
  1.30000000E+00  1.30000000E+00  1.30000000E+00  1.30000000E+00  1.30000000E+00
  1.30000000E+00  1.30000000E+00  1.30000000E+00  1.30000000E+00  1.30000000E+00
  1.50000000E+00  1.70000000E+00  1.70000000E+00  1.70000000E+00  1.70000000E+00
  1.30000000E+00  1.30000000E+00  1.30000000E+00  1.70000000E+00  1.30000000E+00
  1.70000000E+00  1.30000000E+00  1.70000000E+00  1.30000000E+00  1.30000000E+00
  1.55000000E+00  1.70000000E+00  1.70000000E+00  1.70000000E+00  1.70000000E+00
  1.70000000E+00  1.70000000E+00  1.70000000E+00  1.30000000E+00  1.70000000E+00
  1.30000000E+00  1.70000000E+00  1.30000000E+00  1.70000000E+00  1.30000000E+00
  1.70000000E+00  1.70000000E+00  1.30000000E+00  1.70000000E+00  1.30000000E+00
  1.30000000E+00  1.70000000E+00  1.70000000E+00  1.70000000E+00  1.70000000E+00
  1.50000000E+00  1.70000000E+00  1.70000000E+00  1.70000000E+00  1.70000000E+00
  1.70000000E+00  1.70000000E+00  1.70000000E+00  1.70000000E+00  1.30000000E+00
  1.70000000E+00  1.30000000E+00  1.70000000E+00  1.30000000E+00  1.70000000E+00
  1.30000000E+00  1.70000000E+00  1.70000000E+00  1.30000000E+00  1.30000000E+00
  1.30000000E+00  1.30000000E+00  1.55000000E+00  1.55000000E+00  1.70000000E+00
  1.30000000E+00  1.55000000E+00  1.70000000E+00  1.30000000E+00  1.70000000E+00
  1.70000000E+00  1.70000000E+00  1.70000000E+00  1.30000000E+00  1.70000000E+00
  1.70000000E+00  1.30000000E+00  1.70000000E+00  1.70000000E+00  1.70000000E+00
  1.70000000E+00  1.70000000E+00  1.70000000E+00  1.70000000E+00  1.70000000E+00
  1.70000000E+00  1.70000000E+00  1.70000000E+00  1.70000000E+00  1.70000000E+00
  1.30000000E+00  1.70000000E+00  1.30000000E+00  1.30000000E+00  1.70000000E+00
  1.30000000E+00  1.70000000E+00  1.70000000E+00  1.30000000E+00  1.70000000E+00
  1.30000000E+00  1.70000000E+00  1.30000000E+00  1.70000000E+00  1.30000000E+00
  1.70000000E+00  1.30000000E+00  1.70000000E+00  1.30000000E+00  1.70000000E+00
  1.30000000E+00  1.70000000E+00  1.30000000E+00  1.70000000E+00  1.30000000E+00
  1.30000000E+00  1.70000000E+00  1.30000000E+00  1.30000000E+00  1.30000000E+00
  1.70000000E+00  1.30000000E+00  1.70000000E+00  1.30000000E+00  1.30000000E+00
  1.70000000E+00  1.30000000E+00  1.30000000E+00  1.70000000E+00  1.30000000E+00
  1.30000000E+00  1.50000000E+00  1.50000000E+00  1.50000000E+00  1.50000000E+00
  1.50000000E+00  1.50000000E+00  1.70000000E+00  1.70000000E+00  1.70000000E+00
  1.70000000E+00  1.70000000E+00  1.70000000E+00  1.30000000E+00  1.30000000E+00
  1.30000000E+00  1.30000000E+00  1.30000000E+00  1.30000000E+00  1.30000000E+00
  1.30000000E+00  1.30000000E+00  1.30000000E+00  1.30000000E+00  1.30000000E+00
  1.30000000E+00  1.30000000E+00  1.30000000E+00  1.30000000E+00  1.30000000E+00
  1.30000000E+00  1.50000000E+00  1.70000000E+00  1.70000000E+00  1.70000000E+00
  1.70000000E+00  1.30000000E+00  1.30000000E+00  1.30000000E+00  1.70000000E+00
  1.30000000E+00  1.70000000E+00  1.30000000E+00  1.70000000E+00  1.30000000E+00
  1.30000000E+00  1.55000000E+00  1.70000000E+00  1.70000000E+00  1.70000000E+00
  1.70000000E+00  1.70000000E+00  1.70000000E+00  1.70000000E+00  1.30000000E+00
  1.70000000E+00  1.30000000E+00  1.70000000E+00  1.30000000E+00  1.70000000E+00
  1.30000000E+00  1.70000000E+00  1.70000000E+00  1.30000000E+00  1.70000000E+00
  1.30000000E+00  1.30000000E+00  1.70000000E+00  1.70000000E+00  1.70000000E+00
  1.70000000E+00  1.50000000E+00  1.70000000E+00  1.70000000E+00  1.70000000E+00
  1.70000000E+00  1.70000000E+00  1.70000000E+00  1.70000000E+00  1.70000000E+00
  1.30000000E+00  1.70000000E+00  1.30000000E+00  1.70000000E+00  1.30000000E+00
  1.70000000E+00  1.30000000E+00  1.70000000E+00  1.70000000E+00  1.30000000E+00
  1.30000000E+00  1.30000000E+00  1.30000000E+00  1.55000000E+00  1.55000000E+00
  1.70000000E+00  1.30000000E+00  1.55000000E+00  1.70000000E+00  1.30000000E+00
  1.70000000E+00  1.70000000E+00  1.70000000E+00  1.70000000E+00  1.30000000E+00
  1.70000000E+00  1.70000000E+00  1.30000000E+00  1.70000000E+00  1.70000000E+00
  1.70000000E+00  1.70000000E+00  1.70000000E+00  1.70000000E+00  1.70000000E+00
  1.70000000E+00  1.70000000E+00  1.70000000E+00  1.70000000E+00  1.70000000E+00
  1.70000000E+00  1.30000000E+00  1.70000000E+00  1.30000000E+00  1.30000000E+00
  1.70000000E+00  1.30000000E+00  1.70000000E+00  1.70000000E+00  1.30000000E+00
  1.70000000E+00  1.30000000E+00  1.70000000E+00  1.30000000E+00  1.70000000E+00
  1.30000000E+00  1.70000000E+00  1.30000000E+00  1.70000000E+00  1.30000000E+00
  1.70000000E+00  1.30000000E+00  1.70000000E+00  1.30000000E+00  1.70000000E+00
  1.30000000E+00  1.30000000E+00  1.70000000E+00  1.30000000E+00  1.30000000E+00
  1.30000000E+00  1.70000000E+00  1.30000000E+00  1.70000000E+00  1.30000000E+00
  1.30000000E+00  1.70000000E+00  1.30000000E+00  1.30000000E+00  1.70000000E+00
  1.30000000E+00  1.30000000E+00  1.50000000E+00  1.50000000E+00  1.50000000E+00
  1.50000000E+00  1.50000000E+00  1.50000000E+00  1.70000000E+00  1.70000000E+00
  1.70000000E+00  1.70000000E+00  1.70000000E+00  1.70000000E+00  1.30000000E+00
  1.30000000E+00  1.30000000E+00  1.30000000E+00  1.30000000E+00  1.30000000E+00
  1.30000000E+00  1.30000000E+00  1.30000000E+00  1.30000000E+00  1.30000000E+00
  1.30000000E+00  1.30000000E+00  1.30000000E+00  1.30000000E+00  1.30000000E+00
  1.30000000E+00  1.30000000E+00  1.50000000E+00  1.70000000E+00  1.70000000E+00
  1.70000000E+00  1.70000000E+00  1.30000000E+00  1.30000000E+00  1.30000000E+00
  1.70000000E+00  1.30000000E+00  1.70000000E+00  1.30000000E+00  1.70000000E+00
  1.30000000E+00  1.30000000E+00  1.55000000E+00  1.70000000E+00  1.70000000E+00
  1.70000000E+00  1.70000000E+00  1.70000000E+00  1.70000000E+00  1.70000000E+00
  1.30000000E+00  1.70000000E+00  1.30000000E+00  1.70000000E+00  1.30000000E+00
  1.70000000E+00  1.30000000E+00  1.70000000E+00  1.70000000E+00  1.30000000E+00
  1.70000000E+00  1.30000000E+00  1.30000000E+00  1.70000000E+00  1.70000000E+00
  1.70000000E+00  1.70000000E+00  1.50000000E+00  1.70000000E+00  1.70000000E+00
  1.70000000E+00  1.70000000E+00  1.70000000E+00  1.70000000E+00  1.70000000E+00
  1.70000000E+00  1.30000000E+00  1.70000000E+00  1.30000000E+00  1.70000000E+00
  1.30000000E+00  1.70000000E+00  1.30000000E+00  1.70000000E+00  1.70000000E+00
  1.30000000E+00  1.30000000E+00  1.30000000E+00  1.30000000E+00  1.55000000E+00
  1.55000000E+00  1.70000000E+00  1.30000000E+00  1.55000000E+00  1.70000000E+00
  1.30000000E+00  1.70000000E+00  1.70000000E+00  1.70000000E+00  1.70000000E+00
  1.30000000E+00  1.70000000E+00  1.70000000E+00  1.30000000E+00  1.70000000E+00
  1.70000000E+00  1.70000000E+00  1.70000000E+00  1.70000000E+00  1.70000000E+00
  1.70000000E+00  1.70000000E+00  1.70000000E+00  1.70000000E+00  1.70000000E+00
  1.70000000E+00  1.70000000E+00  1.30000000E+00  1.70000000E+00  1.30000000E+00
  1.30000000E+00  1.70000000E+00  1.30000000E+00  1.70000000E+00  1.70000000E+00
  1.30000000E+00  1.70000000E+00  1.30000000E+00  1.70000000E+00  1.30000000E+00
  1.70000000E+00  1.30000000E+00  1.70000000E+00  1.30000000E+00  1.70000000E+00
  1.30000000E+00  1.70000000E+00  1.30000000E+00  1.70000000E+00  1.30000000E+00
  1.70000000E+00  1.30000000E+00  1.30000000E+00  1.70000000E+00  1.30000000E+00
  1.30000000E+00  1.30000000E+00  1.70000000E+00  1.30000000E+00  1.70000000E+00
  1.30000000E+00  1.30000000E+00  1.70000000E+00  1.30000000E+00  1.30000000E+00
  1.70000000E+00  1.30000000E+00  1.30000000E+00  1.50000000E+00  1.50000000E+00
  1.50000000E+00  1.50000000E+00  1.50000000E+00  1.50000000E+00  1.70000000E+00
  1.70000000E+00  1.70000000E+00  1.70000000E+00  1.70000000E+00  1.70000000E+00
  1.30000000E+00  1.30000000E+00  1.30000000E+00  1.30000000E+00  1.30000000E+00
  1.30000000E+00  1.30000000E+00  1.30000000E+00  1.30000000E+00  1.30000000E+00
  1.30000000E+00  1.30000000E+00  1.30000000E+00  1.30000000E+00  1.30000000E+00
  1.30000000E+00  1.30000000E+00  1.30000000E+00  1.50000000E+00  1.70000000E+00
  1.70000000E+00  1.70000000E+00  1.70000000E+00  1.30000000E+00  1.30000000E+00
  1.30000000E+00  1.70000000E+00  1.30000000E+00  1.70000000E+00  1.30000000E+00
  1.70000000E+00  1.30000000E+00  1.30000000E+00  1.55000000E+00  1.70000000E+00
  1.70000000E+00  1.70000000E+00  1.70000000E+00  1.70000000E+00  1.70000000E+00
  1.70000000E+00  1.30000000E+00  1.70000000E+00  1.30000000E+00  1.70000000E+00
  1.30000000E+00  1.70000000E+00  1.30000000E+00  1.70000000E+00  1.70000000E+00
  1.30000000E+00  1.70000000E+00  1.30000000E+00  1.30000000E+00  1.70000000E+00
  1.70000000E+00  1.70000000E+00  1.70000000E+00  1.50000000E+00  1.70000000E+00
  1.70000000E+00  1.70000000E+00  1.70000000E+00  1.70000000E+00  1.70000000E+00
  1.70000000E+00  1.70000000E+00  1.30000000E+00  1.70000000E+00  1.30000000E+00
  1.70000000E+00  1.30000000E+00  1.70000000E+00  1.30000000E+00  1.70000000E+00
  1.70000000E+00  1.30000000E+00  1.30000000E+00  1.30000000E+00  1.30000000E+00
  1.55000000E+00  1.55000000E+00  1.70000000E+00  1.30000000E+00  1.55000000E+00
  1.70000000E+00  1.30000000E+00  1.70000000E+00  1.70000000E+00  1.70000000E+00
  1.70000000E+00  1.30000000E+00  1.70000000E+00  1.70000000E+00  1.30000000E+00
  1.70000000E+00  1.70000000E+00  1.70000000E+00  1.70000000E+00  1.70000000E+00
  1.70000000E+00  1.70000000E+00  1.70000000E+00  1.70000000E+00  1.70000000E+00
  1.70000000E+00  1.70000000E+00  1.70000000E+00  1.30000000E+00  1.70000000E+00
  1.30000000E+00  1.30000000E+00  1.70000000E+00  1.30000000E+00  1.70000000E+00
  1.70000000E+00  1.30000000E+00  1.70000000E+00  1.30000000E+00  1.70000000E+00
  1.30000000E+00  1.70000000E+00  1.30000000E+00  1.70000000E+00  1.30000000E+00
  1.70000000E+00  1.30000000E+00  1.70000000E+00  1.30000000E+00  1.70000000E+00
  1.30000000E+00  1.70000000E+00  1.30000000E+00  1.30000000E+00  1.70000000E+00
  1.30000000E+00  1.30000000E+00  1.30000000E+00  1.70000000E+00  1.30000000E+00
  1.70000000E+00  1.30000000E+00  1.30000000E+00  1.70000000E+00  1.30000000E+00
  1.30000000E+00  1.70000000E+00  1.30000000E+00  1.30000000E+00  1.50000000E+00
  1.50000000E+00  1.50000000E+00  1.50000000E+00  1.50000000E+00  1.50000000E+00
  1.70000000E+00  1.70000000E+00  1.70000000E+00  1.70000000E+00  1.70000000E+00
  1.70000000E+00  1.30000000E+00  1.30000000E+00  1.30000000E+00  1.30000000E+00
  1.30000000E+00  1.30000000E+00  1.30000000E+00  1.30000000E+00  1.30000000E+00
  1.30000000E+00  1.30000000E+00  1.30000000E+00  1.30000000E+00  1.30000000E+00
  1.30000000E+00  1.30000000E+00  1.30000000E+00  1.30000000E+00  1.50000000E+00
  1.70000000E+00  1.70000000E+00  1.70000000E+00  1.70000000E+00  1.30000000E+00
  1.30000000E+00  1.30000000E+00  1.70000000E+00  1.30000000E+00  1.70000000E+00
  1.30000000E+00  1.70000000E+00  1.30000000E+00  1.30000000E+00  1.55000000E+00
  1.70000000E+00  1.70000000E+00  1.70000000E+00  1.70000000E+00  1.70000000E+00
  1.70000000E+00  1.70000000E+00  1.30000000E+00  1.70000000E+00  1.30000000E+00
  1.70000000E+00  1.30000000E+00  1.70000000E+00  1.30000000E+00  1.70000000E+00
  1.70000000E+00  1.30000000E+00  1.70000000E+00  1.30000000E+00  1.30000000E+00
  1.70000000E+00  1.70000000E+00  1.70000000E+00  1.70000000E+00  1.50000000E+00
  1.70000000E+00  1.70000000E+00  1.70000000E+00  1.70000000E+00  1.70000000E+00
  1.70000000E+00  1.70000000E+00  1.70000000E+00  1.30000000E+00  1.70000000E+00
  1.30000000E+00  1.70000000E+00  1.30000000E+00  1.70000000E+00  1.30000000E+00
  1.70000000E+00  1.70000000E+00  1.30000000E+00  1.30000000E+00  1.30000000E+00
  1.30000000E+00  1.55000000E+00  1.55000000E+00  1.70000000E+00  1.30000000E+00
  1.55000000E+00  1.70000000E+00  1.30000000E+00  1.70000000E+00  1.70000000E+00
  1.70000000E+00  1.70000000E+00  1.30000000E+00  1.70000000E+00  1.70000000E+00
  1.30000000E+00  1.70000000E+00  1.70000000E+00  1.70000000E+00  1.70000000E+00
  1.70000000E+00  1.70000000E+00  1.70000000E+00  1.70000000E+00  1.70000000E+00
  1.70000000E+00  1.70000000E+00  1.70000000E+00  1.70000000E+00  1.30000000E+00
  1.70000000E+00  1.30000000E+00  1.30000000E+00  1.70000000E+00  1.30000000E+00
  1.70000000E+00  1.70000000E+00  1.30000000E+00  1.70000000E+00  1.30000000E+00
  1.70000000E+00  1.30000000E+00  1.70000000E+00  1.30000000E+00  1.70000000E+00
  1.30000000E+00  1.70000000E+00  1.30000000E+00  1.70000000E+00  1.30000000E+00
  1.70000000E+00  1.30000000E+00  1.70000000E+00  1.30000000E+00  1.30000000E+00
  1.70000000E+00  1.30000000E+00  1.30000000E+00  1.30000000E+00  1.70000000E+00
  1.30000000E+00  1.70000000E+00  1.30000000E+00  1.30000000E+00  1.70000000E+00
  1.30000000E+00  1.30000000E+00  1.70000000E+00  1.30000000E+00  1.30000000E+00
  1.50000000E+00  1.50000000E+00  1.50000000E+00  1.50000000E+00  1.50000000E+00
  1.50000000E+00  1.70000000E+00  1.70000000E+00  1.70000000E+00  1.70000000E+00
  1.70000000E+00  1.70000000E+00  1.30000000E+00  1.30000000E+00  1.30000000E+00
  1.30000000E+00  1.30000000E+00  1.30000000E+00  1.30000000E+00  1.30000000E+00
  1.30000000E+00  1.30000000E+00  1.30000000E+00  1.30000000E+00  1.30000000E+00
  1.30000000E+00  1.30000000E+00  1.30000000E+00  1.30000000E+00  1.30000000E+00
  1.50000000E+00  1.70000000E+00  1.70000000E+00  1.70000000E+00  1.70000000E+00
  1.30000000E+00  1.30000000E+00  1.30000000E+00  1.70000000E+00  1.30000000E+00
  1.70000000E+00  1.30000000E+00  1.70000000E+00  1.30000000E+00  1.30000000E+00
  1.55000000E+00  1.70000000E+00  1.70000000E+00  1.70000000E+00  1.70000000E+00
  1.70000000E+00  1.70000000E+00  1.70000000E+00  1.30000000E+00  1.70000000E+00
  1.30000000E+00  1.70000000E+00  1.30000000E+00  1.70000000E+00  1.30000000E+00
  1.70000000E+00  1.70000000E+00  1.30000000E+00  1.70000000E+00  1.30000000E+00
  1.30000000E+00  1.70000000E+00  1.70000000E+00  1.70000000E+00  1.70000000E+00
  1.50000000E+00  1.70000000E+00  1.70000000E+00  1.70000000E+00  1.70000000E+00
  1.70000000E+00  1.70000000E+00  1.70000000E+00  1.70000000E+00  1.30000000E+00
  1.70000000E+00  1.30000000E+00  1.70000000E+00  1.30000000E+00  1.70000000E+00
  1.30000000E+00  1.70000000E+00  1.70000000E+00  1.30000000E+00  1.30000000E+00
  1.30000000E+00  1.30000000E+00  1.55000000E+00  1.55000000E+00  1.70000000E+00
  1.30000000E+00  1.55000000E+00  1.70000000E+00  1.30000000E+00  1.70000000E+00
  1.70000000E+00  1.70000000E+00  1.70000000E+00  1.30000000E+00  1.70000000E+00
  1.70000000E+00  1.30000000E+00  1.70000000E+00  1.70000000E+00  1.70000000E+00
  1.70000000E+00  1.70000000E+00  1.70000000E+00  1.70000000E+00  1.70000000E+00
  1.70000000E+00  1.70000000E+00  1.70000000E+00  1.70000000E+00  1.70000000E+00
  1.30000000E+00  1.70000000E+00  1.30000000E+00  1.30000000E+00  1.70000000E+00
  1.30000000E+00  1.70000000E+00  1.70000000E+00  1.30000000E+00  1.70000000E+00
  1.30000000E+00  1.70000000E+00  1.30000000E+00  1.70000000E+00  1.30000000E+00
  1.70000000E+00  1.30000000E+00  1.70000000E+00  1.30000000E+00  1.70000000E+00
  1.30000000E+00  1.70000000E+00  1.30000000E+00  1.70000000E+00  1.30000000E+00
  1.30000000E+00  1.70000000E+00  1.30000000E+00  1.30000000E+00  1.30000000E+00
  1.70000000E+00  1.30000000E+00  1.70000000E+00  1.30000000E+00  1.30000000E+00
  1.70000000E+00  1.30000000E+00  1.30000000E+00  1.70000000E+00  1.30000000E+00
  1.30000000E+00  1.50000000E+00  1.50000000E+00  1.50000000E+00  1.50000000E+00
  1.50000000E+00  1.50000000E+00  1.70000000E+00  1.70000000E+00  1.70000000E+00
  1.70000000E+00  1.70000000E+00  1.70000000E+00  1.30000000E+00  1.30000000E+00
  1.30000000E+00  1.30000000E+00  1.30000000E+00  1.30000000E+00  1.30000000E+00
  1.30000000E+00  1.30000000E+00  1.30000000E+00  1.30000000E+00  1.30000000E+00
  1.30000000E+00  1.30000000E+00  1.30000000E+00  1.30000000E+00  1.30000000E+00
  1.30000000E+00  1.50000000E+00  1.70000000E+00  1.70000000E+00  1.70000000E+00
  1.70000000E+00  1.30000000E+00  1.30000000E+00  1.30000000E+00  1.70000000E+00
  1.30000000E+00  1.70000000E+00  1.30000000E+00  1.70000000E+00  1.30000000E+00
  1.30000000E+00  1.55000000E+00  1.70000000E+00  1.70000000E+00  1.70000000E+00
  1.70000000E+00  1.70000000E+00  1.70000000E+00  1.70000000E+00  1.30000000E+00
  1.70000000E+00  1.30000000E+00  1.70000000E+00  1.30000000E+00  1.70000000E+00
  1.30000000E+00  1.70000000E+00  1.70000000E+00  1.30000000E+00  1.70000000E+00
  1.30000000E+00  1.30000000E+00  1.70000000E+00  1.70000000E+00  1.70000000E+00
  1.70000000E+00  1.50000000E+00  1.70000000E+00  1.70000000E+00  1.70000000E+00
  1.70000000E+00  1.70000000E+00  1.70000000E+00  1.70000000E+00  1.70000000E+00
  1.30000000E+00  1.70000000E+00  1.30000000E+00  1.70000000E+00  1.30000000E+00
  1.70000000E+00  1.30000000E+00  1.70000000E+00  1.70000000E+00  1.30000000E+00
  1.30000000E+00  1.30000000E+00  1.30000000E+00  1.55000000E+00  1.55000000E+00
  1.70000000E+00  1.30000000E+00  1.55000000E+00  1.70000000E+00  1.30000000E+00
  1.70000000E+00  1.70000000E+00  1.70000000E+00  1.70000000E+00  1.30000000E+00
  1.70000000E+00  1.70000000E+00  1.30000000E+00  1.70000000E+00  1.70000000E+00
  1.70000000E+00  1.70000000E+00  1.70000000E+00  1.70000000E+00  1.70000000E+00
  1.70000000E+00  1.70000000E+00  1.70000000E+00  1.70000000E+00  1.70000000E+00
  1.70000000E+00  1.30000000E+00  1.70000000E+00  1.30000000E+00  1.30000000E+00
  1.70000000E+00  1.30000000E+00  1.70000000E+00  1.70000000E+00  1.30000000E+00
  1.70000000E+00  1.30000000E+00  1.70000000E+00  1.30000000E+00  1.70000000E+00
  1.30000000E+00  1.70000000E+00  1.30000000E+00  1.70000000E+00  1.30000000E+00
  1.70000000E+00  1.30000000E+00  1.70000000E+00  1.30000000E+00  1.70000000E+00
  1.30000000E+00  1.30000000E+00  1.70000000E+00  1.30000000E+00  1.30000000E+00
  1.30000000E+00  1.70000000E+00  1.30000000E+00  1.70000000E+00  1.30000000E+00
  1.30000000E+00  1.70000000E+00  1.30000000E+00  1.30000000E+00  1.70000000E+00
  1.30000000E+00  1.30000000E+00  1.50000000E+00  1.50000000E+00  1.50000000E+00
  1.50000000E+00  1.50000000E+00  1.50000000E+00  1.70000000E+00  1.70000000E+00
  1.70000000E+00  1.70000000E+00  1.70000000E+00  1.70000000E+00  1.30000000E+00
  1.30000000E+00  1.30000000E+00  1.30000000E+00  1.30000000E+00  1.30000000E+00
  1.30000000E+00  1.30000000E+00  1.30000000E+00  1.30000000E+00  1.30000000E+00
  1.30000000E+00  1.30000000E+00  1.30000000E+00  1.30000000E+00  1.30000000E+00
  1.30000000E+00  1.30000000E+00  1.50000000E+00  1.70000000E+00  1.70000000E+00
  1.70000000E+00  1.70000000E+00  1.30000000E+00  1.30000000E+00  1.30000000E+00
  1.70000000E+00  1.30000000E+00  1.70000000E+00  1.30000000E+00  1.70000000E+00
  1.30000000E+00  1.30000000E+00  1.55000000E+00  1.70000000E+00  1.70000000E+00
  1.70000000E+00  1.70000000E+00  1.70000000E+00  1.70000000E+00  1.70000000E+00
  1.30000000E+00  1.70000000E+00  1.30000000E+00  1.70000000E+00  1.30000000E+00
  1.70000000E+00  1.30000000E+00  1.70000000E+00  1.70000000E+00  1.30000000E+00
  1.70000000E+00  1.30000000E+00  1.30000000E+00  1.70000000E+00  1.70000000E+00
  1.70000000E+00  1.70000000E+00  1.50000000E+00  1.70000000E+00  1.70000000E+00
  1.70000000E+00  1.70000000E+00  1.70000000E+00  1.70000000E+00  1.70000000E+00
  1.70000000E+00  1.30000000E+00  1.70000000E+00  1.30000000E+00  1.70000000E+00
  1.30000000E+00  1.70000000E+00  1.30000000E+00  1.70000000E+00  1.70000000E+00
  1.30000000E+00  1.30000000E+00  1.30000000E+00  1.30000000E+00  1.55000000E+00
  1.55000000E+00  1.70000000E+00  1.30000000E+00  1.55000000E+00  1.70000000E+00
  1.30000000E+00  1.70000000E+00  1.70000000E+00  1.70000000E+00  1.70000000E+00
  1.30000000E+00  1.70000000E+00  1.70000000E+00  1.30000000E+00  1.70000000E+00
  1.70000000E+00  1.70000000E+00  1.70000000E+00  1.70000000E+00  1.70000000E+00
  1.70000000E+00  1.70000000E+00  1.70000000E+00  1.70000000E+00  1.70000000E+00
  1.70000000E+00  1.70000000E+00  1.30000000E+00  1.70000000E+00  1.30000000E+00
  1.30000000E+00  1.70000000E+00  1.30000000E+00  1.70000000E+00  1.70000000E+00
  1.30000000E+00  1.70000000E+00  1.30000000E+00  1.70000000E+00  1.30000000E+00
  1.70000000E+00  1.30000000E+00  1.70000000E+00  1.30000000E+00  1.70000000E+00
  1.30000000E+00  1.70000000E+00  1.30000000E+00  1.70000000E+00  1.30000000E+00
  1.70000000E+00  1.30000000E+00  1.30000000E+00  1.70000000E+00  1.30000000E+00
  1.30000000E+00  1.30000000E+00  1.70000000E+00  1.30000000E+00  1.70000000E+00
  1.30000000E+00  1.30000000E+00  1.70000000E+00  1.30000000E+00  1.30000000E+00
  1.70000000E+00  1.30000000E+00  1.30000000E+00  1.50000000E+00  1.50000000E+00
  1.50000000E+00  1.50000000E+00  1.50000000E+00  1.50000000E+00  1.70000000E+00
  1.70000000E+00  1.70000000E+00  1.70000000E+00  1.70000000E+00  1.70000000E+00
  1.30000000E+00  1.30000000E+00  1.30000000E+00  1.30000000E+00  1.30000000E+00
  1.30000000E+00  1.30000000E+00  1.30000000E+00  1.30000000E+00  1.30000000E+00
  1.30000000E+00  1.30000000E+00  1.30000000E+00  1.30000000E+00  1.30000000E+00
  1.30000000E+00  1.30000000E+00  1.30000000E+00  1.50000000E+00  1.70000000E+00
  1.70000000E+00  1.70000000E+00  1.70000000E+00  1.30000000E+00  1.30000000E+00
  1.30000000E+00  1.70000000E+00  1.30000000E+00  1.70000000E+00  1.30000000E+00
  1.70000000E+00  1.30000000E+00  1.30000000E+00  1.55000000E+00  1.70000000E+00
  1.70000000E+00  1.70000000E+00  1.70000000E+00  1.70000000E+00  1.70000000E+00
  1.70000000E+00  1.30000000E+00  1.70000000E+00  1.30000000E+00  1.70000000E+00
  1.30000000E+00  1.70000000E+00  1.30000000E+00  1.70000000E+00  1.70000000E+00
  1.30000000E+00  1.70000000E+00  1.30000000E+00  1.30000000E+00  1.70000000E+00
  1.70000000E+00  1.70000000E+00  1.70000000E+00  1.50000000E+00  1.70000000E+00
  1.70000000E+00  1.70000000E+00  1.70000000E+00  1.70000000E+00  1.70000000E+00
  1.70000000E+00  1.70000000E+00  1.30000000E+00  1.70000000E+00  1.30000000E+00
  1.70000000E+00  1.30000000E+00  1.70000000E+00  1.30000000E+00  1.70000000E+00
  1.70000000E+00  1.30000000E+00  1.30000000E+00  1.30000000E+00  1.30000000E+00
  1.55000000E+00  1.55000000E+00  1.70000000E+00  1.30000000E+00  1.55000000E+00
  1.70000000E+00  1.30000000E+00  1.70000000E+00  1.70000000E+00  1.70000000E+00
  1.70000000E+00  1.30000000E+00  1.70000000E+00  1.70000000E+00  1.30000000E+00
  1.70000000E+00  1.70000000E+00  1.70000000E+00  1.70000000E+00  1.70000000E+00
  1.70000000E+00  1.70000000E+00  1.70000000E+00  1.70000000E+00  1.70000000E+00
  1.70000000E+00  1.70000000E+00  1.70000000E+00  1.30000000E+00  1.70000000E+00
  1.30000000E+00  1.30000000E+00  1.70000000E+00  1.30000000E+00  1.70000000E+00
  1.70000000E+00  1.30000000E+00  1.70000000E+00  1.30000000E+00  1.70000000E+00
  1.30000000E+00  1.70000000E+00  1.30000000E+00  1.70000000E+00  1.30000000E+00
  1.70000000E+00  1.30000000E+00  1.70000000E+00  1.30000000E+00  1.70000000E+00
  1.30000000E+00  1.70000000E+00  1.30000000E+00  1.30000000E+00  1.70000000E+00
  1.30000000E+00  1.30000000E+00  1.30000000E+00  1.70000000E+00  1.30000000E+00
  1.70000000E+00  1.30000000E+00  1.30000000E+00  1.70000000E+00  1.30000000E+00
  1.30000000E+00  1.70000000E+00  1.30000000E+00  1.30000000E+00  1.50000000E+00
  1.50000000E+00  1.50000000E+00  1.50000000E+00  1.50000000E+00  1.50000000E+00
  1.70000000E+00  1.70000000E+00  1.70000000E+00  1.70000000E+00  1.70000000E+00
  1.70000000E+00  1.30000000E+00  1.30000000E+00  1.30000000E+00  1.30000000E+00
  1.30000000E+00  1.30000000E+00  1.30000000E+00  1.30000000E+00  1.30000000E+00
  1.30000000E+00  1.30000000E+00  1.30000000E+00  1.30000000E+00  1.30000000E+00
  1.30000000E+00  1.30000000E+00  1.30000000E+00  1.30000000E+00  1.50000000E+00
  1.70000000E+00  1.70000000E+00  1.70000000E+00  1.70000000E+00  1.30000000E+00
  1.30000000E+00  1.30000000E+00  1.70000000E+00  1.30000000E+00  1.70000000E+00
  1.30000000E+00  1.70000000E+00  1.30000000E+00  1.30000000E+00  1.55000000E+00
  1.70000000E+00  1.70000000E+00  1.70000000E+00  1.70000000E+00  1.70000000E+00
  1.70000000E+00  1.70000000E+00  1.30000000E+00  1.70000000E+00  1.30000000E+00
  1.70000000E+00  1.30000000E+00  1.70000000E+00  1.30000000E+00  1.70000000E+00
  1.70000000E+00  1.30000000E+00  1.70000000E+00  1.30000000E+00  1.30000000E+00
  1.70000000E+00  1.70000000E+00  1.70000000E+00  1.70000000E+00  1.50000000E+00
  1.70000000E+00  1.70000000E+00  1.70000000E+00  1.70000000E+00  1.70000000E+00
  1.70000000E+00  1.70000000E+00  1.70000000E+00  1.30000000E+00  1.70000000E+00
  1.30000000E+00  1.70000000E+00  1.30000000E+00  1.70000000E+00  1.30000000E+00
  1.70000000E+00  1.70000000E+00  1.30000000E+00  1.30000000E+00  1.30000000E+00
  1.30000000E+00  1.55000000E+00  1.55000000E+00  1.70000000E+00  1.30000000E+00
  1.55000000E+00  1.70000000E+00  1.30000000E+00  1.70000000E+00  1.70000000E+00
  1.70000000E+00  1.70000000E+00  1.30000000E+00  1.70000000E+00  1.70000000E+00
  1.30000000E+00  1.70000000E+00  1.70000000E+00  1.70000000E+00  1.70000000E+00
  1.70000000E+00  1.70000000E+00  1.70000000E+00  1.70000000E+00  1.70000000E+00
  1.70000000E+00  1.70000000E+00  1.70000000E+00  1.70000000E+00  1.30000000E+00
  1.70000000E+00  1.30000000E+00  1.30000000E+00  1.70000000E+00  1.30000000E+00
  1.70000000E+00  1.70000000E+00  1.30000000E+00  1.70000000E+00  1.30000000E+00
  1.70000000E+00  1.30000000E+00  1.70000000E+00  1.30000000E+00  1.70000000E+00
  1.30000000E+00  1.70000000E+00  1.30000000E+00  1.70000000E+00  1.30000000E+00
  1.70000000E+00  1.30000000E+00  1.70000000E+00  1.30000000E+00  1.30000000E+00
  1.70000000E+00  1.30000000E+00  1.30000000E+00  1.30000000E+00  1.70000000E+00
  1.30000000E+00  1.70000000E+00  1.30000000E+00  1.30000000E+00  1.70000000E+00
  1.30000000E+00  1.30000000E+00  1.70000000E+00  1.30000000E+00  1.30000000E+00
  1.50000000E+00  1.50000000E+00  1.50000000E+00  1.50000000E+00  1.50000000E+00
  1.50000000E+00  1.70000000E+00  1.70000000E+00  1.70000000E+00  1.70000000E+00
  1.70000000E+00  1.70000000E+00  1.30000000E+00  1.30000000E+00  1.30000000E+00
  1.30000000E+00  1.30000000E+00  1.30000000E+00  1.30000000E+00  1.30000000E+00
  1.30000000E+00  1.30000000E+00  1.30000000E+00  1.30000000E+00  1.30000000E+00
  1.30000000E+00  1.30000000E+00  1.30000000E+00  1.30000000E+00  1.30000000E+00
  1.50000000E+00  1.70000000E+00  1.70000000E+00  1.70000000E+00  1.70000000E+00
  1.30000000E+00  1.30000000E+00  1.30000000E+00  1.70000000E+00  1.30000000E+00
  1.70000000E+00  1.30000000E+00  1.70000000E+00  1.30000000E+00  1.30000000E+00
  1.55000000E+00  1.70000000E+00  1.70000000E+00  1.70000000E+00  1.70000000E+00
  1.70000000E+00  1.70000000E+00  1.70000000E+00  1.30000000E+00  1.70000000E+00
  1.30000000E+00  1.70000000E+00  1.30000000E+00  1.70000000E+00  1.30000000E+00
  1.70000000E+00  1.70000000E+00  1.30000000E+00  1.70000000E+00  1.30000000E+00
  1.30000000E+00  1.70000000E+00  1.70000000E+00  1.70000000E+00  1.70000000E+00
  1.50000000E+00  1.70000000E+00  1.70000000E+00  1.70000000E+00  1.70000000E+00
  1.70000000E+00  1.70000000E+00  1.70000000E+00  1.70000000E+00  1.30000000E+00
  1.70000000E+00  1.30000000E+00  1.70000000E+00  1.30000000E+00  1.70000000E+00
  1.30000000E+00  1.70000000E+00  1.70000000E+00  1.30000000E+00  1.30000000E+00
  1.30000000E+00  1.30000000E+00  1.55000000E+00  1.55000000E+00  1.70000000E+00
  1.30000000E+00  1.55000000E+00  1.70000000E+00  1.30000000E+00  1.70000000E+00
  1.70000000E+00  1.70000000E+00  1.70000000E+00  1.30000000E+00  1.70000000E+00
  1.70000000E+00  1.30000000E+00  1.70000000E+00  1.70000000E+00  1.70000000E+00
  1.70000000E+00  1.70000000E+00  1.70000000E+00  1.70000000E+00  1.70000000E+00
  1.70000000E+00  1.70000000E+00  1.70000000E+00  1.70000000E+00  1.70000000E+00
  1.30000000E+00  1.70000000E+00  1.30000000E+00  1.30000000E+00  1.70000000E+00
  1.30000000E+00  1.70000000E+00  1.70000000E+00  1.30000000E+00  1.70000000E+00
  1.30000000E+00  1.70000000E+00  1.30000000E+00  1.70000000E+00  1.30000000E+00
  1.70000000E+00  1.30000000E+00  1.70000000E+00  1.30000000E+00  1.70000000E+00
  1.30000000E+00  1.70000000E+00  1.30000000E+00  1.70000000E+00  1.30000000E+00
  1.30000000E+00  1.70000000E+00  1.30000000E+00  1.30000000E+00  1.30000000E+00
  1.70000000E+00  1.30000000E+00  1.70000000E+00  1.30000000E+00  1.30000000E+00
  1.70000000E+00  1.30000000E+00  1.30000000E+00  1.70000000E+00  1.30000000E+00
  1.30000000E+00  1.50000000E+00  1.50000000E+00  1.50000000E+00  1.50000000E+00
  1.50000000E+00  1.50000000E+00  1.70000000E+00  1.70000000E+00  1.70000000E+00
  1.70000000E+00  1.70000000E+00  1.70000000E+00  1.30000000E+00  1.30000000E+00
  1.30000000E+00  1.30000000E+00  1.30000000E+00  1.30000000E+00  1.30000000E+00
  1.30000000E+00  1.30000000E+00  1.30000000E+00  1.30000000E+00  1.30000000E+00
  1.30000000E+00  1.30000000E+00  1.30000000E+00  1.30000000E+00  1.30000000E+00
  1.30000000E+00  1.50000000E+00  1.70000000E+00  1.70000000E+00  1.70000000E+00
  1.70000000E+00  1.30000000E+00  1.30000000E+00  1.30000000E+00  1.70000000E+00
  1.30000000E+00  1.70000000E+00  1.30000000E+00  1.70000000E+00  1.30000000E+00
  1.30000000E+00  1.55000000E+00  1.70000000E+00  1.70000000E+00  1.70000000E+00
  1.70000000E+00  1.70000000E+00  1.70000000E+00  1.70000000E+00  1.30000000E+00
  1.70000000E+00  1.30000000E+00  1.70000000E+00  1.30000000E+00  1.70000000E+00
  1.30000000E+00  1.70000000E+00  1.70000000E+00  1.30000000E+00  1.70000000E+00
  1.30000000E+00  1.30000000E+00  1.70000000E+00  1.70000000E+00  1.70000000E+00
  1.70000000E+00  1.50000000E+00  1.70000000E+00  1.70000000E+00  1.70000000E+00
  1.70000000E+00  1.70000000E+00  1.70000000E+00  1.70000000E+00  1.70000000E+00
  1.30000000E+00  1.70000000E+00  1.30000000E+00  1.70000000E+00  1.30000000E+00
  1.70000000E+00  1.30000000E+00  1.70000000E+00  1.70000000E+00  1.30000000E+00
  1.30000000E+00  1.30000000E+00  1.30000000E+00  1.55000000E+00  1.55000000E+00
  1.70000000E+00  1.30000000E+00  1.55000000E+00  1.70000000E+00  1.30000000E+00
  1.70000000E+00  1.70000000E+00  1.70000000E+00  1.70000000E+00  1.30000000E+00
  1.70000000E+00  1.70000000E+00  1.30000000E+00  1.70000000E+00  1.70000000E+00
  1.70000000E+00  1.70000000E+00  1.70000000E+00  1.70000000E+00  1.70000000E+00
  1.70000000E+00  1.70000000E+00  1.70000000E+00  1.70000000E+00  1.70000000E+00
  1.70000000E+00  1.30000000E+00  1.70000000E+00  1.30000000E+00  1.30000000E+00
  1.70000000E+00  1.30000000E+00  1.70000000E+00  1.70000000E+00  1.30000000E+00
  1.70000000E+00  1.30000000E+00  1.70000000E+00  1.30000000E+00  1.70000000E+00
  1.30000000E+00  1.70000000E+00  1.30000000E+00  1.70000000E+00  1.30000000E+00
  1.70000000E+00  1.30000000E+00  1.70000000E+00  1.30000000E+00  1.70000000E+00
  1.30000000E+00  1.30000000E+00  1.70000000E+00  1.30000000E+00  1.30000000E+00
  1.30000000E+00  1.70000000E+00  1.30000000E+00  1.70000000E+00  1.30000000E+00
  1.30000000E+00  1.70000000E+00  1.30000000E+00  1.30000000E+00  1.70000000E+00
  1.30000000E+00  1.30000000E+00  1.50000000E+00  1.50000000E+00  1.50000000E+00
  1.50000000E+00  1.50000000E+00  1.50000000E+00  1.70000000E+00  1.70000000E+00
  1.70000000E+00  1.70000000E+00  1.70000000E+00  1.70000000E+00  1.30000000E+00
  1.30000000E+00  1.30000000E+00  1.30000000E+00  1.30000000E+00  1.30000000E+00
  1.30000000E+00  1.30000000E+00  1.30000000E+00  1.30000000E+00  1.30000000E+00
  1.30000000E+00  1.30000000E+00  1.30000000E+00  1.30000000E+00  1.30000000E+00
  1.30000000E+00  1.30000000E+00  1.50000000E+00  1.70000000E+00  1.70000000E+00
  1.70000000E+00  1.70000000E+00  1.30000000E+00  1.30000000E+00  1.30000000E+00
  1.70000000E+00  1.30000000E+00  1.70000000E+00  1.30000000E+00  1.70000000E+00
  1.30000000E+00  1.30000000E+00  1.55000000E+00  1.70000000E+00  1.70000000E+00
  1.70000000E+00  1.70000000E+00  1.70000000E+00  1.70000000E+00  1.70000000E+00
  1.30000000E+00  1.70000000E+00  1.30000000E+00  1.70000000E+00  1.30000000E+00
  1.70000000E+00  1.30000000E+00  1.70000000E+00  1.70000000E+00  1.30000000E+00
  1.70000000E+00  1.30000000E+00  1.30000000E+00  1.70000000E+00  1.70000000E+00
  1.70000000E+00  1.70000000E+00  1.50000000E+00  1.70000000E+00  1.70000000E+00
  1.70000000E+00  1.70000000E+00  1.70000000E+00  1.70000000E+00  1.70000000E+00
  1.70000000E+00  1.30000000E+00  1.70000000E+00  1.30000000E+00  1.70000000E+00
  1.30000000E+00  1.70000000E+00  1.30000000E+00  1.70000000E+00  1.70000000E+00
  1.30000000E+00  1.30000000E+00  1.30000000E+00  1.30000000E+00  1.55000000E+00
  1.55000000E+00  1.70000000E+00  1.30000000E+00  1.55000000E+00  1.70000000E+00
  1.30000000E+00  1.70000000E+00  1.70000000E+00  1.70000000E+00  1.70000000E+00
  1.30000000E+00  1.70000000E+00  1.70000000E+00  1.30000000E+00  1.70000000E+00
  1.70000000E+00  1.70000000E+00  1.70000000E+00  1.70000000E+00  1.70000000E+00
  1.70000000E+00  1.70000000E+00  1.70000000E+00  1.70000000E+00  1.70000000E+00
  1.70000000E+00  1.70000000E+00  1.30000000E+00  1.70000000E+00  1.30000000E+00
  1.30000000E+00  1.70000000E+00  1.30000000E+00  1.70000000E+00  1.70000000E+00
  1.30000000E+00  1.70000000E+00  1.30000000E+00  1.70000000E+00  1.30000000E+00
  1.70000000E+00  1.30000000E+00  1.70000000E+00  1.30000000E+00  1.70000000E+00
  1.30000000E+00  1.70000000E+00  1.30000000E+00  1.70000000E+00  1.30000000E+00
  1.70000000E+00  1.30000000E+00  1.30000000E+00  1.70000000E+00  1.30000000E+00
  1.30000000E+00  1.30000000E+00  1.70000000E+00  1.30000000E+00  1.70000000E+00
  1.30000000E+00  1.30000000E+00  1.70000000E+00  1.30000000E+00  1.30000000E+00
  1.70000000E+00  1.30000000E+00  1.30000000E+00  1.50000000E+00  1.50000000E+00
  1.50000000E+00  1.50000000E+00  1.50000000E+00  1.50000000E+00  1.70000000E+00
  1.70000000E+00  1.70000000E+00  1.70000000E+00  1.70000000E+00  1.70000000E+00
  1.30000000E+00  1.30000000E+00  1.30000000E+00  1.30000000E+00  1.30000000E+00
  1.30000000E+00  1.30000000E+00  1.30000000E+00  1.30000000E+00  1.30000000E+00
  1.30000000E+00  1.30000000E+00  1.30000000E+00  1.30000000E+00  1.30000000E+00
  1.30000000E+00  1.30000000E+00  1.30000000E+00  1.50000000E+00  1.70000000E+00
  1.70000000E+00  1.70000000E+00  1.70000000E+00  1.30000000E+00  1.30000000E+00
  1.30000000E+00  1.70000000E+00  1.30000000E+00  1.70000000E+00  1.30000000E+00
  1.70000000E+00  1.30000000E+00  1.30000000E+00  1.55000000E+00  1.70000000E+00
  1.70000000E+00  1.70000000E+00  1.70000000E+00  1.70000000E+00  1.70000000E+00
  1.70000000E+00  1.30000000E+00  1.70000000E+00  1.30000000E+00  1.70000000E+00
  1.30000000E+00  1.70000000E+00  1.30000000E+00  1.70000000E+00  1.70000000E+00
  1.30000000E+00  1.70000000E+00  1.30000000E+00  1.30000000E+00  1.70000000E+00
  1.70000000E+00  1.70000000E+00  1.70000000E+00  1.50000000E+00  1.70000000E+00
  1.70000000E+00  1.70000000E+00  1.70000000E+00  1.70000000E+00  1.70000000E+00
  1.70000000E+00  1.70000000E+00  1.30000000E+00  1.70000000E+00  1.30000000E+00
  1.70000000E+00  1.30000000E+00  1.70000000E+00  1.30000000E+00  1.70000000E+00
  1.70000000E+00  1.30000000E+00  1.30000000E+00  1.30000000E+00  1.30000000E+00
  1.55000000E+00  1.55000000E+00  1.70000000E+00  1.30000000E+00  1.55000000E+00
  1.70000000E+00  1.30000000E+00  1.70000000E+00  1.70000000E+00  1.70000000E+00
  1.70000000E+00  1.30000000E+00  1.70000000E+00  1.70000000E+00  1.30000000E+00
  1.70000000E+00  1.70000000E+00  1.70000000E+00  1.70000000E+00  1.70000000E+00
  1.70000000E+00  1.70000000E+00  1.70000000E+00  1.70000000E+00  1.70000000E+00
  1.70000000E+00  1.70000000E+00  1.70000000E+00  1.30000000E+00  1.70000000E+00
  1.30000000E+00  1.30000000E+00  1.70000000E+00  1.30000000E+00  1.70000000E+00
  1.70000000E+00  1.30000000E+00  1.70000000E+00  1.30000000E+00  1.70000000E+00
  1.30000000E+00  1.70000000E+00  1.30000000E+00  1.70000000E+00  1.30000000E+00
  1.70000000E+00  1.30000000E+00  1.70000000E+00  1.30000000E+00  1.70000000E+00
  1.30000000E+00  1.70000000E+00  1.30000000E+00  1.30000000E+00  1.70000000E+00
  1.30000000E+00  1.30000000E+00  1.30000000E+00  1.70000000E+00  1.30000000E+00
  1.70000000E+00  1.30000000E+00  1.30000000E+00  1.70000000E+00  1.30000000E+00
  1.30000000E+00  1.70000000E+00  1.30000000E+00  1.30000000E+00  1.50000000E+00
  1.50000000E+00  1.50000000E+00  1.50000000E+00  1.50000000E+00  1.50000000E+00
  1.70000000E+00  1.70000000E+00  1.70000000E+00  1.70000000E+00  1.70000000E+00
  1.70000000E+00  1.30000000E+00  1.30000000E+00  1.30000000E+00  1.30000000E+00
  1.30000000E+00  1.30000000E+00  1.30000000E+00  1.30000000E+00  1.30000000E+00
  1.30000000E+00  1.30000000E+00  1.30000000E+00  1.30000000E+00  1.30000000E+00
  1.30000000E+00  1.30000000E+00  1.30000000E+00  1.30000000E+00  1.50000000E+00
  1.70000000E+00  1.70000000E+00  1.70000000E+00  1.70000000E+00  1.30000000E+00
  1.30000000E+00  1.30000000E+00  1.70000000E+00  1.30000000E+00  1.70000000E+00
  1.30000000E+00  1.70000000E+00  1.30000000E+00  1.30000000E+00  1.55000000E+00
  1.70000000E+00  1.70000000E+00  1.70000000E+00  1.70000000E+00  1.70000000E+00
  1.70000000E+00  1.70000000E+00  1.30000000E+00  1.70000000E+00  1.30000000E+00
  1.70000000E+00  1.30000000E+00  1.70000000E+00  1.30000000E+00  1.70000000E+00
  1.70000000E+00  1.30000000E+00  1.70000000E+00  1.30000000E+00  1.30000000E+00
  1.70000000E+00  1.70000000E+00  1.70000000E+00  1.70000000E+00  1.50000000E+00
  1.70000000E+00  1.70000000E+00  1.70000000E+00  1.70000000E+00  1.70000000E+00
  1.70000000E+00  1.70000000E+00  1.70000000E+00  1.30000000E+00  1.70000000E+00
  1.30000000E+00  1.70000000E+00  1.30000000E+00  1.70000000E+00  1.30000000E+00
  1.70000000E+00  1.70000000E+00  1.30000000E+00  1.30000000E+00  1.30000000E+00
  1.30000000E+00  1.55000000E+00  1.55000000E+00  1.70000000E+00  1.30000000E+00
  1.55000000E+00  1.70000000E+00  1.30000000E+00  1.70000000E+00  1.70000000E+00
  1.70000000E+00  1.70000000E+00  1.30000000E+00  1.70000000E+00  1.70000000E+00
  1.30000000E+00  1.70000000E+00  1.70000000E+00  1.70000000E+00  1.70000000E+00
  1.70000000E+00  1.70000000E+00  1.70000000E+00  1.70000000E+00  1.70000000E+00
  1.70000000E+00  1.70000000E+00  1.70000000E+00  1.70000000E+00  1.30000000E+00
  1.70000000E+00  1.30000000E+00  1.30000000E+00  1.70000000E+00  1.30000000E+00
  1.70000000E+00  1.70000000E+00  1.30000000E+00  1.70000000E+00  1.30000000E+00
  1.70000000E+00  1.30000000E+00  1.70000000E+00  1.30000000E+00  1.70000000E+00
  1.30000000E+00  1.70000000E+00  1.30000000E+00  1.70000000E+00  1.30000000E+00
  1.70000000E+00  1.30000000E+00  1.70000000E+00  1.30000000E+00  1.30000000E+00
  1.70000000E+00  1.30000000E+00  1.30000000E+00  1.30000000E+00  1.70000000E+00
  1.30000000E+00  1.70000000E+00  1.30000000E+00  1.30000000E+00  1.70000000E+00
  1.30000000E+00  1.30000000E+00  1.70000000E+00  1.30000000E+00  1.30000000E+00
  1.50000000E+00  1.50000000E+00  1.50000000E+00  1.50000000E+00  1.50000000E+00
  1.50000000E+00  1.70000000E+00  1.70000000E+00  1.70000000E+00  1.70000000E+00
  1.70000000E+00  1.70000000E+00  1.30000000E+00  1.30000000E+00  1.30000000E+00
  1.30000000E+00  1.30000000E+00  1.30000000E+00  1.30000000E+00  1.30000000E+00
  1.30000000E+00  1.30000000E+00  1.30000000E+00  1.30000000E+00  1.30000000E+00
  1.30000000E+00  1.30000000E+00  1.30000000E+00  1.30000000E+00  1.30000000E+00
  1.50000000E+00  1.70000000E+00  1.70000000E+00  1.70000000E+00  1.70000000E+00
  1.30000000E+00  1.30000000E+00  1.30000000E+00  1.70000000E+00  1.30000000E+00
  1.70000000E+00  1.30000000E+00  1.70000000E+00  1.30000000E+00  1.30000000E+00
  1.55000000E+00  1.70000000E+00  1.70000000E+00  1.70000000E+00  1.70000000E+00
  1.70000000E+00  1.70000000E+00  1.70000000E+00  1.30000000E+00  1.70000000E+00
  1.30000000E+00  1.70000000E+00  1.30000000E+00  1.70000000E+00  1.30000000E+00
  1.70000000E+00  1.70000000E+00  1.30000000E+00  1.70000000E+00  1.30000000E+00
  1.30000000E+00  1.70000000E+00  1.70000000E+00  1.70000000E+00  1.70000000E+00
  1.50000000E+00  1.70000000E+00  1.70000000E+00  1.70000000E+00  1.70000000E+00
  1.70000000E+00  1.70000000E+00  1.70000000E+00  1.70000000E+00  1.30000000E+00
  1.70000000E+00  1.30000000E+00  1.70000000E+00  1.30000000E+00  1.70000000E+00
  1.30000000E+00  1.70000000E+00  1.70000000E+00  1.30000000E+00  1.30000000E+00
  1.30000000E+00  1.30000000E+00  1.55000000E+00  1.55000000E+00  1.70000000E+00
  1.30000000E+00  1.55000000E+00  1.70000000E+00  1.30000000E+00  1.70000000E+00
  1.70000000E+00  1.70000000E+00  1.70000000E+00  1.30000000E+00  1.70000000E+00
  1.70000000E+00  1.30000000E+00  1.70000000E+00  1.70000000E+00  1.70000000E+00
  1.70000000E+00  1.70000000E+00  1.70000000E+00  1.70000000E+00  1.70000000E+00
  1.70000000E+00  1.70000000E+00  1.70000000E+00  1.70000000E+00  1.70000000E+00
  1.30000000E+00  1.70000000E+00  1.30000000E+00  1.30000000E+00  1.70000000E+00
  1.30000000E+00  1.70000000E+00  1.70000000E+00  1.30000000E+00  1.70000000E+00
  1.30000000E+00  1.70000000E+00  1.30000000E+00  1.70000000E+00  1.30000000E+00
  1.70000000E+00  1.30000000E+00  1.70000000E+00  1.30000000E+00  1.70000000E+00
  1.30000000E+00  1.70000000E+00  1.30000000E+00  1.70000000E+00  1.30000000E+00
  1.30000000E+00  1.70000000E+00  1.30000000E+00  1.30000000E+00  1.30000000E+00
  1.70000000E+00  1.30000000E+00  1.70000000E+00  1.30000000E+00  1.30000000E+00
  1.70000000E+00  1.30000000E+00  1.30000000E+00  1.70000000E+00  1.30000000E+00
  1.30000000E+00  1.50000000E+00  1.50000000E+00  1.50000000E+00  1.50000000E+00
  1.50000000E+00  1.50000000E+00  1.70000000E+00  1.70000000E+00  1.70000000E+00
  1.70000000E+00  1.70000000E+00  1.70000000E+00  1.30000000E+00  1.30000000E+00
  1.30000000E+00  1.30000000E+00  1.30000000E+00  1.30000000E+00  1.30000000E+00
  1.30000000E+00  1.30000000E+00  1.30000000E+00  1.30000000E+00  1.30000000E+00
  1.30000000E+00  1.30000000E+00  1.30000000E+00  1.30000000E+00  1.30000000E+00
  1.30000000E+00  1.50000000E+00  1.70000000E+00  1.70000000E+00  1.70000000E+00
  1.70000000E+00  1.30000000E+00  1.30000000E+00  1.30000000E+00  1.70000000E+00
  1.30000000E+00  1.70000000E+00  1.30000000E+00  1.70000000E+00  1.30000000E+00
  1.30000000E+00  1.55000000E+00  1.70000000E+00  1.70000000E+00  1.70000000E+00
  1.70000000E+00  1.70000000E+00  1.70000000E+00  1.70000000E+00  1.30000000E+00
  1.70000000E+00  1.30000000E+00  1.70000000E+00  1.30000000E+00  1.70000000E+00
  1.30000000E+00  1.70000000E+00  1.70000000E+00  1.30000000E+00  1.70000000E+00
  1.30000000E+00  1.30000000E+00  1.70000000E+00  1.70000000E+00  1.70000000E+00
  1.70000000E+00  1.50000000E+00  1.70000000E+00  1.70000000E+00  1.70000000E+00
  1.70000000E+00  1.70000000E+00  1.70000000E+00  1.70000000E+00  1.70000000E+00
  1.30000000E+00  1.70000000E+00  1.30000000E+00  1.70000000E+00  1.30000000E+00
  1.70000000E+00  1.30000000E+00  1.70000000E+00  1.70000000E+00  1.30000000E+00
  1.30000000E+00  1.30000000E+00  1.30000000E+00  1.55000000E+00  1.55000000E+00
  1.70000000E+00  1.30000000E+00  1.55000000E+00  1.70000000E+00  1.30000000E+00
  1.70000000E+00  1.70000000E+00  1.70000000E+00  1.70000000E+00  1.30000000E+00
  1.70000000E+00  1.70000000E+00  1.30000000E+00  1.70000000E+00  1.70000000E+00
  1.70000000E+00  1.70000000E+00  1.70000000E+00  1.70000000E+00  1.70000000E+00
  1.70000000E+00  1.70000000E+00  1.70000000E+00  1.70000000E+00  1.70000000E+00
  1.70000000E+00  1.30000000E+00  1.70000000E+00  1.30000000E+00  1.30000000E+00
  1.70000000E+00  1.30000000E+00  1.70000000E+00  1.70000000E+00  1.30000000E+00
  1.70000000E+00  1.30000000E+00  1.70000000E+00  1.30000000E+00  1.70000000E+00
  1.30000000E+00  1.70000000E+00  1.30000000E+00  1.70000000E+00  1.30000000E+00
  1.70000000E+00  1.30000000E+00  1.70000000E+00  1.30000000E+00  1.70000000E+00
  1.30000000E+00  1.30000000E+00  1.70000000E+00  1.30000000E+00  1.30000000E+00
  1.30000000E+00  1.70000000E+00  1.30000000E+00  1.70000000E+00  1.30000000E+00
  1.30000000E+00  1.70000000E+00  1.30000000E+00  1.30000000E+00  1.70000000E+00
  1.30000000E+00  1.30000000E+00  1.50000000E+00  1.50000000E+00  1.50000000E+00
  1.50000000E+00  1.50000000E+00  1.50000000E+00  1.70000000E+00  1.70000000E+00
  1.70000000E+00  1.70000000E+00  1.70000000E+00  1.70000000E+00  1.30000000E+00
  1.30000000E+00  1.30000000E+00  1.30000000E+00  1.30000000E+00  1.30000000E+00
  1.30000000E+00  1.30000000E+00  1.30000000E+00  1.30000000E+00  1.30000000E+00
  1.30000000E+00  1.30000000E+00  1.30000000E+00  1.30000000E+00  1.30000000E+00
  1.30000000E+00  1.30000000E+00  1.50000000E+00  1.70000000E+00  1.70000000E+00
  1.70000000E+00  1.70000000E+00  1.30000000E+00  1.30000000E+00  1.30000000E+00
  1.70000000E+00  1.30000000E+00  1.70000000E+00  1.30000000E+00  1.70000000E+00
  1.30000000E+00  1.30000000E+00  1.55000000E+00  1.70000000E+00  1.70000000E+00
  1.70000000E+00  1.70000000E+00  1.70000000E+00  1.70000000E+00  1.70000000E+00
  1.30000000E+00  1.70000000E+00  1.30000000E+00  1.70000000E+00  1.30000000E+00
  1.70000000E+00  1.30000000E+00  1.70000000E+00  1.70000000E+00  1.30000000E+00
  1.70000000E+00  1.30000000E+00  1.30000000E+00  1.70000000E+00  1.70000000E+00
  1.70000000E+00  1.70000000E+00  1.50000000E+00  1.70000000E+00  1.70000000E+00
  1.70000000E+00  1.70000000E+00  1.70000000E+00  1.70000000E+00  1.70000000E+00
  1.70000000E+00  1.30000000E+00  1.70000000E+00  1.30000000E+00  1.70000000E+00
  1.30000000E+00  1.70000000E+00  1.30000000E+00  1.70000000E+00  1.70000000E+00
  1.30000000E+00  1.30000000E+00  1.30000000E+00  1.30000000E+00  1.55000000E+00
  1.55000000E+00  1.70000000E+00  1.30000000E+00  1.55000000E+00  1.70000000E+00
  1.30000000E+00  1.70000000E+00  1.70000000E+00  1.70000000E+00  1.70000000E+00
  1.30000000E+00  1.70000000E+00  1.70000000E+00  1.30000000E+00  1.70000000E+00
  1.70000000E+00  1.70000000E+00  1.70000000E+00  1.70000000E+00  1.70000000E+00
  1.70000000E+00  1.70000000E+00  1.70000000E+00  1.70000000E+00  1.70000000E+00
  1.70000000E+00  1.70000000E+00  1.30000000E+00  1.70000000E+00  1.30000000E+00
  1.30000000E+00  1.70000000E+00  1.30000000E+00  1.70000000E+00  1.70000000E+00
  1.30000000E+00  1.70000000E+00  1.30000000E+00  1.70000000E+00  1.30000000E+00
  1.70000000E+00  1.30000000E+00  1.70000000E+00  1.30000000E+00  1.70000000E+00
  1.30000000E+00  1.70000000E+00  1.30000000E+00  1.70000000E+00  1.30000000E+00
  1.70000000E+00  1.30000000E+00  1.30000000E+00  1.70000000E+00  1.30000000E+00
  1.30000000E+00  1.30000000E+00  1.70000000E+00  1.30000000E+00  1.70000000E+00
  1.30000000E+00  1.30000000E+00  1.70000000E+00  1.30000000E+00  1.30000000E+00
  1.70000000E+00  1.30000000E+00  1.30000000E+00  1.50000000E+00  1.50000000E+00
  1.50000000E+00  1.50000000E+00  1.50000000E+00  1.50000000E+00  1.70000000E+00
  1.70000000E+00  1.70000000E+00  1.70000000E+00  1.70000000E+00  1.70000000E+00
  1.30000000E+00  1.30000000E+00  1.30000000E+00  1.30000000E+00  1.30000000E+00
  1.30000000E+00  1.30000000E+00  1.30000000E+00  1.30000000E+00  1.30000000E+00
  1.30000000E+00  1.30000000E+00  1.30000000E+00  1.30000000E+00  1.30000000E+00
  1.30000000E+00  1.30000000E+00  1.30000000E+00  1.50000000E+00  1.70000000E+00
  1.70000000E+00  1.70000000E+00  1.70000000E+00  1.30000000E+00  1.30000000E+00
  1.30000000E+00  1.70000000E+00  1.30000000E+00  1.70000000E+00  1.30000000E+00
  1.70000000E+00  1.30000000E+00  1.30000000E+00  1.55000000E+00  1.70000000E+00
  1.70000000E+00  1.70000000E+00  1.70000000E+00  1.70000000E+00  1.70000000E+00
  1.70000000E+00  1.30000000E+00  1.70000000E+00  1.30000000E+00  1.70000000E+00
  1.30000000E+00  1.70000000E+00  1.30000000E+00  1.70000000E+00  1.70000000E+00
  1.30000000E+00  1.70000000E+00  1.30000000E+00  1.30000000E+00  1.70000000E+00
  1.70000000E+00  1.70000000E+00  1.70000000E+00  1.50000000E+00  1.70000000E+00
  1.70000000E+00  1.70000000E+00  1.70000000E+00  1.70000000E+00  1.70000000E+00
  1.70000000E+00  1.70000000E+00  1.30000000E+00  1.70000000E+00  1.30000000E+00
  1.70000000E+00  1.30000000E+00  1.70000000E+00  1.30000000E+00  1.70000000E+00
  1.70000000E+00  1.30000000E+00  1.30000000E+00  1.30000000E+00  1.30000000E+00
  1.55000000E+00  1.55000000E+00  1.70000000E+00  1.30000000E+00  1.55000000E+00
  1.70000000E+00  1.30000000E+00  1.70000000E+00  1.70000000E+00  1.70000000E+00
  1.70000000E+00  1.30000000E+00  1.70000000E+00  1.70000000E+00  1.30000000E+00
  1.70000000E+00  1.70000000E+00  1.70000000E+00  1.70000000E+00  1.70000000E+00
  1.70000000E+00  1.70000000E+00  1.70000000E+00  1.70000000E+00  1.70000000E+00
  1.70000000E+00  1.70000000E+00  1.70000000E+00  1.30000000E+00  1.70000000E+00
  1.30000000E+00  1.30000000E+00  1.70000000E+00  1.30000000E+00  1.70000000E+00
  1.70000000E+00  1.30000000E+00  1.70000000E+00  1.30000000E+00  1.70000000E+00
  1.30000000E+00  1.70000000E+00  1.30000000E+00  1.70000000E+00  1.30000000E+00
  1.70000000E+00  1.30000000E+00  1.70000000E+00  1.30000000E+00  1.70000000E+00
  1.30000000E+00  1.70000000E+00  1.30000000E+00  1.30000000E+00  1.70000000E+00
  1.30000000E+00  1.30000000E+00  1.30000000E+00  1.70000000E+00  1.30000000E+00
  1.70000000E+00  1.30000000E+00  1.30000000E+00  1.70000000E+00  1.30000000E+00
  1.30000000E+00  1.70000000E+00  1.30000000E+00  1.30000000E+00  1.50000000E+00
  1.50000000E+00  1.50000000E+00  1.50000000E+00  1.50000000E+00  1.50000000E+00
  1.70000000E+00  1.70000000E+00  1.70000000E+00  1.70000000E+00  1.70000000E+00
  1.70000000E+00  1.30000000E+00  1.30000000E+00  1.30000000E+00  1.30000000E+00
  1.30000000E+00  1.30000000E+00  1.30000000E+00  1.30000000E+00  1.30000000E+00
  1.30000000E+00  1.30000000E+00  1.30000000E+00  1.30000000E+00  1.30000000E+00
  1.30000000E+00  1.30000000E+00  1.30000000E+00  1.30000000E+00  1.50000000E+00
  1.70000000E+00  1.70000000E+00  1.70000000E+00  1.70000000E+00  1.30000000E+00
  1.30000000E+00  1.30000000E+00  1.70000000E+00  1.30000000E+00  1.70000000E+00
  1.30000000E+00  1.70000000E+00  1.30000000E+00  1.30000000E+00  1.55000000E+00
  1.70000000E+00  1.70000000E+00  1.70000000E+00  1.70000000E+00  1.70000000E+00
  1.70000000E+00  1.70000000E+00  1.30000000E+00  1.70000000E+00  1.30000000E+00
  1.70000000E+00  1.30000000E+00  1.70000000E+00  1.30000000E+00  1.70000000E+00
  1.70000000E+00  1.30000000E+00  1.70000000E+00  1.30000000E+00  1.30000000E+00
  1.70000000E+00  1.70000000E+00  1.70000000E+00  1.70000000E+00  1.50000000E+00
  1.70000000E+00  1.70000000E+00  1.70000000E+00  1.70000000E+00  1.70000000E+00
  1.70000000E+00  1.70000000E+00  1.70000000E+00  1.30000000E+00  1.70000000E+00
  1.30000000E+00  1.70000000E+00  1.30000000E+00  1.70000000E+00  1.30000000E+00
  1.70000000E+00  1.70000000E+00  1.30000000E+00  1.30000000E+00  1.30000000E+00
  1.30000000E+00  1.55000000E+00  1.55000000E+00  1.70000000E+00  1.30000000E+00
  1.55000000E+00  1.70000000E+00  1.30000000E+00  1.70000000E+00  1.70000000E+00
  1.70000000E+00  1.70000000E+00  1.30000000E+00  1.70000000E+00  1.70000000E+00
  1.30000000E+00  1.70000000E+00  1.70000000E+00  1.70000000E+00  1.70000000E+00
  1.70000000E+00  1.70000000E+00  1.70000000E+00  1.70000000E+00  1.70000000E+00
  1.70000000E+00  1.70000000E+00  1.70000000E+00  1.70000000E+00  1.30000000E+00
  1.70000000E+00  1.30000000E+00  1.30000000E+00  1.70000000E+00  1.30000000E+00
  1.70000000E+00  1.70000000E+00  1.30000000E+00  1.70000000E+00  1.30000000E+00
  1.70000000E+00  1.30000000E+00  1.70000000E+00  1.30000000E+00  1.70000000E+00
  1.30000000E+00  1.70000000E+00  1.30000000E+00  1.70000000E+00  1.30000000E+00
  1.70000000E+00  1.30000000E+00  1.70000000E+00  1.30000000E+00  1.30000000E+00
  1.70000000E+00  1.30000000E+00  1.30000000E+00  1.30000000E+00  1.70000000E+00
  1.30000000E+00  1.70000000E+00  1.30000000E+00  1.30000000E+00  1.70000000E+00
  1.30000000E+00  1.30000000E+00  1.70000000E+00  1.30000000E+00  1.30000000E+00
  1.50000000E+00  1.50000000E+00  1.50000000E+00  1.50000000E+00  1.50000000E+00
  1.50000000E+00  1.70000000E+00  1.70000000E+00  1.70000000E+00  1.70000000E+00
  1.70000000E+00  1.70000000E+00  1.30000000E+00  1.30000000E+00  1.30000000E+00
  1.30000000E+00  1.30000000E+00  1.30000000E+00  1.30000000E+00  1.30000000E+00
  1.30000000E+00  1.30000000E+00  1.30000000E+00  1.30000000E+00  1.30000000E+00
  1.30000000E+00  1.30000000E+00  1.30000000E+00  1.30000000E+00  1.30000000E+00
  1.50000000E+00  1.70000000E+00  1.70000000E+00  1.70000000E+00  1.70000000E+00
  1.30000000E+00  1.30000000E+00  1.30000000E+00  1.70000000E+00  1.30000000E+00
  1.70000000E+00  1.30000000E+00  1.70000000E+00  1.30000000E+00  1.30000000E+00
  1.55000000E+00  1.70000000E+00  1.70000000E+00  1.70000000E+00  1.70000000E+00
  1.70000000E+00  1.70000000E+00  1.70000000E+00  1.30000000E+00  1.70000000E+00
  1.30000000E+00  1.70000000E+00  1.30000000E+00  1.70000000E+00  1.30000000E+00
  1.70000000E+00  1.70000000E+00  1.30000000E+00  1.70000000E+00  1.30000000E+00
  1.30000000E+00  1.70000000E+00  1.70000000E+00  1.70000000E+00  1.70000000E+00
  1.50000000E+00  1.70000000E+00  1.70000000E+00  1.70000000E+00  1.70000000E+00
  1.70000000E+00  1.70000000E+00  1.70000000E+00  1.70000000E+00  1.30000000E+00
  1.70000000E+00  1.30000000E+00  1.70000000E+00  1.30000000E+00  1.70000000E+00
  1.30000000E+00  1.70000000E+00  1.70000000E+00  1.30000000E+00  1.30000000E+00
  1.30000000E+00  1.30000000E+00  1.55000000E+00  1.55000000E+00  1.70000000E+00
  1.30000000E+00  1.55000000E+00  1.70000000E+00  1.30000000E+00  1.70000000E+00
  1.70000000E+00  1.70000000E+00  1.70000000E+00  1.30000000E+00  1.70000000E+00
  1.70000000E+00  1.30000000E+00  1.70000000E+00  1.70000000E+00  1.70000000E+00
  1.70000000E+00  1.70000000E+00  1.70000000E+00  1.70000000E+00  1.70000000E+00
  1.70000000E+00  1.70000000E+00  1.70000000E+00  1.70000000E+00  1.70000000E+00
  1.30000000E+00  1.70000000E+00  1.30000000E+00  1.30000000E+00  1.70000000E+00
  1.30000000E+00  1.70000000E+00  1.70000000E+00  1.30000000E+00  1.70000000E+00
  1.30000000E+00  1.70000000E+00  1.30000000E+00  1.70000000E+00  1.30000000E+00
  1.70000000E+00  1.30000000E+00  1.70000000E+00  1.30000000E+00  1.70000000E+00
  1.30000000E+00  1.70000000E+00  1.30000000E+00  1.70000000E+00  1.30000000E+00
  1.30000000E+00  1.70000000E+00  1.30000000E+00  1.30000000E+00  1.30000000E+00
  1.70000000E+00  1.30000000E+00  1.70000000E+00  1.30000000E+00  1.30000000E+00
  1.70000000E+00  1.30000000E+00  1.30000000E+00  1.70000000E+00  1.30000000E+00
  1.30000000E+00  1.50000000E+00  1.50000000E+00  1.50000000E+00  1.50000000E+00
  1.50000000E+00  1.50000000E+00  1.70000000E+00  1.70000000E+00  1.70000000E+00
  1.70000000E+00  1.70000000E+00  1.70000000E+00  1.30000000E+00  1.30000000E+00
  1.30000000E+00  1.30000000E+00  1.30000000E+00  1.30000000E+00  1.30000000E+00
  1.30000000E+00  1.30000000E+00  1.30000000E+00  1.30000000E+00  1.30000000E+00
  1.30000000E+00  1.30000000E+00  1.30000000E+00  1.30000000E+00  1.30000000E+00
  1.30000000E+00  1.50000000E+00  1.70000000E+00  1.70000000E+00  1.70000000E+00
  1.70000000E+00  1.30000000E+00  1.30000000E+00  1.30000000E+00  1.70000000E+00
  1.30000000E+00  1.70000000E+00  1.30000000E+00  1.70000000E+00  1.30000000E+00
  1.30000000E+00  1.55000000E+00  1.70000000E+00  1.70000000E+00  1.70000000E+00
  1.70000000E+00  1.70000000E+00  1.70000000E+00  1.70000000E+00  1.30000000E+00
  1.70000000E+00  1.30000000E+00  1.70000000E+00  1.30000000E+00  1.70000000E+00
  1.30000000E+00  1.70000000E+00  1.70000000E+00  1.30000000E+00  1.70000000E+00
  1.30000000E+00  1.30000000E+00  1.70000000E+00  1.70000000E+00  1.70000000E+00
  1.70000000E+00  1.50000000E+00  1.70000000E+00  1.70000000E+00  1.70000000E+00
  1.70000000E+00  1.70000000E+00  1.70000000E+00  1.70000000E+00  1.70000000E+00
  1.30000000E+00  1.70000000E+00  1.30000000E+00  1.70000000E+00  1.30000000E+00
  1.70000000E+00  1.30000000E+00  1.70000000E+00  1.70000000E+00  1.30000000E+00
  1.30000000E+00  1.30000000E+00  1.30000000E+00  1.55000000E+00  1.55000000E+00
  1.70000000E+00  1.30000000E+00  1.55000000E+00  1.70000000E+00  1.30000000E+00
  1.70000000E+00  1.70000000E+00  1.70000000E+00  1.70000000E+00  1.30000000E+00
  1.70000000E+00  1.70000000E+00  1.30000000E+00  1.70000000E+00  1.70000000E+00
  1.70000000E+00  1.70000000E+00  1.70000000E+00  1.70000000E+00  1.70000000E+00
  1.70000000E+00  1.70000000E+00  1.70000000E+00  1.70000000E+00  1.70000000E+00
  1.70000000E+00  1.30000000E+00  1.70000000E+00  1.30000000E+00  1.30000000E+00
  1.70000000E+00  1.30000000E+00  1.70000000E+00  1.70000000E+00  1.30000000E+00
  1.70000000E+00  1.30000000E+00  1.70000000E+00  1.30000000E+00  1.70000000E+00
  1.30000000E+00  1.70000000E+00  1.30000000E+00  1.70000000E+00  1.30000000E+00
  1.70000000E+00  1.30000000E+00  1.70000000E+00  1.30000000E+00  1.70000000E+00
  1.30000000E+00  1.30000000E+00  1.70000000E+00  1.30000000E+00  1.30000000E+00
  1.30000000E+00  1.70000000E+00  1.30000000E+00  1.70000000E+00  1.30000000E+00
  1.30000000E+00  1.70000000E+00  1.30000000E+00  1.30000000E+00  1.70000000E+00
  1.30000000E+00  1.30000000E+00  1.50000000E+00  1.50000000E+00  1.50000000E+00
  1.50000000E+00  1.50000000E+00  1.50000000E+00  1.70000000E+00  1.70000000E+00
  1.70000000E+00  1.70000000E+00  1.70000000E+00  1.70000000E+00  1.30000000E+00
  1.30000000E+00  1.30000000E+00  1.30000000E+00  1.30000000E+00  1.30000000E+00
  1.30000000E+00  1.30000000E+00  1.30000000E+00  1.30000000E+00  1.30000000E+00
  1.30000000E+00  1.30000000E+00  1.30000000E+00  1.30000000E+00  1.30000000E+00
  1.30000000E+00  1.30000000E+00  1.50000000E+00  1.70000000E+00  1.70000000E+00
  1.70000000E+00  1.70000000E+00  1.30000000E+00  1.30000000E+00  1.30000000E+00
  1.70000000E+00  1.30000000E+00  1.70000000E+00  1.30000000E+00  1.70000000E+00
  1.30000000E+00  1.30000000E+00  1.55000000E+00  1.70000000E+00  1.70000000E+00
  1.70000000E+00  1.70000000E+00  1.70000000E+00  1.70000000E+00  1.70000000E+00
  1.30000000E+00  1.70000000E+00  1.30000000E+00  1.70000000E+00  1.30000000E+00
  1.70000000E+00  1.30000000E+00  1.70000000E+00  1.70000000E+00  1.30000000E+00
  1.70000000E+00  1.30000000E+00  1.30000000E+00  1.70000000E+00  1.70000000E+00
  1.70000000E+00  1.70000000E+00  1.50000000E+00  1.70000000E+00  1.70000000E+00
  1.70000000E+00  1.70000000E+00  1.70000000E+00  1.70000000E+00  1.70000000E+00
  1.70000000E+00  1.30000000E+00  1.70000000E+00  1.30000000E+00  1.70000000E+00
  1.30000000E+00  1.70000000E+00  1.30000000E+00  1.70000000E+00  1.70000000E+00
  1.30000000E+00  1.30000000E+00  1.30000000E+00  1.30000000E+00  1.55000000E+00
  1.55000000E+00  1.70000000E+00  1.30000000E+00  1.55000000E+00  1.70000000E+00
  1.30000000E+00  1.70000000E+00  1.70000000E+00  1.70000000E+00  1.70000000E+00
  1.30000000E+00  1.70000000E+00  1.70000000E+00  1.30000000E+00  1.70000000E+00
  1.70000000E+00  1.70000000E+00  1.70000000E+00  1.70000000E+00  1.70000000E+00
  1.70000000E+00  1.70000000E+00  1.70000000E+00  1.70000000E+00  1.70000000E+00
  1.70000000E+00  1.70000000E+00  1.30000000E+00  1.70000000E+00  1.30000000E+00
  1.30000000E+00  1.70000000E+00  1.30000000E+00  1.70000000E+00  1.70000000E+00
  1.30000000E+00  1.70000000E+00  1.30000000E+00  1.70000000E+00  1.30000000E+00
  1.70000000E+00  1.30000000E+00  1.70000000E+00  1.30000000E+00  1.70000000E+00
  1.30000000E+00  1.70000000E+00  1.30000000E+00  1.70000000E+00  1.30000000E+00
  1.70000000E+00  1.30000000E+00  1.30000000E+00  1.70000000E+00  1.30000000E+00
  1.30000000E+00  1.30000000E+00  1.70000000E+00  1.30000000E+00  1.70000000E+00
  1.30000000E+00  1.30000000E+00  1.70000000E+00  1.30000000E+00  1.30000000E+00
  1.70000000E+00  1.30000000E+00  1.30000000E+00  1.50000000E+00  1.50000000E+00
  1.50000000E+00  1.50000000E+00  1.50000000E+00  1.50000000E+00  1.70000000E+00
  1.70000000E+00  1.70000000E+00  1.70000000E+00  1.70000000E+00  1.70000000E+00
  1.30000000E+00  1.30000000E+00  1.30000000E+00  1.30000000E+00  1.30000000E+00
  1.30000000E+00  1.30000000E+00  1.30000000E+00  1.30000000E+00  1.30000000E+00
  1.30000000E+00  1.30000000E+00  1.30000000E+00  1.30000000E+00  1.30000000E+00
  1.30000000E+00  1.30000000E+00  1.30000000E+00  1.50000000E+00  1.70000000E+00
  1.70000000E+00  1.70000000E+00  1.70000000E+00  1.30000000E+00  1.30000000E+00
  1.30000000E+00  1.70000000E+00  1.30000000E+00  1.70000000E+00  1.30000000E+00
  1.70000000E+00  1.30000000E+00  1.30000000E+00  1.55000000E+00  1.70000000E+00
  1.70000000E+00  1.70000000E+00  1.70000000E+00  1.70000000E+00  1.70000000E+00
  1.70000000E+00  1.30000000E+00  1.70000000E+00  1.30000000E+00  1.70000000E+00
  1.30000000E+00  1.70000000E+00  1.30000000E+00  1.70000000E+00  1.70000000E+00
  1.30000000E+00  1.70000000E+00  1.30000000E+00  1.30000000E+00  1.70000000E+00
  1.70000000E+00  1.70000000E+00  1.70000000E+00  1.50000000E+00  1.70000000E+00
  1.70000000E+00  1.70000000E+00  1.70000000E+00  1.70000000E+00  1.70000000E+00
  1.70000000E+00  1.70000000E+00  1.30000000E+00  1.70000000E+00  1.30000000E+00
  1.70000000E+00  1.30000000E+00  1.70000000E+00  1.30000000E+00  1.70000000E+00
  1.70000000E+00  1.30000000E+00  1.30000000E+00  1.30000000E+00  1.30000000E+00
  1.55000000E+00  1.55000000E+00  1.70000000E+00  1.30000000E+00  1.55000000E+00
  1.70000000E+00  1.30000000E+00  1.70000000E+00  1.70000000E+00  1.70000000E+00
  1.70000000E+00  1.30000000E+00  1.70000000E+00  1.70000000E+00  1.30000000E+00
  1.70000000E+00  1.70000000E+00  1.70000000E+00  1.70000000E+00  1.70000000E+00
  1.70000000E+00  1.70000000E+00  1.70000000E+00  1.70000000E+00  1.70000000E+00
  1.70000000E+00  1.70000000E+00  1.70000000E+00  1.30000000E+00  1.70000000E+00
  1.30000000E+00  1.30000000E+00  1.70000000E+00  1.30000000E+00  1.70000000E+00
  1.70000000E+00  1.30000000E+00  1.70000000E+00  1.30000000E+00  1.70000000E+00
  1.30000000E+00  1.70000000E+00  1.30000000E+00  1.70000000E+00  1.30000000E+00
  1.70000000E+00  1.30000000E+00  1.70000000E+00  1.30000000E+00  1.70000000E+00
  1.30000000E+00  1.70000000E+00  1.30000000E+00  1.30000000E+00  1.70000000E+00
  1.30000000E+00  1.30000000E+00  1.30000000E+00  1.70000000E+00  1.30000000E+00
  1.70000000E+00  1.30000000E+00  1.30000000E+00  1.70000000E+00  1.30000000E+00
  1.30000000E+00  1.70000000E+00  1.30000000E+00  1.30000000E+00  1.50000000E+00
  1.50000000E+00  1.50000000E+00  1.50000000E+00  1.50000000E+00  1.50000000E+00
  1.70000000E+00  1.70000000E+00  1.70000000E+00  1.70000000E+00  1.70000000E+00
  1.70000000E+00  1.30000000E+00  1.30000000E+00  1.30000000E+00  1.30000000E+00
  1.30000000E+00  1.30000000E+00  1.30000000E+00  1.30000000E+00  1.30000000E+00
  1.30000000E+00  1.30000000E+00  1.30000000E+00  1.30000000E+00  1.30000000E+00
  1.30000000E+00  1.30000000E+00  1.30000000E+00  1.30000000E+00  1.50000000E+00
  1.70000000E+00  1.70000000E+00  1.70000000E+00  1.70000000E+00  1.30000000E+00
  1.30000000E+00  1.30000000E+00  1.70000000E+00  1.30000000E+00  1.70000000E+00
  1.30000000E+00  1.70000000E+00  1.30000000E+00  1.30000000E+00  1.55000000E+00
  1.70000000E+00  1.70000000E+00  1.70000000E+00  1.70000000E+00  1.70000000E+00
  1.70000000E+00  1.70000000E+00  1.30000000E+00  1.70000000E+00  1.30000000E+00
  1.70000000E+00  1.30000000E+00  1.70000000E+00  1.30000000E+00  1.70000000E+00
  1.70000000E+00  1.30000000E+00  1.70000000E+00  1.30000000E+00  1.30000000E+00
  1.70000000E+00  1.70000000E+00  1.70000000E+00  1.70000000E+00  1.50000000E+00
  1.70000000E+00  1.70000000E+00  1.70000000E+00  1.70000000E+00  1.70000000E+00
  1.70000000E+00  1.70000000E+00  1.70000000E+00  1.30000000E+00  1.70000000E+00
  1.30000000E+00  1.70000000E+00  1.30000000E+00  1.70000000E+00  1.30000000E+00
  1.70000000E+00  1.70000000E+00  1.30000000E+00  1.30000000E+00  1.30000000E+00
  1.30000000E+00  1.55000000E+00  1.55000000E+00  1.70000000E+00  1.30000000E+00
  1.55000000E+00  1.70000000E+00  1.30000000E+00  1.70000000E+00  1.70000000E+00
  1.70000000E+00  1.70000000E+00  1.30000000E+00  1.70000000E+00  1.70000000E+00
  1.30000000E+00  1.70000000E+00  1.70000000E+00  1.70000000E+00  1.70000000E+00
  1.70000000E+00  1.70000000E+00  1.70000000E+00  1.70000000E+00  1.70000000E+00
  1.70000000E+00  1.70000000E+00  1.70000000E+00  1.70000000E+00  1.30000000E+00
  1.70000000E+00  1.30000000E+00  1.30000000E+00  1.70000000E+00  1.30000000E+00
  1.70000000E+00  1.70000000E+00  1.30000000E+00  1.70000000E+00  1.30000000E+00
  1.70000000E+00  1.30000000E+00  1.70000000E+00  1.30000000E+00  1.70000000E+00
  1.30000000E+00  1.70000000E+00  1.30000000E+00  1.70000000E+00  1.30000000E+00
  1.70000000E+00  1.30000000E+00  1.70000000E+00  1.30000000E+00  1.30000000E+00
  1.70000000E+00  1.30000000E+00  1.30000000E+00  1.30000000E+00  1.70000000E+00
  1.30000000E+00  1.70000000E+00  1.30000000E+00  1.30000000E+00  1.70000000E+00
  1.30000000E+00  1.30000000E+00  1.70000000E+00  1.30000000E+00  1.30000000E+00
  1.50000000E+00  1.50000000E+00  1.50000000E+00  1.50000000E+00  1.50000000E+00
  1.50000000E+00  1.70000000E+00  1.70000000E+00  1.70000000E+00  1.70000000E+00
  1.70000000E+00  1.70000000E+00  1.30000000E+00  1.30000000E+00  1.30000000E+00
  1.30000000E+00  1.30000000E+00  1.30000000E+00  1.30000000E+00  1.30000000E+00
  1.30000000E+00  1.30000000E+00  1.30000000E+00  1.30000000E+00  1.30000000E+00
  1.30000000E+00  1.30000000E+00  1.30000000E+00  1.30000000E+00  1.30000000E+00
  1.50000000E+00  1.70000000E+00  1.70000000E+00  1.70000000E+00  1.70000000E+00
  1.30000000E+00  1.30000000E+00  1.30000000E+00  1.70000000E+00  1.30000000E+00
  1.70000000E+00  1.30000000E+00  1.70000000E+00  1.30000000E+00  1.30000000E+00
  1.55000000E+00  1.70000000E+00  1.70000000E+00  1.70000000E+00  1.70000000E+00
  1.70000000E+00  1.70000000E+00  1.70000000E+00  1.30000000E+00  1.70000000E+00
  1.30000000E+00  1.70000000E+00  1.30000000E+00  1.70000000E+00  1.30000000E+00
  1.70000000E+00  1.70000000E+00  1.30000000E+00  1.70000000E+00  1.30000000E+00
  1.30000000E+00  1.70000000E+00  1.70000000E+00  1.70000000E+00  1.70000000E+00
  1.50000000E+00  1.70000000E+00  1.70000000E+00  1.70000000E+00  1.70000000E+00
  1.70000000E+00  1.70000000E+00  1.70000000E+00  1.70000000E+00  1.30000000E+00
  1.70000000E+00  1.30000000E+00  1.70000000E+00  1.30000000E+00  1.70000000E+00
  1.30000000E+00  1.70000000E+00  1.70000000E+00  1.30000000E+00  1.30000000E+00
  1.30000000E+00  1.30000000E+00  1.55000000E+00  1.55000000E+00  1.70000000E+00
  1.30000000E+00  1.55000000E+00  1.70000000E+00  1.30000000E+00  1.70000000E+00
  1.70000000E+00  1.70000000E+00  1.70000000E+00  1.30000000E+00  1.70000000E+00
  1.70000000E+00  1.30000000E+00  1.70000000E+00  1.70000000E+00  1.70000000E+00
  1.70000000E+00  1.70000000E+00  1.70000000E+00  1.70000000E+00  1.70000000E+00
  1.70000000E+00  1.70000000E+00  1.70000000E+00  1.70000000E+00  1.70000000E+00
  1.30000000E+00  1.70000000E+00  1.30000000E+00  1.30000000E+00  1.70000000E+00
  1.30000000E+00  1.70000000E+00  1.70000000E+00  1.30000000E+00  1.70000000E+00
  1.30000000E+00  1.70000000E+00  1.30000000E+00  1.70000000E+00  1.30000000E+00
  1.70000000E+00  1.30000000E+00  1.70000000E+00  1.30000000E+00  1.70000000E+00
  1.30000000E+00  1.70000000E+00  1.30000000E+00  1.70000000E+00  1.30000000E+00
  1.30000000E+00  1.70000000E+00  1.30000000E+00  1.30000000E+00  1.30000000E+00
  1.70000000E+00  1.30000000E+00  1.70000000E+00  1.30000000E+00  1.30000000E+00
  1.70000000E+00  1.30000000E+00  1.30000000E+00  1.70000000E+00  1.30000000E+00
  1.30000000E+00  1.50000000E+00  1.50000000E+00  1.50000000E+00  1.50000000E+00
  1.50000000E+00  1.50000000E+00  1.70000000E+00  1.70000000E+00  1.70000000E+00
  1.70000000E+00  1.70000000E+00  1.70000000E+00  1.30000000E+00  1.30000000E+00
  1.30000000E+00  1.30000000E+00  1.30000000E+00  1.30000000E+00  1.30000000E+00
  1.30000000E+00  1.30000000E+00  1.30000000E+00  1.30000000E+00  1.30000000E+00
  1.30000000E+00  1.30000000E+00  1.30000000E+00  1.30000000E+00  1.30000000E+00
  1.30000000E+00  1.50000000E+00  1.70000000E+00  1.70000000E+00  1.70000000E+00
  1.70000000E+00  1.30000000E+00  1.30000000E+00  1.30000000E+00  1.70000000E+00
  1.30000000E+00  1.70000000E+00  1.30000000E+00  1.70000000E+00  1.30000000E+00
  1.30000000E+00  1.55000000E+00  1.70000000E+00  1.70000000E+00  1.70000000E+00
  1.70000000E+00  1.70000000E+00  1.70000000E+00  1.70000000E+00  1.30000000E+00
  1.70000000E+00  1.30000000E+00  1.70000000E+00  1.30000000E+00  1.70000000E+00
  1.30000000E+00  1.70000000E+00  1.70000000E+00  1.30000000E+00  1.70000000E+00
  1.30000000E+00  1.30000000E+00  1.70000000E+00  1.70000000E+00  1.70000000E+00
  1.70000000E+00  1.50000000E+00  1.70000000E+00  1.70000000E+00  1.70000000E+00
  1.70000000E+00  1.70000000E+00  1.70000000E+00  1.70000000E+00  1.70000000E+00
  1.30000000E+00  1.70000000E+00  1.30000000E+00  1.70000000E+00  1.30000000E+00
  1.70000000E+00  1.30000000E+00  1.70000000E+00  1.70000000E+00  1.30000000E+00
  1.30000000E+00  1.30000000E+00  1.30000000E+00  1.55000000E+00  1.55000000E+00
  1.70000000E+00  1.30000000E+00  1.55000000E+00  1.70000000E+00  1.30000000E+00
  1.70000000E+00  1.70000000E+00  1.70000000E+00  1.70000000E+00  1.30000000E+00
  1.70000000E+00  1.70000000E+00  1.30000000E+00  1.70000000E+00  1.70000000E+00
  1.70000000E+00  1.70000000E+00  1.70000000E+00  1.70000000E+00  1.70000000E+00
  1.70000000E+00  1.70000000E+00  1.70000000E+00  1.70000000E+00  1.70000000E+00
  1.70000000E+00  1.30000000E+00  1.70000000E+00  1.30000000E+00  1.30000000E+00
  1.70000000E+00  1.30000000E+00  1.70000000E+00  1.70000000E+00  1.30000000E+00
  1.70000000E+00  1.30000000E+00  1.70000000E+00  1.30000000E+00  1.70000000E+00
  1.30000000E+00  1.70000000E+00  1.30000000E+00  1.70000000E+00  1.30000000E+00
  1.70000000E+00  1.30000000E+00  1.70000000E+00  1.30000000E+00  1.70000000E+00
  1.30000000E+00  1.30000000E+00  1.70000000E+00  1.30000000E+00  1.30000000E+00
  1.30000000E+00  1.70000000E+00  1.30000000E+00  1.70000000E+00  1.30000000E+00
  1.30000000E+00  1.70000000E+00  1.30000000E+00  1.30000000E+00  1.70000000E+00
  1.30000000E+00  1.30000000E+00  1.50000000E+00  1.50000000E+00  1.50000000E+00
  1.50000000E+00  1.50000000E+00  1.50000000E+00  1.70000000E+00  1.70000000E+00
  1.70000000E+00  1.70000000E+00  1.70000000E+00  1.70000000E+00  1.30000000E+00
  1.30000000E+00  1.30000000E+00  1.30000000E+00  1.30000000E+00  1.30000000E+00
  1.30000000E+00  1.30000000E+00  1.30000000E+00  1.30000000E+00  1.30000000E+00
  1.30000000E+00  1.30000000E+00  1.30000000E+00  1.30000000E+00  1.30000000E+00
  1.30000000E+00  1.30000000E+00  1.50000000E+00  1.70000000E+00  1.70000000E+00
  1.70000000E+00  1.70000000E+00  1.30000000E+00  1.30000000E+00  1.30000000E+00
  1.70000000E+00  1.30000000E+00  1.70000000E+00  1.30000000E+00  1.70000000E+00
  1.30000000E+00  1.30000000E+00  1.55000000E+00  1.70000000E+00  1.70000000E+00
  1.70000000E+00  1.70000000E+00  1.70000000E+00  1.70000000E+00  1.70000000E+00
  1.30000000E+00  1.70000000E+00  1.30000000E+00  1.70000000E+00  1.30000000E+00
  1.70000000E+00  1.30000000E+00  1.70000000E+00  1.70000000E+00  1.30000000E+00
  1.70000000E+00  1.30000000E+00  1.30000000E+00  1.70000000E+00  1.70000000E+00
  1.70000000E+00  1.70000000E+00  1.50000000E+00  1.70000000E+00  1.70000000E+00
  1.70000000E+00  1.70000000E+00  1.70000000E+00  1.70000000E+00  1.70000000E+00
  1.70000000E+00  1.30000000E+00  1.70000000E+00  1.30000000E+00  1.70000000E+00
  1.30000000E+00  1.70000000E+00  1.30000000E+00  1.70000000E+00  1.70000000E+00
  1.30000000E+00  1.30000000E+00  1.30000000E+00  1.30000000E+00  1.55000000E+00
  1.55000000E+00  1.70000000E+00  1.30000000E+00  1.55000000E+00  1.70000000E+00
  1.30000000E+00  1.70000000E+00  1.70000000E+00  1.70000000E+00  1.70000000E+00
  1.30000000E+00  1.70000000E+00  1.70000000E+00  1.30000000E+00  1.70000000E+00
  1.70000000E+00  1.70000000E+00  1.70000000E+00  1.70000000E+00  1.70000000E+00
  1.70000000E+00  1.70000000E+00  1.70000000E+00  1.70000000E+00  1.70000000E+00
  1.70000000E+00  1.70000000E+00  1.30000000E+00  1.70000000E+00  1.30000000E+00
  1.30000000E+00  1.70000000E+00  1.30000000E+00  1.70000000E+00  1.70000000E+00
  1.30000000E+00  1.70000000E+00  1.30000000E+00  1.70000000E+00  1.30000000E+00
  1.70000000E+00  1.30000000E+00  1.70000000E+00  1.30000000E+00  1.70000000E+00
  1.30000000E+00  1.70000000E+00  1.30000000E+00  1.70000000E+00  1.30000000E+00
  1.70000000E+00  1.30000000E+00  1.30000000E+00  1.70000000E+00  1.30000000E+00
  1.30000000E+00  1.30000000E+00  1.70000000E+00  1.30000000E+00  1.70000000E+00
  1.30000000E+00  1.30000000E+00  1.70000000E+00  1.30000000E+00  1.30000000E+00
  1.70000000E+00  1.30000000E+00  1.30000000E+00  1.50000000E+00  1.50000000E+00
  1.50000000E+00  1.50000000E+00  1.50000000E+00  1.50000000E+00  1.70000000E+00
  1.70000000E+00  1.70000000E+00  1.70000000E+00  1.70000000E+00  1.70000000E+00
  1.30000000E+00  1.30000000E+00  1.30000000E+00  1.30000000E+00  1.30000000E+00
  1.30000000E+00  1.30000000E+00  1.30000000E+00  1.30000000E+00  1.30000000E+00
  1.30000000E+00  1.30000000E+00  1.30000000E+00  1.30000000E+00  1.30000000E+00
  1.30000000E+00  1.30000000E+00  1.30000000E+00  1.50000000E+00  1.70000000E+00
  1.70000000E+00  1.70000000E+00  1.70000000E+00  1.30000000E+00  1.30000000E+00
  1.30000000E+00  1.70000000E+00  1.30000000E+00  1.70000000E+00  1.30000000E+00
  1.70000000E+00  1.30000000E+00  1.30000000E+00  1.55000000E+00  1.70000000E+00
  1.70000000E+00  1.70000000E+00  1.70000000E+00  1.70000000E+00  1.70000000E+00
  1.70000000E+00  1.30000000E+00  1.70000000E+00  1.30000000E+00  1.70000000E+00
  1.30000000E+00  1.70000000E+00  1.30000000E+00  1.70000000E+00  1.70000000E+00
  1.30000000E+00  1.70000000E+00  1.30000000E+00  1.30000000E+00  1.70000000E+00
  1.70000000E+00  1.70000000E+00  1.70000000E+00  1.50000000E+00  1.70000000E+00
  1.70000000E+00  1.70000000E+00  1.70000000E+00  1.70000000E+00  1.70000000E+00
  1.70000000E+00  1.70000000E+00  1.30000000E+00  1.70000000E+00  1.30000000E+00
  1.70000000E+00  1.30000000E+00  1.70000000E+00  1.30000000E+00  1.70000000E+00
  1.70000000E+00  1.30000000E+00  1.30000000E+00  1.30000000E+00  1.30000000E+00
  1.55000000E+00  1.55000000E+00  1.70000000E+00  1.30000000E+00  1.55000000E+00
  1.70000000E+00  1.30000000E+00  1.70000000E+00  1.70000000E+00  1.70000000E+00
  1.70000000E+00  1.30000000E+00  1.70000000E+00  1.70000000E+00  1.30000000E+00
  1.70000000E+00  1.70000000E+00  1.70000000E+00  1.70000000E+00  1.70000000E+00
  1.70000000E+00  1.70000000E+00  1.70000000E+00  1.70000000E+00  1.70000000E+00
  1.70000000E+00  1.70000000E+00  1.70000000E+00  1.30000000E+00  1.70000000E+00
  1.30000000E+00  1.30000000E+00  1.70000000E+00  1.30000000E+00  1.70000000E+00
  1.70000000E+00  1.30000000E+00  1.70000000E+00  1.30000000E+00  1.70000000E+00
  1.30000000E+00  1.70000000E+00  1.30000000E+00  1.70000000E+00  1.30000000E+00
  1.70000000E+00  1.30000000E+00  1.70000000E+00  1.30000000E+00  1.70000000E+00
  1.30000000E+00  1.70000000E+00  1.30000000E+00  1.30000000E+00  1.70000000E+00
  1.30000000E+00  1.30000000E+00  1.30000000E+00  1.70000000E+00  1.30000000E+00
  1.70000000E+00  1.30000000E+00  1.30000000E+00  1.70000000E+00  1.30000000E+00
  1.30000000E+00  1.70000000E+00  1.30000000E+00  1.30000000E+00  1.50000000E+00
  1.50000000E+00  1.50000000E+00  1.50000000E+00  1.50000000E+00  1.50000000E+00
  1.70000000E+00  1.70000000E+00  1.70000000E+00  1.70000000E+00  1.70000000E+00
  1.70000000E+00  1.30000000E+00  1.30000000E+00  1.30000000E+00  1.30000000E+00
  1.30000000E+00  1.30000000E+00  1.30000000E+00  1.30000000E+00  1.30000000E+00
  1.30000000E+00  1.30000000E+00  1.30000000E+00  1.30000000E+00  1.30000000E+00
  1.30000000E+00  1.30000000E+00  1.30000000E+00  1.30000000E+00  1.50000000E+00
  1.70000000E+00  1.70000000E+00  1.70000000E+00  1.70000000E+00  1.30000000E+00
  1.30000000E+00  1.30000000E+00  1.70000000E+00  1.30000000E+00  1.70000000E+00
  1.30000000E+00  1.70000000E+00  1.30000000E+00  1.30000000E+00  1.55000000E+00
  1.70000000E+00  1.70000000E+00  1.70000000E+00  1.70000000E+00  1.70000000E+00
  1.70000000E+00  1.70000000E+00  1.30000000E+00  1.70000000E+00  1.30000000E+00
  1.70000000E+00  1.30000000E+00  1.70000000E+00  1.30000000E+00  1.70000000E+00
  1.70000000E+00  1.30000000E+00  1.70000000E+00  1.30000000E+00  1.30000000E+00
  1.70000000E+00  1.70000000E+00  1.70000000E+00  1.70000000E+00  1.50000000E+00
  1.70000000E+00  1.70000000E+00  1.70000000E+00  1.70000000E+00  1.70000000E+00
  1.70000000E+00  1.70000000E+00  1.70000000E+00  1.30000000E+00  1.70000000E+00
  1.30000000E+00  1.70000000E+00  1.30000000E+00  1.70000000E+00  1.30000000E+00
  1.70000000E+00  1.70000000E+00  1.30000000E+00  1.30000000E+00  1.30000000E+00
  1.30000000E+00  1.55000000E+00  1.55000000E+00  1.70000000E+00  1.30000000E+00
  1.55000000E+00  1.70000000E+00  1.30000000E+00  1.70000000E+00  1.70000000E+00
  1.70000000E+00  1.70000000E+00  1.30000000E+00  1.70000000E+00  1.70000000E+00
  1.30000000E+00  1.70000000E+00  1.70000000E+00  1.70000000E+00  1.70000000E+00
  1.70000000E+00  1.70000000E+00  1.70000000E+00  1.70000000E+00  1.70000000E+00
  1.70000000E+00  1.70000000E+00  1.70000000E+00  1.70000000E+00  1.30000000E+00
  1.70000000E+00  1.30000000E+00  1.30000000E+00  1.70000000E+00  1.30000000E+00
  1.70000000E+00  1.70000000E+00  1.30000000E+00  1.70000000E+00  1.30000000E+00
  1.70000000E+00  1.30000000E+00  1.70000000E+00  1.30000000E+00  1.70000000E+00
  1.30000000E+00  1.70000000E+00  1.30000000E+00  1.70000000E+00  1.30000000E+00
  1.70000000E+00  1.30000000E+00  1.70000000E+00  1.30000000E+00  1.30000000E+00
  1.70000000E+00  1.30000000E+00  1.30000000E+00  1.30000000E+00  1.70000000E+00
  1.30000000E+00  1.70000000E+00  1.30000000E+00  1.30000000E+00  1.70000000E+00
  1.30000000E+00  1.30000000E+00  1.70000000E+00  1.30000000E+00  1.30000000E+00
  1.50000000E+00  1.50000000E+00  1.50000000E+00  1.50000000E+00  1.50000000E+00
  1.50000000E+00  1.70000000E+00  1.70000000E+00  1.70000000E+00  1.70000000E+00
  1.70000000E+00  1.70000000E+00  1.30000000E+00  1.30000000E+00  1.30000000E+00
  1.30000000E+00  1.30000000E+00  1.30000000E+00  1.30000000E+00  1.30000000E+00
  1.30000000E+00  1.30000000E+00  1.30000000E+00  1.30000000E+00  1.30000000E+00
  1.30000000E+00  1.30000000E+00  1.30000000E+00  1.30000000E+00  1.30000000E+00
  1.50000000E+00  1.70000000E+00  1.70000000E+00  1.70000000E+00  1.70000000E+00
  1.30000000E+00  1.30000000E+00  1.30000000E+00  1.70000000E+00  1.30000000E+00
  1.70000000E+00  1.30000000E+00  1.70000000E+00  1.30000000E+00  1.30000000E+00
  1.55000000E+00  1.70000000E+00  1.70000000E+00  1.70000000E+00  1.70000000E+00
  1.70000000E+00  1.70000000E+00  1.70000000E+00  1.30000000E+00  1.70000000E+00
  1.30000000E+00  1.70000000E+00  1.30000000E+00  1.70000000E+00  1.30000000E+00
  1.70000000E+00  1.70000000E+00  1.30000000E+00  1.70000000E+00  1.30000000E+00
  1.30000000E+00  1.70000000E+00  1.70000000E+00  1.70000000E+00  1.70000000E+00
  1.50000000E+00  1.70000000E+00  1.70000000E+00  1.70000000E+00  1.70000000E+00
  1.70000000E+00  1.70000000E+00  1.70000000E+00  1.70000000E+00  1.30000000E+00
  1.70000000E+00  1.30000000E+00  1.70000000E+00  1.30000000E+00  1.70000000E+00
  1.30000000E+00  1.70000000E+00  1.70000000E+00  1.30000000E+00  1.30000000E+00
  1.30000000E+00  1.30000000E+00  1.55000000E+00  1.55000000E+00  1.70000000E+00
  1.30000000E+00  1.55000000E+00  1.70000000E+00  1.30000000E+00  1.70000000E+00
  1.70000000E+00  1.70000000E+00  1.70000000E+00  1.30000000E+00  1.70000000E+00
  1.70000000E+00  1.30000000E+00  1.70000000E+00  1.70000000E+00  1.70000000E+00
  1.70000000E+00  1.70000000E+00  1.70000000E+00  1.70000000E+00  1.70000000E+00
  1.70000000E+00  1.70000000E+00  1.70000000E+00  1.70000000E+00  1.70000000E+00
  1.30000000E+00  1.70000000E+00  1.30000000E+00  1.30000000E+00  1.70000000E+00
  1.30000000E+00  1.70000000E+00  1.70000000E+00  1.30000000E+00  1.70000000E+00
  1.30000000E+00  1.70000000E+00  1.30000000E+00  1.70000000E+00  1.30000000E+00
  1.70000000E+00  1.30000000E+00  1.70000000E+00  1.30000000E+00  1.70000000E+00
  1.30000000E+00  1.70000000E+00  1.30000000E+00  1.70000000E+00  1.30000000E+00
  1.30000000E+00  1.70000000E+00  1.30000000E+00  1.30000000E+00  1.30000000E+00
  1.70000000E+00  1.30000000E+00  1.70000000E+00  1.30000000E+00  1.30000000E+00
  1.70000000E+00  1.30000000E+00  1.30000000E+00  1.70000000E+00  1.30000000E+00
  1.30000000E+00  1.50000000E+00  1.50000000E+00  1.50000000E+00  1.50000000E+00
  1.50000000E+00  1.50000000E+00  1.70000000E+00  1.70000000E+00  1.70000000E+00
  1.70000000E+00  1.70000000E+00  1.70000000E+00  1.30000000E+00  1.30000000E+00
  1.30000000E+00  1.30000000E+00  1.30000000E+00  1.30000000E+00  1.30000000E+00
  1.30000000E+00  1.30000000E+00  1.30000000E+00  1.30000000E+00  1.30000000E+00
  1.30000000E+00  1.30000000E+00  1.30000000E+00  1.30000000E+00  1.30000000E+00
  1.30000000E+00  1.50000000E+00  1.70000000E+00  1.70000000E+00  1.70000000E+00
  1.70000000E+00  1.30000000E+00  1.30000000E+00  1.30000000E+00  1.70000000E+00
  1.30000000E+00  1.70000000E+00  1.30000000E+00  1.70000000E+00  1.30000000E+00
  1.30000000E+00  1.55000000E+00  1.70000000E+00  1.70000000E+00  1.70000000E+00
  1.70000000E+00  1.70000000E+00  1.70000000E+00  1.70000000E+00  1.30000000E+00
  1.70000000E+00  1.30000000E+00  1.70000000E+00  1.30000000E+00  1.70000000E+00
  1.30000000E+00  1.70000000E+00  1.70000000E+00  1.30000000E+00  1.70000000E+00
  1.30000000E+00  1.30000000E+00  1.70000000E+00  1.70000000E+00  1.70000000E+00
  1.70000000E+00  1.50000000E+00  1.70000000E+00  1.70000000E+00  1.70000000E+00
  1.70000000E+00  1.70000000E+00  1.70000000E+00  1.70000000E+00  1.70000000E+00
  1.30000000E+00  1.70000000E+00  1.30000000E+00  1.70000000E+00  1.30000000E+00
  1.70000000E+00  1.30000000E+00  1.70000000E+00  1.70000000E+00  1.30000000E+00
  1.30000000E+00  1.30000000E+00  1.30000000E+00  1.55000000E+00  1.55000000E+00
  1.70000000E+00  1.30000000E+00  1.55000000E+00  1.70000000E+00  1.30000000E+00
  1.70000000E+00  1.70000000E+00  1.70000000E+00  1.70000000E+00  1.30000000E+00
  1.70000000E+00  1.70000000E+00  1.30000000E+00  1.70000000E+00  1.70000000E+00
  1.70000000E+00  1.70000000E+00  1.70000000E+00  1.70000000E+00  1.70000000E+00
  1.70000000E+00  1.70000000E+00  1.70000000E+00  1.70000000E+00  1.70000000E+00
  1.70000000E+00  1.30000000E+00  1.70000000E+00  1.30000000E+00  1.30000000E+00
  1.70000000E+00  1.30000000E+00  1.70000000E+00  1.70000000E+00  1.30000000E+00
  1.70000000E+00  1.30000000E+00  1.70000000E+00  1.30000000E+00  1.70000000E+00
  1.30000000E+00  1.70000000E+00  1.30000000E+00  1.70000000E+00  1.30000000E+00
  1.70000000E+00  1.30000000E+00  1.70000000E+00  1.30000000E+00  1.70000000E+00
  1.30000000E+00  1.30000000E+00  1.70000000E+00  1.30000000E+00  1.30000000E+00
  1.30000000E+00  1.70000000E+00  1.30000000E+00  1.70000000E+00  1.30000000E+00
  1.30000000E+00  1.70000000E+00  1.30000000E+00  1.30000000E+00  1.70000000E+00
  1.30000000E+00  1.30000000E+00  1.50000000E+00  1.50000000E+00  1.50000000E+00
  1.50000000E+00  1.50000000E+00  1.50000000E+00  1.70000000E+00  1.70000000E+00
  1.70000000E+00  1.70000000E+00  1.70000000E+00  1.70000000E+00  1.30000000E+00
  1.30000000E+00  1.30000000E+00  1.30000000E+00  1.30000000E+00  1.30000000E+00
  1.30000000E+00  1.30000000E+00  1.30000000E+00  1.30000000E+00  1.30000000E+00
  1.30000000E+00  1.30000000E+00  1.30000000E+00  1.30000000E+00  1.30000000E+00
  1.30000000E+00  1.30000000E+00  1.50000000E+00  1.70000000E+00  1.70000000E+00
  1.70000000E+00  1.70000000E+00  1.30000000E+00  1.30000000E+00  1.30000000E+00
  1.70000000E+00  1.30000000E+00  1.70000000E+00  1.30000000E+00  1.70000000E+00
  1.30000000E+00  1.30000000E+00  1.55000000E+00  1.70000000E+00  1.70000000E+00
  1.70000000E+00  1.70000000E+00  1.70000000E+00  1.70000000E+00  1.70000000E+00
  1.30000000E+00  1.70000000E+00  1.30000000E+00  1.70000000E+00  1.30000000E+00
  1.70000000E+00  1.30000000E+00  1.70000000E+00  1.70000000E+00  1.30000000E+00
  1.70000000E+00  1.30000000E+00  1.30000000E+00  1.70000000E+00  1.70000000E+00
  1.70000000E+00  1.70000000E+00  1.50000000E+00  1.70000000E+00  1.70000000E+00
  1.70000000E+00  1.70000000E+00  1.70000000E+00  1.70000000E+00  1.70000000E+00
  1.70000000E+00  1.30000000E+00  1.70000000E+00  1.30000000E+00  1.70000000E+00
  1.30000000E+00  1.70000000E+00  1.30000000E+00  1.70000000E+00  1.70000000E+00
  1.30000000E+00  1.30000000E+00  1.30000000E+00  1.30000000E+00  1.55000000E+00
  1.55000000E+00  1.70000000E+00  1.30000000E+00  1.55000000E+00  1.70000000E+00
  1.30000000E+00  1.70000000E+00  1.70000000E+00  1.70000000E+00  1.70000000E+00
  1.30000000E+00  1.70000000E+00  1.70000000E+00  1.30000000E+00  1.70000000E+00
  1.70000000E+00  1.70000000E+00  1.70000000E+00  1.70000000E+00  1.70000000E+00
  1.70000000E+00  1.70000000E+00  1.70000000E+00  1.70000000E+00  1.70000000E+00
  1.70000000E+00  1.70000000E+00  1.30000000E+00  1.70000000E+00  1.30000000E+00
  1.30000000E+00  1.70000000E+00  1.30000000E+00  1.70000000E+00  1.70000000E+00
  1.30000000E+00  1.70000000E+00  1.30000000E+00  1.70000000E+00  1.30000000E+00
  1.70000000E+00  1.30000000E+00  1.70000000E+00  1.30000000E+00  1.70000000E+00
  1.30000000E+00  1.70000000E+00  1.30000000E+00  1.70000000E+00  1.30000000E+00
  1.70000000E+00  1.30000000E+00  1.30000000E+00  1.70000000E+00  1.30000000E+00
  1.30000000E+00  1.30000000E+00  1.70000000E+00  1.30000000E+00  1.70000000E+00
  1.30000000E+00  1.30000000E+00  1.70000000E+00  1.30000000E+00  1.30000000E+00
  1.70000000E+00  1.30000000E+00  1.30000000E+00  1.50000000E+00  1.50000000E+00
  1.50000000E+00  1.50000000E+00  1.50000000E+00  1.50000000E+00  1.70000000E+00
  1.70000000E+00  1.70000000E+00  1.70000000E+00  1.70000000E+00  1.70000000E+00
  1.30000000E+00  1.30000000E+00  1.30000000E+00  1.30000000E+00  1.30000000E+00
  1.30000000E+00  1.30000000E+00  1.30000000E+00  1.30000000E+00  1.30000000E+00
  1.30000000E+00  1.30000000E+00  1.30000000E+00  1.30000000E+00  1.30000000E+00
  1.30000000E+00  1.30000000E+00  1.30000000E+00  1.50000000E+00  1.70000000E+00
  1.70000000E+00  1.70000000E+00  1.70000000E+00  1.30000000E+00  1.30000000E+00
  1.30000000E+00  1.70000000E+00  1.30000000E+00  1.70000000E+00  1.30000000E+00
  1.70000000E+00  1.30000000E+00  1.30000000E+00  1.55000000E+00  1.70000000E+00
  1.70000000E+00  1.70000000E+00  1.70000000E+00  1.70000000E+00  1.70000000E+00
  1.70000000E+00  1.30000000E+00  1.70000000E+00  1.30000000E+00  1.70000000E+00
  1.30000000E+00  1.70000000E+00  1.30000000E+00  1.70000000E+00  1.70000000E+00
  1.30000000E+00  1.70000000E+00  1.30000000E+00  1.30000000E+00  1.70000000E+00
  1.70000000E+00  1.70000000E+00  1.70000000E+00  1.50000000E+00  1.70000000E+00
  1.70000000E+00  1.70000000E+00  1.70000000E+00  1.70000000E+00  1.70000000E+00
  1.70000000E+00  1.70000000E+00  1.30000000E+00  1.70000000E+00  1.30000000E+00
  1.70000000E+00  1.30000000E+00  1.70000000E+00  1.30000000E+00  1.70000000E+00
  1.70000000E+00  1.30000000E+00  1.30000000E+00  1.30000000E+00  1.30000000E+00
  1.55000000E+00  1.55000000E+00  1.70000000E+00  1.30000000E+00  1.55000000E+00
  1.70000000E+00  1.30000000E+00  1.70000000E+00  1.70000000E+00  1.70000000E+00
  1.70000000E+00  1.30000000E+00  1.70000000E+00  1.70000000E+00  1.30000000E+00
  1.70000000E+00  1.70000000E+00  1.70000000E+00  1.70000000E+00  1.70000000E+00
  1.70000000E+00  1.70000000E+00  1.70000000E+00  1.70000000E+00  1.70000000E+00
  1.70000000E+00  1.70000000E+00  1.70000000E+00  1.30000000E+00  1.70000000E+00
  1.30000000E+00  1.30000000E+00  1.70000000E+00  1.30000000E+00  1.70000000E+00
  1.70000000E+00  1.30000000E+00  1.70000000E+00  1.30000000E+00  1.70000000E+00
  1.30000000E+00  1.70000000E+00  1.30000000E+00  1.70000000E+00  1.30000000E+00
  1.70000000E+00  1.30000000E+00  1.70000000E+00  1.30000000E+00  1.70000000E+00
  1.30000000E+00  1.70000000E+00  1.30000000E+00  1.30000000E+00  1.70000000E+00
  1.30000000E+00  1.30000000E+00  1.30000000E+00  1.70000000E+00  1.30000000E+00
  1.70000000E+00  1.30000000E+00  1.30000000E+00  1.70000000E+00  1.30000000E+00
  1.30000000E+00  1.70000000E+00  1.30000000E+00  1.30000000E+00  1.50000000E+00
  1.50000000E+00  1.50000000E+00  1.50000000E+00  1.50000000E+00  1.50000000E+00
  1.70000000E+00  1.70000000E+00  1.70000000E+00  1.70000000E+00  1.70000000E+00
  1.70000000E+00  1.30000000E+00  1.30000000E+00  1.30000000E+00  1.30000000E+00
  1.30000000E+00  1.30000000E+00  1.30000000E+00  1.30000000E+00  1.30000000E+00
  1.30000000E+00  1.30000000E+00  1.30000000E+00  1.30000000E+00  1.30000000E+00
  1.30000000E+00  1.30000000E+00  1.30000000E+00  1.30000000E+00  1.50000000E+00
  1.70000000E+00  1.70000000E+00  1.70000000E+00  1.70000000E+00  1.30000000E+00
  1.30000000E+00  1.30000000E+00  1.70000000E+00  1.30000000E+00  1.70000000E+00
  1.30000000E+00  1.70000000E+00  1.30000000E+00  1.30000000E+00  1.55000000E+00
  1.70000000E+00  1.70000000E+00  1.70000000E+00  1.70000000E+00  1.70000000E+00
  1.70000000E+00  1.70000000E+00  1.30000000E+00  1.70000000E+00  1.30000000E+00
  1.70000000E+00  1.30000000E+00  1.70000000E+00  1.30000000E+00  1.70000000E+00
  1.70000000E+00  1.30000000E+00  1.70000000E+00  1.30000000E+00  1.30000000E+00
  1.70000000E+00  1.70000000E+00  1.70000000E+00  1.70000000E+00  1.50000000E+00
  1.70000000E+00  1.70000000E+00  1.70000000E+00  1.70000000E+00  1.70000000E+00
  1.70000000E+00  1.70000000E+00  1.70000000E+00  1.30000000E+00  1.70000000E+00
  1.30000000E+00  1.70000000E+00  1.30000000E+00  1.70000000E+00  1.30000000E+00
  1.70000000E+00  1.70000000E+00  1.30000000E+00  1.30000000E+00  1.30000000E+00
  1.30000000E+00  1.55000000E+00  1.55000000E+00  1.70000000E+00  1.30000000E+00
  1.55000000E+00  1.70000000E+00  1.30000000E+00  1.70000000E+00  1.70000000E+00
  1.70000000E+00  1.70000000E+00  1.30000000E+00  1.70000000E+00  1.70000000E+00
  1.30000000E+00  1.70000000E+00  1.70000000E+00  1.70000000E+00  1.70000000E+00
  1.70000000E+00  1.70000000E+00  1.70000000E+00  1.70000000E+00  1.70000000E+00
  1.70000000E+00  1.70000000E+00  1.70000000E+00  1.70000000E+00  1.30000000E+00
  1.70000000E+00  1.30000000E+00  1.30000000E+00  1.70000000E+00  1.30000000E+00
  1.70000000E+00  1.70000000E+00  1.30000000E+00  1.70000000E+00  1.30000000E+00
  1.70000000E+00  1.30000000E+00  1.70000000E+00  1.30000000E+00  1.70000000E+00
  1.30000000E+00  1.70000000E+00  1.30000000E+00  1.70000000E+00  1.30000000E+00
  1.70000000E+00  1.30000000E+00  1.70000000E+00  1.30000000E+00  1.30000000E+00
  1.70000000E+00  1.30000000E+00  1.30000000E+00  1.30000000E+00  1.70000000E+00
  1.30000000E+00  1.70000000E+00  1.30000000E+00  1.30000000E+00  1.70000000E+00
  1.30000000E+00  1.30000000E+00  1.70000000E+00  1.30000000E+00  1.30000000E+00
  1.50000000E+00  1.50000000E+00  1.50000000E+00  1.50000000E+00  1.50000000E+00
  1.50000000E+00  1.70000000E+00  1.70000000E+00  1.70000000E+00  1.70000000E+00
  1.70000000E+00  1.70000000E+00  1.30000000E+00  1.30000000E+00  1.30000000E+00
  1.30000000E+00  1.30000000E+00  1.30000000E+00  1.30000000E+00  1.30000000E+00
  1.30000000E+00  1.30000000E+00  1.30000000E+00  1.30000000E+00  1.30000000E+00
  1.30000000E+00  1.30000000E+00  1.30000000E+00  1.30000000E+00  1.30000000E+00
  1.50000000E+00  1.70000000E+00  1.70000000E+00  1.70000000E+00  1.70000000E+00
  1.30000000E+00  1.30000000E+00  1.30000000E+00  1.70000000E+00  1.30000000E+00
  1.70000000E+00  1.30000000E+00  1.70000000E+00  1.30000000E+00  1.30000000E+00
  1.55000000E+00  1.70000000E+00  1.70000000E+00  1.70000000E+00  1.70000000E+00
  1.70000000E+00  1.70000000E+00  1.70000000E+00  1.30000000E+00  1.70000000E+00
  1.30000000E+00  1.70000000E+00  1.30000000E+00  1.70000000E+00  1.30000000E+00
  1.70000000E+00  1.70000000E+00  1.30000000E+00  1.70000000E+00  1.30000000E+00
  1.30000000E+00  1.70000000E+00  1.70000000E+00  1.70000000E+00  1.70000000E+00
  1.50000000E+00  1.70000000E+00  1.70000000E+00  1.70000000E+00  1.70000000E+00
  1.70000000E+00  1.70000000E+00  1.70000000E+00  1.70000000E+00  1.30000000E+00
  1.70000000E+00  1.30000000E+00  1.70000000E+00  1.30000000E+00  1.70000000E+00
  1.30000000E+00  1.70000000E+00  1.70000000E+00  1.30000000E+00  1.30000000E+00
  1.30000000E+00  1.30000000E+00  1.55000000E+00  1.55000000E+00  1.70000000E+00
  1.30000000E+00  1.55000000E+00  1.70000000E+00  1.30000000E+00  1.70000000E+00
  1.70000000E+00  1.70000000E+00  1.70000000E+00  1.30000000E+00  1.70000000E+00
  1.70000000E+00  1.30000000E+00  1.70000000E+00  1.70000000E+00  1.70000000E+00
  1.70000000E+00  1.70000000E+00  1.70000000E+00  1.70000000E+00  1.70000000E+00
  1.70000000E+00  1.70000000E+00  1.70000000E+00  1.70000000E+00  1.70000000E+00
  1.30000000E+00  1.70000000E+00  1.30000000E+00  1.30000000E+00  1.70000000E+00
  1.30000000E+00  1.70000000E+00  1.70000000E+00  1.30000000E+00  1.70000000E+00
  1.30000000E+00  1.70000000E+00  1.30000000E+00  1.70000000E+00  1.30000000E+00
  1.70000000E+00  1.30000000E+00  1.70000000E+00  1.30000000E+00  1.70000000E+00
  1.30000000E+00  1.70000000E+00  1.30000000E+00  1.70000000E+00  1.30000000E+00
  1.30000000E+00  1.70000000E+00  1.30000000E+00  1.30000000E+00  1.30000000E+00
  1.70000000E+00  1.30000000E+00  1.70000000E+00  1.30000000E+00  1.30000000E+00
  1.70000000E+00  1.30000000E+00  1.30000000E+00  1.70000000E+00  1.30000000E+00
  1.30000000E+00  1.50000000E+00  1.50000000E+00  1.50000000E+00  1.50000000E+00
  1.50000000E+00  1.50000000E+00  1.70000000E+00  1.70000000E+00  1.70000000E+00
  1.70000000E+00  1.70000000E+00  1.70000000E+00  1.30000000E+00  1.30000000E+00
  1.30000000E+00  1.30000000E+00  1.30000000E+00  1.30000000E+00  1.30000000E+00
  1.30000000E+00  1.30000000E+00  1.30000000E+00  1.30000000E+00  1.30000000E+00
  1.30000000E+00  1.30000000E+00  1.30000000E+00  1.30000000E+00  1.30000000E+00
  1.30000000E+00  1.50000000E+00  1.70000000E+00  1.70000000E+00  1.70000000E+00
  1.70000000E+00  1.30000000E+00  1.30000000E+00  1.30000000E+00  1.70000000E+00
  1.30000000E+00  1.70000000E+00  1.30000000E+00  1.70000000E+00  1.30000000E+00
  1.30000000E+00  1.55000000E+00  1.70000000E+00  1.70000000E+00  1.70000000E+00
  1.70000000E+00  1.70000000E+00  1.70000000E+00  1.70000000E+00  1.30000000E+00
  1.70000000E+00  1.30000000E+00  1.70000000E+00  1.30000000E+00  1.70000000E+00
  1.30000000E+00  1.70000000E+00  1.70000000E+00  1.30000000E+00  1.70000000E+00
  1.30000000E+00  1.30000000E+00  1.70000000E+00  1.70000000E+00  1.70000000E+00
  1.70000000E+00  1.50000000E+00  1.70000000E+00  1.70000000E+00  1.70000000E+00
  1.70000000E+00  1.70000000E+00  1.70000000E+00  1.70000000E+00  1.70000000E+00
  1.30000000E+00  1.70000000E+00  1.30000000E+00  1.70000000E+00  1.30000000E+00
  1.70000000E+00  1.30000000E+00  1.70000000E+00  1.70000000E+00  1.30000000E+00
  1.30000000E+00  1.30000000E+00  1.30000000E+00  1.55000000E+00  1.55000000E+00
  1.70000000E+00  1.30000000E+00  1.55000000E+00  1.70000000E+00  1.30000000E+00
  1.70000000E+00  1.70000000E+00  1.70000000E+00  1.70000000E+00  1.30000000E+00
  1.70000000E+00  1.70000000E+00  1.30000000E+00  1.70000000E+00  1.70000000E+00
  1.70000000E+00  1.70000000E+00  1.70000000E+00  1.70000000E+00  1.70000000E+00
  1.70000000E+00  1.70000000E+00  1.70000000E+00  1.70000000E+00  1.70000000E+00
  1.70000000E+00  1.30000000E+00  1.70000000E+00  1.30000000E+00  1.30000000E+00
  1.70000000E+00  1.30000000E+00  1.70000000E+00  1.70000000E+00  1.30000000E+00
  1.70000000E+00  1.30000000E+00  1.70000000E+00  1.30000000E+00  1.70000000E+00
  1.30000000E+00  1.70000000E+00  1.30000000E+00  1.70000000E+00  1.30000000E+00
  1.70000000E+00  1.30000000E+00  1.70000000E+00  1.30000000E+00  1.70000000E+00
  1.30000000E+00  1.30000000E+00  1.70000000E+00  1.30000000E+00  1.30000000E+00
  1.30000000E+00  1.70000000E+00  1.30000000E+00  1.70000000E+00  1.30000000E+00
  1.30000000E+00  1.70000000E+00  1.30000000E+00  1.30000000E+00  1.70000000E+00
  1.30000000E+00  1.30000000E+00  1.50000000E+00  1.50000000E+00  1.50000000E+00
  1.50000000E+00  1.50000000E+00  1.50000000E+00  1.70000000E+00  1.70000000E+00
  1.70000000E+00  1.70000000E+00  1.70000000E+00  1.70000000E+00  1.30000000E+00
  1.30000000E+00  1.30000000E+00  1.30000000E+00  1.30000000E+00  1.30000000E+00
  1.30000000E+00  1.30000000E+00  1.30000000E+00  1.30000000E+00  1.30000000E+00
  1.30000000E+00  1.30000000E+00  1.30000000E+00  1.30000000E+00  1.30000000E+00
  1.30000000E+00  1.30000000E+00  1.50000000E+00  1.70000000E+00  1.70000000E+00
  1.70000000E+00  1.70000000E+00  1.30000000E+00  1.30000000E+00  1.30000000E+00
  1.70000000E+00  1.30000000E+00  1.70000000E+00  1.30000000E+00  1.70000000E+00
  1.30000000E+00  1.30000000E+00  1.55000000E+00  1.70000000E+00  1.70000000E+00
  1.70000000E+00  1.70000000E+00  1.70000000E+00  1.70000000E+00  1.70000000E+00
  1.30000000E+00  1.70000000E+00  1.30000000E+00  1.70000000E+00  1.30000000E+00
  1.70000000E+00  1.30000000E+00  1.70000000E+00  1.70000000E+00  1.30000000E+00
  1.70000000E+00  1.30000000E+00  1.30000000E+00  1.70000000E+00  1.70000000E+00
  1.70000000E+00  1.70000000E+00  1.50000000E+00  1.70000000E+00  1.70000000E+00
  1.70000000E+00  1.70000000E+00  1.70000000E+00  1.70000000E+00  1.70000000E+00
  1.70000000E+00  1.30000000E+00  1.70000000E+00  1.30000000E+00  1.70000000E+00
  1.30000000E+00  1.70000000E+00  1.30000000E+00  1.70000000E+00  1.70000000E+00
  1.30000000E+00  1.30000000E+00  1.30000000E+00  1.30000000E+00  1.55000000E+00
  1.55000000E+00  1.70000000E+00  1.30000000E+00  1.55000000E+00  1.70000000E+00
  1.30000000E+00  1.70000000E+00  1.70000000E+00  1.70000000E+00  1.70000000E+00
  1.30000000E+00  1.70000000E+00  1.70000000E+00  1.30000000E+00  1.70000000E+00
  1.70000000E+00  1.70000000E+00  1.70000000E+00  1.70000000E+00  1.70000000E+00
  1.70000000E+00  1.70000000E+00  1.70000000E+00  1.70000000E+00  1.70000000E+00
  1.70000000E+00  1.70000000E+00  1.30000000E+00  1.70000000E+00  1.30000000E+00
  1.30000000E+00  1.70000000E+00  1.30000000E+00  1.70000000E+00  1.70000000E+00
  1.30000000E+00  1.70000000E+00  1.30000000E+00  1.70000000E+00  1.30000000E+00
  1.70000000E+00  1.30000000E+00  1.70000000E+00  1.30000000E+00  1.70000000E+00
  1.30000000E+00  1.70000000E+00  1.30000000E+00  1.70000000E+00  1.30000000E+00
  1.70000000E+00  1.30000000E+00  1.30000000E+00  1.70000000E+00  1.30000000E+00
  1.30000000E+00  1.30000000E+00  1.70000000E+00  1.30000000E+00  1.70000000E+00
  1.30000000E+00  1.30000000E+00  1.70000000E+00  1.30000000E+00  1.30000000E+00
  1.70000000E+00  1.30000000E+00  1.30000000E+00  1.50000000E+00  1.50000000E+00
  1.50000000E+00  1.50000000E+00  1.50000000E+00  1.50000000E+00  1.70000000E+00
  1.70000000E+00  1.70000000E+00  1.70000000E+00  1.70000000E+00  1.70000000E+00
  1.30000000E+00  1.30000000E+00  1.30000000E+00  1.30000000E+00  1.30000000E+00
  1.30000000E+00  1.30000000E+00  1.30000000E+00  1.30000000E+00  1.30000000E+00
  1.30000000E+00  1.30000000E+00  1.30000000E+00  1.30000000E+00  1.30000000E+00
  1.30000000E+00  1.30000000E+00  1.30000000E+00  1.50000000E+00  1.70000000E+00
  1.70000000E+00  1.70000000E+00  1.70000000E+00  1.30000000E+00  1.30000000E+00
  1.30000000E+00  1.70000000E+00  1.30000000E+00  1.70000000E+00  1.30000000E+00
  1.70000000E+00  1.30000000E+00  1.30000000E+00  1.55000000E+00  1.70000000E+00
  1.70000000E+00  1.70000000E+00  1.70000000E+00  1.70000000E+00  1.70000000E+00
  1.70000000E+00  1.30000000E+00  1.70000000E+00  1.30000000E+00  1.70000000E+00
  1.30000000E+00  1.70000000E+00  1.30000000E+00  1.70000000E+00  1.70000000E+00
  1.30000000E+00  1.70000000E+00  1.30000000E+00  1.30000000E+00  1.70000000E+00
  1.70000000E+00  1.70000000E+00  1.70000000E+00  1.50000000E+00  1.70000000E+00
  1.70000000E+00  1.70000000E+00  1.70000000E+00  1.70000000E+00  1.70000000E+00
  1.70000000E+00  1.70000000E+00  1.30000000E+00  1.70000000E+00  1.30000000E+00
  1.70000000E+00  1.30000000E+00  1.70000000E+00  1.30000000E+00  1.70000000E+00
  1.70000000E+00  1.30000000E+00  1.30000000E+00  1.30000000E+00  1.30000000E+00
  1.55000000E+00  1.55000000E+00  1.70000000E+00  1.30000000E+00  1.55000000E+00
  1.70000000E+00  1.30000000E+00  1.70000000E+00  1.70000000E+00  1.70000000E+00
  1.70000000E+00  1.30000000E+00  1.70000000E+00  1.70000000E+00  1.30000000E+00
  1.70000000E+00  1.70000000E+00  1.70000000E+00  1.70000000E+00  1.70000000E+00
  1.70000000E+00  1.70000000E+00  1.70000000E+00  1.70000000E+00  1.70000000E+00
  1.70000000E+00  1.70000000E+00  1.70000000E+00  1.30000000E+00  1.70000000E+00
  1.30000000E+00  1.30000000E+00  1.70000000E+00  1.30000000E+00  1.70000000E+00
  1.70000000E+00  1.30000000E+00  1.70000000E+00  1.30000000E+00  1.70000000E+00
  1.30000000E+00  1.70000000E+00  1.30000000E+00  1.70000000E+00  1.30000000E+00
  1.70000000E+00  1.30000000E+00  1.70000000E+00  1.30000000E+00  1.70000000E+00
  1.30000000E+00  1.70000000E+00  1.30000000E+00  1.30000000E+00  1.70000000E+00
  1.30000000E+00  1.30000000E+00  1.30000000E+00  1.70000000E+00  1.30000000E+00
  1.70000000E+00  1.30000000E+00  1.30000000E+00  1.70000000E+00  1.30000000E+00
  1.30000000E+00  1.70000000E+00  1.30000000E+00  1.30000000E+00  1.50000000E+00
  1.50000000E+00  1.50000000E+00  1.50000000E+00  1.50000000E+00  1.50000000E+00
  1.70000000E+00  1.70000000E+00  1.70000000E+00  1.70000000E+00  1.70000000E+00
  1.70000000E+00  1.30000000E+00  1.30000000E+00  1.30000000E+00  1.30000000E+00
  1.30000000E+00  1.30000000E+00  1.30000000E+00  1.30000000E+00  1.30000000E+00
  1.30000000E+00  1.30000000E+00  1.30000000E+00  1.30000000E+00  1.30000000E+00
  1.30000000E+00  1.30000000E+00  1.30000000E+00  1.30000000E+00  1.50000000E+00
  1.70000000E+00  1.70000000E+00  1.70000000E+00  1.70000000E+00  1.30000000E+00
  1.30000000E+00  1.30000000E+00  1.70000000E+00  1.30000000E+00  1.70000000E+00
  1.30000000E+00  1.70000000E+00  1.30000000E+00  1.30000000E+00  1.55000000E+00
  1.70000000E+00  1.70000000E+00  1.70000000E+00  1.70000000E+00  1.70000000E+00
  1.70000000E+00  1.70000000E+00  1.30000000E+00  1.70000000E+00  1.30000000E+00
  1.70000000E+00  1.30000000E+00  1.70000000E+00  1.30000000E+00  1.70000000E+00
  1.70000000E+00  1.30000000E+00  1.70000000E+00  1.30000000E+00  1.30000000E+00
  1.70000000E+00  1.70000000E+00  1.70000000E+00  1.70000000E+00  1.50000000E+00
  1.70000000E+00  1.70000000E+00  1.70000000E+00  1.70000000E+00  1.70000000E+00
  1.70000000E+00  1.70000000E+00  1.70000000E+00  1.30000000E+00  1.70000000E+00
  1.30000000E+00  1.70000000E+00  1.30000000E+00  1.70000000E+00  1.30000000E+00
  1.70000000E+00  1.70000000E+00  1.30000000E+00  1.30000000E+00  1.30000000E+00
  1.30000000E+00  1.55000000E+00  1.55000000E+00  1.70000000E+00  1.30000000E+00
  1.55000000E+00  1.70000000E+00  1.30000000E+00  1.70000000E+00  1.70000000E+00
  1.70000000E+00  1.70000000E+00  1.30000000E+00  1.70000000E+00  1.70000000E+00
  1.30000000E+00  1.70000000E+00  1.70000000E+00  1.70000000E+00  1.70000000E+00
  1.70000000E+00  1.70000000E+00  1.70000000E+00  1.70000000E+00  1.70000000E+00
  1.70000000E+00  1.70000000E+00  1.70000000E+00  1.70000000E+00  1.30000000E+00
  1.70000000E+00  1.30000000E+00  1.30000000E+00  1.70000000E+00  1.30000000E+00
  1.70000000E+00  1.70000000E+00  1.30000000E+00  1.70000000E+00  1.30000000E+00
  1.70000000E+00  1.30000000E+00  1.70000000E+00  1.30000000E+00  1.70000000E+00
  1.30000000E+00  1.70000000E+00  1.30000000E+00  1.70000000E+00  1.30000000E+00
  1.70000000E+00  1.30000000E+00  1.70000000E+00  1.30000000E+00  1.30000000E+00
  1.70000000E+00  1.30000000E+00  1.30000000E+00  1.30000000E+00  1.70000000E+00
  1.30000000E+00  1.70000000E+00  1.30000000E+00  1.30000000E+00  1.70000000E+00
  1.30000000E+00  1.30000000E+00  1.70000000E+00  1.30000000E+00  1.30000000E+00
  1.50000000E+00  1.50000000E+00  1.50000000E+00  1.50000000E+00  1.50000000E+00
  1.50000000E+00  1.70000000E+00  1.70000000E+00  1.70000000E+00  1.70000000E+00
  1.70000000E+00  1.70000000E+00  1.30000000E+00  1.30000000E+00  1.30000000E+00
  1.30000000E+00  1.30000000E+00  1.30000000E+00  1.30000000E+00  1.30000000E+00
  1.30000000E+00  1.30000000E+00  1.30000000E+00  1.30000000E+00  1.30000000E+00
  1.30000000E+00  1.30000000E+00  1.30000000E+00  1.30000000E+00  1.30000000E+00
  1.50000000E+00  1.70000000E+00  1.70000000E+00  1.70000000E+00  1.70000000E+00
  1.30000000E+00  1.30000000E+00  1.30000000E+00  1.70000000E+00  1.30000000E+00
  1.70000000E+00  1.30000000E+00  1.70000000E+00  1.30000000E+00  1.30000000E+00
  1.55000000E+00  1.70000000E+00  1.70000000E+00  1.70000000E+00  1.70000000E+00
  1.70000000E+00  1.70000000E+00  1.70000000E+00  1.30000000E+00  1.70000000E+00
  1.30000000E+00  1.70000000E+00  1.30000000E+00  1.70000000E+00  1.30000000E+00
  1.70000000E+00  1.70000000E+00  1.30000000E+00  1.70000000E+00  1.30000000E+00
  1.30000000E+00  1.70000000E+00  1.70000000E+00  1.70000000E+00  1.70000000E+00
  1.50000000E+00  1.70000000E+00  1.70000000E+00  1.70000000E+00  1.70000000E+00
  1.70000000E+00  1.70000000E+00  1.70000000E+00  1.70000000E+00  1.30000000E+00
  1.70000000E+00  1.30000000E+00  1.70000000E+00  1.30000000E+00  1.70000000E+00
  1.30000000E+00  1.70000000E+00  1.70000000E+00  1.30000000E+00  1.30000000E+00
  1.30000000E+00  1.30000000E+00  1.55000000E+00  1.55000000E+00  1.70000000E+00
  1.30000000E+00  1.55000000E+00  1.70000000E+00  1.30000000E+00  1.70000000E+00
  1.70000000E+00  1.70000000E+00  1.70000000E+00  1.30000000E+00  1.70000000E+00
  1.70000000E+00  1.30000000E+00  1.70000000E+00  1.70000000E+00  1.70000000E+00
  1.70000000E+00  1.70000000E+00  1.70000000E+00  1.70000000E+00  1.70000000E+00
  1.70000000E+00  1.70000000E+00  1.70000000E+00  1.70000000E+00  1.70000000E+00
  1.30000000E+00  1.70000000E+00  1.30000000E+00  1.30000000E+00  1.70000000E+00
  1.30000000E+00  1.70000000E+00  1.70000000E+00  1.30000000E+00  1.70000000E+00
  1.30000000E+00  1.70000000E+00  1.30000000E+00  1.70000000E+00  1.30000000E+00
  1.70000000E+00  1.30000000E+00  1.70000000E+00  1.30000000E+00  1.70000000E+00
  1.30000000E+00  1.70000000E+00  1.30000000E+00  1.70000000E+00  1.30000000E+00
  1.30000000E+00  1.70000000E+00  1.30000000E+00  1.30000000E+00  1.30000000E+00
  1.70000000E+00  1.30000000E+00  1.70000000E+00  1.30000000E+00  1.30000000E+00
  1.70000000E+00  1.30000000E+00  1.30000000E+00  1.70000000E+00  1.30000000E+00
  1.30000000E+00  1.50000000E+00  1.50000000E+00  1.50000000E+00  1.50000000E+00
  1.50000000E+00  1.50000000E+00  1.70000000E+00  1.70000000E+00  1.70000000E+00
  1.70000000E+00  1.70000000E+00  1.70000000E+00  1.30000000E+00  1.30000000E+00
  1.30000000E+00  1.30000000E+00  1.30000000E+00  1.30000000E+00  1.30000000E+00
  1.30000000E+00  1.30000000E+00  1.30000000E+00  1.30000000E+00  1.30000000E+00
  1.30000000E+00  1.30000000E+00  1.30000000E+00  1.30000000E+00  1.30000000E+00
  1.30000000E+00  1.50000000E+00  1.70000000E+00  1.70000000E+00  1.70000000E+00
  1.70000000E+00  1.30000000E+00  1.30000000E+00  1.30000000E+00  1.70000000E+00
  1.30000000E+00  1.70000000E+00  1.30000000E+00  1.70000000E+00  1.30000000E+00
  1.30000000E+00  1.55000000E+00  1.70000000E+00  1.70000000E+00  1.70000000E+00
  1.70000000E+00  1.70000000E+00  1.70000000E+00  1.70000000E+00  1.30000000E+00
  1.70000000E+00  1.30000000E+00  1.70000000E+00  1.30000000E+00  1.70000000E+00
  1.30000000E+00  1.70000000E+00  1.70000000E+00  1.30000000E+00  1.70000000E+00
  1.30000000E+00  1.30000000E+00  1.70000000E+00  1.70000000E+00  1.70000000E+00
  1.70000000E+00  1.50000000E+00  1.70000000E+00  1.70000000E+00  1.70000000E+00
  1.70000000E+00  1.70000000E+00  1.70000000E+00  1.70000000E+00  1.70000000E+00
  1.30000000E+00  1.70000000E+00  1.30000000E+00  1.70000000E+00  1.30000000E+00
  1.70000000E+00  1.30000000E+00  1.70000000E+00  1.70000000E+00  1.30000000E+00
  1.30000000E+00  1.30000000E+00  1.30000000E+00  1.55000000E+00  1.55000000E+00
  1.70000000E+00  1.30000000E+00  1.55000000E+00  1.70000000E+00  1.30000000E+00
  1.70000000E+00  1.70000000E+00  1.70000000E+00  1.70000000E+00  1.30000000E+00
  1.70000000E+00  1.70000000E+00  1.30000000E+00  1.70000000E+00  1.70000000E+00
  1.70000000E+00  1.70000000E+00  1.70000000E+00  1.70000000E+00  1.70000000E+00
  1.70000000E+00  1.70000000E+00  1.70000000E+00  1.70000000E+00  1.70000000E+00
  1.70000000E+00  1.30000000E+00  1.70000000E+00  1.30000000E+00  1.30000000E+00
  1.70000000E+00  1.30000000E+00  1.70000000E+00  1.70000000E+00  1.30000000E+00
  1.70000000E+00  1.30000000E+00  1.70000000E+00  1.30000000E+00  1.70000000E+00
  1.30000000E+00  1.70000000E+00  1.30000000E+00  1.70000000E+00  1.30000000E+00
  1.70000000E+00  1.30000000E+00  1.70000000E+00  1.30000000E+00  1.70000000E+00
  1.30000000E+00  1.30000000E+00  1.70000000E+00  1.30000000E+00  1.30000000E+00
  1.30000000E+00  1.70000000E+00  1.30000000E+00  1.70000000E+00  1.30000000E+00
  1.30000000E+00  1.70000000E+00  1.30000000E+00  1.30000000E+00  1.70000000E+00
  1.30000000E+00  1.30000000E+00  1.50000000E+00  1.50000000E+00  1.50000000E+00
  1.50000000E+00  1.50000000E+00  1.50000000E+00  1.70000000E+00  1.70000000E+00
  1.70000000E+00  1.70000000E+00  1.70000000E+00  1.70000000E+00  1.30000000E+00
  1.30000000E+00  1.30000000E+00  1.30000000E+00  1.30000000E+00  1.30000000E+00
  1.30000000E+00  1.30000000E+00  1.30000000E+00  1.30000000E+00  1.30000000E+00
  1.30000000E+00  1.30000000E+00  1.30000000E+00  1.30000000E+00  1.30000000E+00
  1.30000000E+00  1.30000000E+00  1.50000000E+00  1.70000000E+00  1.70000000E+00
  1.70000000E+00  1.70000000E+00  1.30000000E+00  1.30000000E+00  1.30000000E+00
  1.70000000E+00  1.30000000E+00  1.70000000E+00  1.30000000E+00  1.70000000E+00
  1.30000000E+00  1.30000000E+00  1.55000000E+00  1.70000000E+00  1.70000000E+00
  1.70000000E+00  1.70000000E+00  1.70000000E+00  1.70000000E+00  1.70000000E+00
  1.30000000E+00  1.70000000E+00  1.30000000E+00  1.70000000E+00  1.30000000E+00
  1.70000000E+00  1.30000000E+00  1.70000000E+00  1.70000000E+00  1.30000000E+00
  1.70000000E+00  1.30000000E+00  1.30000000E+00  1.70000000E+00  1.70000000E+00
  1.70000000E+00  1.70000000E+00  1.50000000E+00  1.70000000E+00  1.70000000E+00
  1.70000000E+00  1.70000000E+00  1.70000000E+00  1.70000000E+00  1.70000000E+00
  1.70000000E+00  1.30000000E+00  1.70000000E+00  1.30000000E+00  1.70000000E+00
  1.30000000E+00  1.70000000E+00  1.30000000E+00  1.70000000E+00  1.70000000E+00
  1.30000000E+00  1.30000000E+00  1.30000000E+00  1.30000000E+00  1.55000000E+00
  1.55000000E+00  1.70000000E+00  1.30000000E+00  1.55000000E+00  1.70000000E+00
  1.30000000E+00  1.70000000E+00  1.70000000E+00  1.70000000E+00  1.70000000E+00
  1.30000000E+00  1.70000000E+00  1.70000000E+00  1.30000000E+00  1.70000000E+00
  1.70000000E+00  1.70000000E+00  1.70000000E+00  1.70000000E+00  1.70000000E+00
  1.70000000E+00  1.70000000E+00  1.70000000E+00  1.70000000E+00  1.70000000E+00
  1.70000000E+00  1.70000000E+00  1.30000000E+00  1.70000000E+00  1.30000000E+00
  1.30000000E+00  1.70000000E+00  1.30000000E+00  1.70000000E+00  1.70000000E+00
  1.30000000E+00  1.70000000E+00  1.30000000E+00  1.70000000E+00  1.30000000E+00
  1.70000000E+00  1.30000000E+00  1.70000000E+00  1.30000000E+00  1.70000000E+00
  1.30000000E+00  1.70000000E+00  1.30000000E+00  1.70000000E+00  1.30000000E+00
  1.70000000E+00  1.30000000E+00  1.30000000E+00  1.70000000E+00  1.30000000E+00
  1.30000000E+00  1.30000000E+00  1.70000000E+00  1.30000000E+00  1.70000000E+00
  1.30000000E+00  1.30000000E+00  1.70000000E+00  1.30000000E+00  1.30000000E+00
  1.70000000E+00  1.30000000E+00  1.30000000E+00  1.50000000E+00  1.50000000E+00
  1.50000000E+00  1.50000000E+00  1.50000000E+00  1.50000000E+00  1.70000000E+00
  1.70000000E+00  1.70000000E+00  1.70000000E+00  1.70000000E+00  1.70000000E+00
  1.30000000E+00  1.30000000E+00  1.30000000E+00  1.30000000E+00  1.30000000E+00
  1.30000000E+00  1.30000000E+00  1.30000000E+00  1.30000000E+00  1.30000000E+00
  1.30000000E+00  1.30000000E+00  1.30000000E+00  1.30000000E+00  1.30000000E+00
  1.30000000E+00  1.30000000E+00  1.30000000E+00  1.50000000E+00  1.70000000E+00
  1.70000000E+00  1.70000000E+00  1.70000000E+00  1.30000000E+00  1.30000000E+00
  1.30000000E+00  1.70000000E+00  1.30000000E+00  1.70000000E+00  1.30000000E+00
  1.70000000E+00  1.30000000E+00  1.30000000E+00  1.55000000E+00  1.70000000E+00
  1.70000000E+00  1.70000000E+00  1.70000000E+00  1.70000000E+00  1.70000000E+00
  1.70000000E+00  1.30000000E+00  1.70000000E+00  1.30000000E+00  1.70000000E+00
  1.30000000E+00  1.70000000E+00  1.30000000E+00  1.70000000E+00  1.70000000E+00
  1.30000000E+00  1.70000000E+00  1.30000000E+00  1.30000000E+00  1.70000000E+00
  1.70000000E+00  1.70000000E+00  1.70000000E+00  1.50000000E+00  1.70000000E+00
  1.70000000E+00  1.70000000E+00  1.70000000E+00  1.70000000E+00  1.70000000E+00
  1.70000000E+00  1.70000000E+00  1.30000000E+00  1.70000000E+00  1.30000000E+00
  1.70000000E+00  1.30000000E+00  1.70000000E+00  1.30000000E+00  1.70000000E+00
  1.70000000E+00  1.30000000E+00  1.30000000E+00  1.30000000E+00  1.30000000E+00
  1.55000000E+00  1.55000000E+00  1.70000000E+00  1.30000000E+00  1.55000000E+00
  1.70000000E+00  1.30000000E+00  1.70000000E+00  1.70000000E+00  1.70000000E+00
  1.70000000E+00  1.30000000E+00  1.70000000E+00  1.70000000E+00  1.30000000E+00
  1.70000000E+00  1.70000000E+00  1.70000000E+00  1.70000000E+00  1.70000000E+00
  1.70000000E+00  1.70000000E+00  1.70000000E+00  1.70000000E+00  1.70000000E+00
  1.70000000E+00  1.70000000E+00  1.70000000E+00  1.30000000E+00  1.70000000E+00
  1.30000000E+00  1.30000000E+00  1.70000000E+00  1.30000000E+00  1.70000000E+00
  1.70000000E+00  1.30000000E+00  1.70000000E+00  1.30000000E+00  1.70000000E+00
  1.30000000E+00  1.70000000E+00  1.30000000E+00  1.70000000E+00  1.30000000E+00
  1.70000000E+00  1.30000000E+00  1.70000000E+00  1.30000000E+00  1.70000000E+00
  1.30000000E+00  1.70000000E+00  1.30000000E+00  1.30000000E+00  1.70000000E+00
  1.30000000E+00  1.30000000E+00  1.30000000E+00  1.70000000E+00  1.30000000E+00
  1.70000000E+00  1.30000000E+00  1.30000000E+00  1.70000000E+00  1.30000000E+00
  1.30000000E+00  1.70000000E+00  1.30000000E+00  1.30000000E+00  1.50000000E+00
  1.50000000E+00  1.50000000E+00  1.50000000E+00  1.50000000E+00  1.50000000E+00
  1.70000000E+00  1.70000000E+00  1.70000000E+00  1.70000000E+00  1.70000000E+00
  1.70000000E+00  1.30000000E+00  1.30000000E+00  1.30000000E+00  1.30000000E+00
  1.30000000E+00  1.30000000E+00  1.30000000E+00  1.30000000E+00  1.30000000E+00
  1.30000000E+00  1.30000000E+00  1.30000000E+00  1.30000000E+00  1.30000000E+00
  1.30000000E+00  1.30000000E+00  1.30000000E+00  1.30000000E+00  1.50000000E+00
  1.70000000E+00  1.70000000E+00  1.70000000E+00  1.70000000E+00  1.30000000E+00
  1.30000000E+00  1.30000000E+00  1.70000000E+00  1.30000000E+00  1.70000000E+00
  1.30000000E+00  1.70000000E+00  1.30000000E+00  1.30000000E+00  1.55000000E+00
  1.70000000E+00  1.70000000E+00  1.70000000E+00  1.70000000E+00  1.70000000E+00
  1.70000000E+00  1.70000000E+00  1.30000000E+00  1.70000000E+00  1.30000000E+00
  1.70000000E+00  1.30000000E+00  1.70000000E+00  1.30000000E+00  1.70000000E+00
  1.70000000E+00  1.30000000E+00  1.70000000E+00  1.30000000E+00  1.30000000E+00
  1.70000000E+00  1.70000000E+00  1.70000000E+00  1.70000000E+00  1.50000000E+00
  1.70000000E+00  1.70000000E+00  1.70000000E+00  1.70000000E+00  1.70000000E+00
  1.70000000E+00  1.70000000E+00  1.70000000E+00  1.30000000E+00  1.70000000E+00
  1.30000000E+00  1.70000000E+00  1.30000000E+00  1.70000000E+00  1.30000000E+00
  1.70000000E+00  1.70000000E+00  1.30000000E+00  1.30000000E+00  1.30000000E+00
  1.30000000E+00  1.55000000E+00  1.55000000E+00  1.70000000E+00  1.30000000E+00
  1.55000000E+00  1.70000000E+00  1.30000000E+00  1.70000000E+00  1.70000000E+00
  1.70000000E+00  1.70000000E+00  1.30000000E+00  1.70000000E+00  1.70000000E+00
  1.30000000E+00  1.70000000E+00  1.70000000E+00  1.70000000E+00  1.70000000E+00
  1.70000000E+00  1.70000000E+00  1.70000000E+00  1.70000000E+00  1.70000000E+00
  1.70000000E+00  1.70000000E+00  1.70000000E+00  1.70000000E+00  1.30000000E+00
  1.70000000E+00  1.30000000E+00  1.30000000E+00  1.70000000E+00  1.30000000E+00
  1.70000000E+00  1.70000000E+00  1.30000000E+00  1.70000000E+00  1.30000000E+00
  1.70000000E+00  1.30000000E+00  1.70000000E+00  1.30000000E+00  1.70000000E+00
  1.30000000E+00  1.70000000E+00  1.30000000E+00  1.70000000E+00  1.30000000E+00
  1.70000000E+00  1.30000000E+00  1.70000000E+00  1.30000000E+00  1.30000000E+00
  1.70000000E+00  1.30000000E+00  1.30000000E+00  1.30000000E+00  1.70000000E+00
  1.30000000E+00  1.70000000E+00  1.30000000E+00  1.30000000E+00  1.70000000E+00
  1.30000000E+00  1.30000000E+00  1.70000000E+00  1.30000000E+00  1.30000000E+00
  1.50000000E+00  1.50000000E+00  1.50000000E+00  1.50000000E+00  1.50000000E+00
  1.50000000E+00  1.70000000E+00  1.70000000E+00  1.70000000E+00  1.70000000E+00
  1.70000000E+00  1.70000000E+00  1.30000000E+00  1.30000000E+00  1.30000000E+00
  1.30000000E+00  1.30000000E+00  1.30000000E+00  1.30000000E+00  1.30000000E+00
  1.30000000E+00  1.30000000E+00  1.30000000E+00  1.30000000E+00  1.30000000E+00
  1.30000000E+00  1.30000000E+00  1.30000000E+00  1.30000000E+00  1.30000000E+00
  1.50000000E+00  1.70000000E+00  1.70000000E+00  1.70000000E+00  1.70000000E+00
  1.30000000E+00  1.30000000E+00  1.30000000E+00  1.70000000E+00  1.30000000E+00
  1.70000000E+00  1.30000000E+00  1.70000000E+00  1.30000000E+00  1.30000000E+00
  1.55000000E+00  1.70000000E+00  1.70000000E+00  1.70000000E+00  1.70000000E+00
  1.70000000E+00  1.70000000E+00  1.70000000E+00  1.30000000E+00  1.70000000E+00
  1.30000000E+00  1.70000000E+00  1.30000000E+00  1.70000000E+00  1.30000000E+00
  1.70000000E+00  1.70000000E+00  1.30000000E+00  1.70000000E+00  1.30000000E+00
  1.30000000E+00  1.70000000E+00  1.70000000E+00  1.70000000E+00  1.70000000E+00
  1.50000000E+00  1.70000000E+00  1.70000000E+00  1.70000000E+00  1.70000000E+00
  1.70000000E+00  1.70000000E+00  1.70000000E+00  1.70000000E+00  1.30000000E+00
  1.70000000E+00  1.30000000E+00  1.70000000E+00  1.30000000E+00  1.70000000E+00
  1.30000000E+00  1.70000000E+00  1.70000000E+00  1.30000000E+00  1.30000000E+00
  1.30000000E+00  1.30000000E+00  1.55000000E+00  1.55000000E+00  1.70000000E+00
  1.30000000E+00  1.55000000E+00  1.70000000E+00  1.30000000E+00  1.70000000E+00
  1.70000000E+00  1.70000000E+00  1.70000000E+00  1.30000000E+00  1.70000000E+00
  1.70000000E+00  1.30000000E+00  1.70000000E+00  1.70000000E+00  1.70000000E+00
  1.70000000E+00  1.70000000E+00  1.70000000E+00  1.70000000E+00  1.70000000E+00
  1.70000000E+00  1.70000000E+00  1.70000000E+00  1.70000000E+00  1.70000000E+00
  1.30000000E+00  1.70000000E+00  1.30000000E+00  1.30000000E+00  1.70000000E+00
  1.30000000E+00  1.70000000E+00  1.70000000E+00  1.30000000E+00  1.70000000E+00
  1.30000000E+00  1.70000000E+00  1.30000000E+00  1.70000000E+00  1.30000000E+00
  1.70000000E+00  1.30000000E+00  1.70000000E+00  1.30000000E+00  1.70000000E+00
  1.30000000E+00  1.70000000E+00  1.30000000E+00  1.70000000E+00  1.30000000E+00
  1.30000000E+00  1.70000000E+00  1.30000000E+00  1.30000000E+00  1.30000000E+00
  1.70000000E+00  1.30000000E+00  1.70000000E+00  1.30000000E+00  1.30000000E+00
  1.70000000E+00  1.30000000E+00  1.30000000E+00  1.70000000E+00  1.30000000E+00
  1.30000000E+00  1.50000000E+00  1.50000000E+00  1.50000000E+00  1.50000000E+00
  1.50000000E+00  1.50000000E+00  1.70000000E+00  1.70000000E+00  1.70000000E+00
  1.70000000E+00  1.70000000E+00  1.70000000E+00  1.30000000E+00  1.30000000E+00
  1.30000000E+00  1.30000000E+00  1.30000000E+00  1.30000000E+00  1.30000000E+00
  1.30000000E+00  1.30000000E+00  1.30000000E+00  1.30000000E+00  1.30000000E+00
  1.30000000E+00  1.30000000E+00  1.30000000E+00  1.30000000E+00  1.30000000E+00
  1.30000000E+00  1.50000000E+00  1.70000000E+00  1.70000000E+00  1.70000000E+00
  1.70000000E+00  1.30000000E+00  1.30000000E+00  1.30000000E+00  1.70000000E+00
  1.30000000E+00  1.70000000E+00  1.30000000E+00  1.70000000E+00  1.30000000E+00
  1.30000000E+00  1.55000000E+00  1.70000000E+00  1.70000000E+00  1.70000000E+00
  1.70000000E+00  1.70000000E+00  1.70000000E+00  1.70000000E+00  1.30000000E+00
  1.70000000E+00  1.30000000E+00  1.70000000E+00  1.30000000E+00  1.70000000E+00
  1.30000000E+00  1.70000000E+00  1.70000000E+00  1.30000000E+00  1.70000000E+00
  1.30000000E+00  1.30000000E+00  1.70000000E+00  1.70000000E+00  1.70000000E+00
  1.70000000E+00  1.50000000E+00  1.70000000E+00  1.70000000E+00  1.70000000E+00
  1.70000000E+00  1.70000000E+00  1.70000000E+00  1.70000000E+00  1.70000000E+00
  1.30000000E+00  1.70000000E+00  1.30000000E+00  1.70000000E+00  1.30000000E+00
  1.70000000E+00  1.30000000E+00  1.70000000E+00  1.70000000E+00  1.30000000E+00
  1.30000000E+00  1.30000000E+00  1.30000000E+00  1.55000000E+00  1.55000000E+00
  1.70000000E+00  1.30000000E+00  1.55000000E+00  1.70000000E+00  1.30000000E+00
  1.70000000E+00  1.70000000E+00  1.70000000E+00  1.70000000E+00  1.30000000E+00
  1.70000000E+00  1.70000000E+00  1.30000000E+00  1.70000000E+00  1.70000000E+00
  1.70000000E+00  1.70000000E+00  1.70000000E+00  1.70000000E+00  1.70000000E+00
  1.70000000E+00  1.70000000E+00  1.70000000E+00  1.70000000E+00  1.70000000E+00
  1.70000000E+00  1.30000000E+00  1.70000000E+00  1.30000000E+00  1.30000000E+00
  1.70000000E+00  1.30000000E+00  1.70000000E+00  1.70000000E+00  1.30000000E+00
  1.70000000E+00  1.30000000E+00  1.70000000E+00  1.30000000E+00  1.70000000E+00
  1.30000000E+00  1.70000000E+00  1.30000000E+00  1.70000000E+00  1.30000000E+00
  1.70000000E+00  1.30000000E+00  1.70000000E+00  1.30000000E+00  1.70000000E+00
  1.30000000E+00  1.30000000E+00  1.70000000E+00  1.30000000E+00  1.30000000E+00
  1.30000000E+00  1.70000000E+00  1.30000000E+00  1.70000000E+00  1.30000000E+00
  1.30000000E+00  1.70000000E+00  1.30000000E+00  1.30000000E+00  1.70000000E+00
  1.30000000E+00  1.30000000E+00  1.50000000E+00  1.50000000E+00  1.50000000E+00
  1.50000000E+00  1.50000000E+00  1.50000000E+00  1.70000000E+00  1.70000000E+00
  1.70000000E+00  1.70000000E+00  1.70000000E+00  1.70000000E+00  1.30000000E+00
  1.30000000E+00  1.30000000E+00  1.30000000E+00  1.30000000E+00  1.30000000E+00
  1.30000000E+00  1.30000000E+00  1.30000000E+00  1.30000000E+00  1.30000000E+00
  1.30000000E+00  1.30000000E+00  1.30000000E+00  1.30000000E+00  1.30000000E+00
  1.30000000E+00  1.30000000E+00  1.50000000E+00  1.70000000E+00  1.70000000E+00
  1.70000000E+00  1.70000000E+00  1.30000000E+00  1.30000000E+00  1.30000000E+00
  1.70000000E+00  1.30000000E+00  1.70000000E+00  1.30000000E+00  1.70000000E+00
  1.30000000E+00  1.30000000E+00  1.55000000E+00  1.70000000E+00  1.70000000E+00
  1.70000000E+00  1.70000000E+00  1.70000000E+00  1.70000000E+00  1.70000000E+00
  1.30000000E+00  1.70000000E+00  1.30000000E+00  1.70000000E+00  1.30000000E+00
  1.70000000E+00  1.30000000E+00  1.70000000E+00  1.70000000E+00  1.30000000E+00
  1.70000000E+00  1.30000000E+00  1.30000000E+00  1.70000000E+00  1.70000000E+00
  1.70000000E+00  1.70000000E+00  1.50000000E+00  1.70000000E+00  1.70000000E+00
  1.70000000E+00  1.70000000E+00  1.70000000E+00  1.70000000E+00  1.70000000E+00
  1.70000000E+00  1.30000000E+00  1.70000000E+00  1.30000000E+00  1.70000000E+00
  1.30000000E+00  1.70000000E+00  1.30000000E+00  1.70000000E+00  1.70000000E+00
  1.30000000E+00  1.30000000E+00  1.30000000E+00  1.30000000E+00  1.55000000E+00
  1.55000000E+00  1.70000000E+00  1.30000000E+00  1.55000000E+00  1.70000000E+00
  1.30000000E+00  1.70000000E+00  1.70000000E+00  1.70000000E+00  1.70000000E+00
  1.30000000E+00  1.70000000E+00  1.70000000E+00  1.30000000E+00  1.70000000E+00
  1.70000000E+00  1.70000000E+00  1.70000000E+00  1.70000000E+00  1.70000000E+00
  1.70000000E+00  1.70000000E+00  1.70000000E+00  1.70000000E+00  1.70000000E+00
  1.70000000E+00  1.70000000E+00  1.30000000E+00  1.70000000E+00  1.30000000E+00
  1.30000000E+00  1.70000000E+00  1.30000000E+00  1.70000000E+00  1.70000000E+00
  1.30000000E+00  1.70000000E+00  1.30000000E+00  1.70000000E+00  1.30000000E+00
  1.70000000E+00  1.30000000E+00  1.70000000E+00  1.30000000E+00  1.70000000E+00
  1.30000000E+00  1.70000000E+00  1.30000000E+00  1.70000000E+00  1.30000000E+00
  1.70000000E+00  1.30000000E+00  1.30000000E+00  1.70000000E+00  1.30000000E+00
  1.30000000E+00  1.30000000E+00  1.70000000E+00  1.30000000E+00  1.70000000E+00
  1.30000000E+00  1.30000000E+00  1.70000000E+00  1.30000000E+00  1.30000000E+00
  1.70000000E+00  1.30000000E+00  1.30000000E+00  1.50000000E+00  1.50000000E+00
  1.50000000E+00  1.50000000E+00  1.50000000E+00  1.50000000E+00  1.70000000E+00
  1.70000000E+00  1.70000000E+00  1.70000000E+00  1.70000000E+00  1.70000000E+00
  1.30000000E+00  1.30000000E+00  1.30000000E+00  1.30000000E+00  1.30000000E+00
  1.30000000E+00  1.30000000E+00  1.30000000E+00  1.30000000E+00  1.30000000E+00
  1.30000000E+00  1.30000000E+00  1.30000000E+00  1.30000000E+00  1.30000000E+00
  1.30000000E+00  1.30000000E+00  1.30000000E+00  1.50000000E+00  1.70000000E+00
  1.70000000E+00  1.70000000E+00  1.70000000E+00  1.30000000E+00  1.30000000E+00
  1.30000000E+00  1.70000000E+00  1.30000000E+00  1.70000000E+00  1.30000000E+00
  1.70000000E+00  1.30000000E+00  1.30000000E+00  1.55000000E+00  1.70000000E+00
  1.70000000E+00  1.70000000E+00  1.70000000E+00  1.70000000E+00  1.70000000E+00
  1.70000000E+00  1.30000000E+00  1.70000000E+00  1.30000000E+00  1.70000000E+00
  1.30000000E+00  1.70000000E+00  1.30000000E+00  1.70000000E+00  1.70000000E+00
  1.30000000E+00  1.70000000E+00  1.30000000E+00  1.30000000E+00  1.70000000E+00
  1.70000000E+00  1.70000000E+00  1.70000000E+00  1.50000000E+00  1.70000000E+00
  1.70000000E+00  1.70000000E+00  1.70000000E+00  1.70000000E+00  1.70000000E+00
  1.70000000E+00  1.70000000E+00  1.30000000E+00  1.70000000E+00  1.30000000E+00
  1.70000000E+00  1.30000000E+00  1.70000000E+00  1.30000000E+00  1.70000000E+00
  1.70000000E+00  1.30000000E+00  1.30000000E+00  1.30000000E+00  1.30000000E+00
  1.55000000E+00  1.55000000E+00  1.70000000E+00  1.30000000E+00  1.55000000E+00
  1.70000000E+00  1.30000000E+00  1.70000000E+00  1.70000000E+00  1.70000000E+00
  1.70000000E+00  1.30000000E+00  1.70000000E+00  1.70000000E+00  1.30000000E+00
  1.70000000E+00  1.70000000E+00  1.70000000E+00  1.70000000E+00  1.70000000E+00
  1.70000000E+00  1.70000000E+00  1.70000000E+00  1.70000000E+00  1.70000000E+00
  1.70000000E+00  1.70000000E+00  1.70000000E+00  1.30000000E+00  1.70000000E+00
  1.30000000E+00  1.30000000E+00  1.70000000E+00  1.30000000E+00  1.70000000E+00
  1.70000000E+00  1.30000000E+00  1.70000000E+00  1.30000000E+00  1.70000000E+00
  1.30000000E+00  1.70000000E+00  1.30000000E+00  1.70000000E+00  1.30000000E+00
  1.70000000E+00  1.30000000E+00  1.70000000E+00  1.30000000E+00  1.70000000E+00
  1.30000000E+00  1.70000000E+00  1.30000000E+00  1.30000000E+00  1.70000000E+00
  1.30000000E+00  1.30000000E+00  1.30000000E+00  1.70000000E+00  1.30000000E+00
  1.70000000E+00  1.30000000E+00  1.30000000E+00  1.70000000E+00  1.30000000E+00
  1.30000000E+00  1.70000000E+00  1.30000000E+00  1.30000000E+00  1.50000000E+00
  1.50000000E+00  1.50000000E+00  1.50000000E+00  1.50000000E+00  1.50000000E+00
  1.70000000E+00  1.70000000E+00  1.70000000E+00  1.70000000E+00  1.70000000E+00
  1.70000000E+00  1.30000000E+00  1.30000000E+00  1.30000000E+00  1.30000000E+00
  1.30000000E+00  1.30000000E+00  1.30000000E+00  1.30000000E+00  1.30000000E+00
  1.30000000E+00  1.30000000E+00  1.30000000E+00  1.30000000E+00  1.30000000E+00
  1.30000000E+00  1.30000000E+00  1.30000000E+00  1.30000000E+00  1.50000000E+00
  1.70000000E+00  1.70000000E+00  1.70000000E+00  1.70000000E+00  1.30000000E+00
  1.30000000E+00  1.30000000E+00  1.70000000E+00  1.30000000E+00  1.70000000E+00
  1.30000000E+00  1.70000000E+00  1.30000000E+00  1.30000000E+00  1.55000000E+00
  1.70000000E+00  1.70000000E+00  1.70000000E+00  1.70000000E+00  1.70000000E+00
  1.70000000E+00  1.70000000E+00  1.30000000E+00  1.70000000E+00  1.30000000E+00
  1.70000000E+00  1.30000000E+00  1.70000000E+00  1.30000000E+00  1.70000000E+00
  1.70000000E+00  1.30000000E+00  1.70000000E+00  1.30000000E+00  1.30000000E+00
  1.70000000E+00  1.70000000E+00  1.70000000E+00  1.70000000E+00  1.50000000E+00
  1.70000000E+00  1.70000000E+00  1.70000000E+00  1.70000000E+00  1.70000000E+00
  1.70000000E+00  1.70000000E+00  1.70000000E+00  1.30000000E+00  1.70000000E+00
  1.30000000E+00  1.70000000E+00  1.30000000E+00  1.70000000E+00  1.30000000E+00
  1.70000000E+00  1.70000000E+00  1.30000000E+00  1.30000000E+00  1.30000000E+00
  1.30000000E+00  1.55000000E+00  1.55000000E+00  1.70000000E+00  1.30000000E+00
  1.55000000E+00  1.70000000E+00  1.30000000E+00  1.70000000E+00  1.70000000E+00
  1.70000000E+00  1.70000000E+00  1.30000000E+00  1.70000000E+00  1.70000000E+00
  1.30000000E+00  1.70000000E+00  1.70000000E+00  1.70000000E+00  1.70000000E+00
  1.70000000E+00  1.70000000E+00  1.70000000E+00  1.70000000E+00  1.70000000E+00
  1.70000000E+00  1.70000000E+00  1.70000000E+00  1.70000000E+00  1.30000000E+00
  1.70000000E+00  1.30000000E+00  1.30000000E+00  1.70000000E+00  1.30000000E+00
  1.70000000E+00  1.70000000E+00  1.30000000E+00  1.70000000E+00  1.30000000E+00
  1.70000000E+00  1.30000000E+00  1.70000000E+00  1.30000000E+00  1.70000000E+00
  1.30000000E+00  1.70000000E+00  1.30000000E+00  1.70000000E+00  1.30000000E+00
  1.70000000E+00  1.30000000E+00  1.70000000E+00  1.30000000E+00  1.30000000E+00
  1.70000000E+00  1.30000000E+00  1.30000000E+00  1.30000000E+00  1.70000000E+00
  1.30000000E+00  1.70000000E+00  1.30000000E+00  1.30000000E+00  1.70000000E+00
  1.30000000E+00  1.30000000E+00  1.70000000E+00  1.30000000E+00  1.30000000E+00
  1.50000000E+00  1.50000000E+00  1.50000000E+00  1.50000000E+00  1.50000000E+00
  1.50000000E+00  1.70000000E+00  1.70000000E+00  1.70000000E+00  1.70000000E+00
  1.70000000E+00  1.70000000E+00  1.30000000E+00  1.30000000E+00  1.30000000E+00
  1.30000000E+00  1.30000000E+00  1.30000000E+00  1.30000000E+00  1.30000000E+00
  1.30000000E+00  1.30000000E+00  1.30000000E+00  1.30000000E+00  1.30000000E+00
  1.30000000E+00  1.30000000E+00  1.30000000E+00  1.30000000E+00  1.30000000E+00
  1.50000000E+00  1.70000000E+00  1.70000000E+00  1.70000000E+00  1.70000000E+00
  1.30000000E+00  1.30000000E+00  1.30000000E+00  1.70000000E+00  1.30000000E+00
  1.70000000E+00  1.30000000E+00  1.70000000E+00  1.30000000E+00  1.30000000E+00
  1.55000000E+00  1.70000000E+00  1.70000000E+00  1.70000000E+00  1.70000000E+00
  1.70000000E+00  1.70000000E+00  1.70000000E+00  1.30000000E+00  1.70000000E+00
  1.30000000E+00  1.70000000E+00  1.30000000E+00  1.70000000E+00  1.30000000E+00
  1.70000000E+00  1.70000000E+00  1.30000000E+00  1.70000000E+00  1.30000000E+00
  1.30000000E+00  1.70000000E+00  1.70000000E+00  1.70000000E+00  1.70000000E+00
  1.50000000E+00  1.70000000E+00  1.70000000E+00  1.70000000E+00  1.70000000E+00
  1.70000000E+00  1.70000000E+00  1.70000000E+00  1.70000000E+00  1.30000000E+00
  1.70000000E+00  1.30000000E+00  1.70000000E+00  1.30000000E+00  1.70000000E+00
  1.30000000E+00  1.70000000E+00  1.70000000E+00  1.30000000E+00  1.30000000E+00
  1.30000000E+00  1.30000000E+00  1.55000000E+00  1.55000000E+00  1.70000000E+00
  1.30000000E+00  1.55000000E+00  1.70000000E+00  1.30000000E+00  1.70000000E+00
  1.70000000E+00  1.70000000E+00  1.70000000E+00  1.30000000E+00  1.70000000E+00
  1.70000000E+00  1.30000000E+00  1.70000000E+00  1.70000000E+00  1.70000000E+00
  1.70000000E+00  1.70000000E+00  1.70000000E+00  1.70000000E+00  1.70000000E+00
  1.70000000E+00  1.70000000E+00  1.70000000E+00  1.70000000E+00  1.70000000E+00
  1.30000000E+00  1.70000000E+00  1.30000000E+00  1.30000000E+00  1.70000000E+00
  1.30000000E+00  1.70000000E+00  1.70000000E+00  1.30000000E+00  1.70000000E+00
  1.30000000E+00  1.70000000E+00  1.30000000E+00  1.70000000E+00  1.30000000E+00
  1.70000000E+00  1.30000000E+00  1.70000000E+00  1.30000000E+00  1.70000000E+00
  1.30000000E+00  1.70000000E+00  1.30000000E+00  1.70000000E+00  1.30000000E+00
  1.30000000E+00  1.70000000E+00  1.30000000E+00  1.30000000E+00  1.30000000E+00
  1.70000000E+00  1.30000000E+00  1.70000000E+00  1.30000000E+00  1.30000000E+00
  1.70000000E+00  1.30000000E+00  1.30000000E+00  1.70000000E+00  1.30000000E+00
  1.30000000E+00  1.50000000E+00  1.50000000E+00  1.50000000E+00  1.50000000E+00
  1.50000000E+00  1.50000000E+00  1.70000000E+00  1.70000000E+00  1.70000000E+00
  1.70000000E+00  1.70000000E+00  1.70000000E+00  1.30000000E+00  1.30000000E+00
  1.30000000E+00  1.30000000E+00  1.30000000E+00  1.30000000E+00  1.30000000E+00
  1.30000000E+00  1.30000000E+00  1.30000000E+00  1.30000000E+00  1.30000000E+00
  1.30000000E+00  1.30000000E+00  1.30000000E+00  1.30000000E+00  1.30000000E+00
  1.30000000E+00  1.50000000E+00  1.70000000E+00  1.70000000E+00  1.70000000E+00
  1.70000000E+00  1.30000000E+00  1.30000000E+00  1.30000000E+00  1.70000000E+00
  1.30000000E+00  1.70000000E+00  1.30000000E+00  1.70000000E+00  1.30000000E+00
  1.30000000E+00  1.55000000E+00  1.70000000E+00  1.70000000E+00  1.70000000E+00
  1.70000000E+00  1.70000000E+00  1.70000000E+00  1.70000000E+00  1.30000000E+00
  1.70000000E+00  1.30000000E+00  1.70000000E+00  1.30000000E+00  1.70000000E+00
  1.30000000E+00  1.70000000E+00  1.70000000E+00  1.30000000E+00  1.70000000E+00
  1.30000000E+00  1.30000000E+00  1.70000000E+00  1.70000000E+00  1.70000000E+00
  1.70000000E+00  1.50000000E+00  1.70000000E+00  1.70000000E+00  1.70000000E+00
  1.70000000E+00  1.70000000E+00  1.70000000E+00  1.70000000E+00  1.70000000E+00
  1.30000000E+00  1.70000000E+00  1.30000000E+00  1.70000000E+00  1.30000000E+00
  1.70000000E+00  1.30000000E+00  1.70000000E+00  1.70000000E+00  1.30000000E+00
  1.30000000E+00  1.30000000E+00  1.30000000E+00  1.55000000E+00  1.55000000E+00
  1.70000000E+00  1.30000000E+00  1.55000000E+00  1.70000000E+00  1.30000000E+00
  1.70000000E+00  1.70000000E+00  1.70000000E+00  1.70000000E+00  1.30000000E+00
  1.70000000E+00  1.70000000E+00  1.30000000E+00  1.70000000E+00  1.70000000E+00
  1.70000000E+00  1.70000000E+00  1.70000000E+00  1.70000000E+00  1.70000000E+00
  1.70000000E+00  1.70000000E+00  1.70000000E+00  1.70000000E+00  1.70000000E+00
  1.70000000E+00  1.30000000E+00  1.70000000E+00  1.30000000E+00  1.30000000E+00
  1.70000000E+00  1.30000000E+00  1.70000000E+00  1.70000000E+00  1.30000000E+00
  1.70000000E+00  1.30000000E+00  1.70000000E+00  1.30000000E+00  1.70000000E+00
  1.30000000E+00  1.70000000E+00  1.30000000E+00  1.70000000E+00  1.30000000E+00
  1.70000000E+00  1.30000000E+00  1.70000000E+00  1.30000000E+00  1.70000000E+00
  1.30000000E+00  1.30000000E+00  1.70000000E+00  1.30000000E+00  1.30000000E+00
  1.30000000E+00  1.70000000E+00  1.30000000E+00  1.70000000E+00  1.30000000E+00
  1.30000000E+00  1.70000000E+00  1.30000000E+00  1.30000000E+00  1.70000000E+00
  1.30000000E+00  1.30000000E+00  1.50000000E+00  1.50000000E+00  1.50000000E+00
  1.50000000E+00  1.50000000E+00  1.50000000E+00  1.70000000E+00  1.70000000E+00
  1.70000000E+00  1.70000000E+00  1.70000000E+00  1.70000000E+00  1.30000000E+00
  1.30000000E+00  1.30000000E+00  1.30000000E+00  1.30000000E+00  1.30000000E+00
  1.30000000E+00  1.30000000E+00  1.30000000E+00  1.30000000E+00  1.30000000E+00
  1.30000000E+00  1.30000000E+00  1.30000000E+00  1.30000000E+00  1.30000000E+00
  1.30000000E+00  1.30000000E+00  1.50000000E+00  1.70000000E+00  1.70000000E+00
  1.70000000E+00  1.70000000E+00  1.30000000E+00  1.30000000E+00  1.30000000E+00
  1.70000000E+00  1.30000000E+00  1.70000000E+00  1.30000000E+00  1.70000000E+00
  1.30000000E+00  1.30000000E+00  1.55000000E+00  1.70000000E+00  1.70000000E+00
  1.70000000E+00  1.70000000E+00  1.70000000E+00  1.70000000E+00  1.70000000E+00
  1.30000000E+00  1.70000000E+00  1.30000000E+00  1.70000000E+00  1.30000000E+00
  1.70000000E+00  1.30000000E+00  1.70000000E+00  1.70000000E+00  1.30000000E+00
  1.70000000E+00  1.30000000E+00  1.30000000E+00  1.70000000E+00  1.70000000E+00
  1.70000000E+00  1.70000000E+00  1.50000000E+00  1.70000000E+00  1.70000000E+00
  1.70000000E+00  1.70000000E+00  1.70000000E+00  1.70000000E+00  1.70000000E+00
  1.70000000E+00  1.30000000E+00  1.70000000E+00  1.30000000E+00  1.70000000E+00
  1.30000000E+00  1.70000000E+00  1.30000000E+00  1.70000000E+00  1.70000000E+00
  1.30000000E+00  1.30000000E+00  1.30000000E+00  1.30000000E+00  1.55000000E+00
  1.55000000E+00  1.70000000E+00  1.30000000E+00  1.55000000E+00  1.70000000E+00
  1.30000000E+00  1.70000000E+00  1.70000000E+00  1.70000000E+00  1.70000000E+00
  1.30000000E+00  1.70000000E+00  1.70000000E+00  1.30000000E+00  1.70000000E+00
  1.70000000E+00  1.70000000E+00  1.70000000E+00  1.70000000E+00  1.70000000E+00
  1.70000000E+00  1.70000000E+00  1.70000000E+00  1.70000000E+00  1.70000000E+00
  1.70000000E+00  1.70000000E+00  1.30000000E+00  1.70000000E+00  1.30000000E+00
  1.30000000E+00  1.70000000E+00  1.30000000E+00  1.70000000E+00  1.70000000E+00
  1.30000000E+00  1.70000000E+00  1.30000000E+00  1.70000000E+00  1.30000000E+00
  1.70000000E+00  1.30000000E+00  1.70000000E+00  1.30000000E+00  1.70000000E+00
  1.30000000E+00  1.70000000E+00  1.30000000E+00  1.70000000E+00  1.30000000E+00
  1.70000000E+00  1.30000000E+00  1.30000000E+00  1.70000000E+00  1.30000000E+00
  1.30000000E+00  1.30000000E+00  1.70000000E+00  1.30000000E+00  1.70000000E+00
  1.30000000E+00  1.30000000E+00  1.70000000E+00  1.30000000E+00  1.30000000E+00
  1.70000000E+00  1.30000000E+00  1.30000000E+00  1.50000000E+00  1.50000000E+00
  1.50000000E+00  1.50000000E+00  1.50000000E+00  1.50000000E+00  1.70000000E+00
  1.70000000E+00  1.70000000E+00  1.70000000E+00  1.70000000E+00  1.70000000E+00
  1.30000000E+00  1.30000000E+00  1.30000000E+00  1.30000000E+00  1.30000000E+00
  1.30000000E+00  1.30000000E+00  1.30000000E+00  1.30000000E+00  1.30000000E+00
  1.30000000E+00  1.30000000E+00  1.30000000E+00  1.30000000E+00  1.30000000E+00
  1.30000000E+00  1.30000000E+00  1.30000000E+00  1.50000000E+00  1.70000000E+00
  1.70000000E+00  1.70000000E+00  1.70000000E+00  1.30000000E+00  1.30000000E+00
  1.30000000E+00  1.70000000E+00  1.30000000E+00  1.70000000E+00  1.30000000E+00
  1.70000000E+00  1.30000000E+00  1.30000000E+00  1.55000000E+00  1.70000000E+00
  1.70000000E+00  1.70000000E+00  1.70000000E+00  1.70000000E+00  1.70000000E+00
  1.70000000E+00  1.30000000E+00  1.70000000E+00  1.30000000E+00  1.70000000E+00
  1.30000000E+00  1.70000000E+00  1.30000000E+00  1.70000000E+00  1.70000000E+00
  1.30000000E+00  1.70000000E+00  1.30000000E+00  1.30000000E+00  1.70000000E+00
  1.70000000E+00  1.70000000E+00  1.70000000E+00  1.50000000E+00  1.70000000E+00
  1.70000000E+00  1.70000000E+00  1.70000000E+00  1.70000000E+00  1.70000000E+00
  1.70000000E+00  1.70000000E+00  1.30000000E+00  1.70000000E+00  1.30000000E+00
  1.70000000E+00  1.30000000E+00  1.70000000E+00  1.30000000E+00  1.70000000E+00
  1.70000000E+00  1.30000000E+00  1.30000000E+00  1.30000000E+00  1.30000000E+00
  1.55000000E+00  1.55000000E+00  1.70000000E+00  1.30000000E+00  1.55000000E+00
  1.70000000E+00  1.30000000E+00  1.70000000E+00  1.70000000E+00  1.70000000E+00
  1.70000000E+00  1.30000000E+00  1.70000000E+00  1.70000000E+00  1.30000000E+00
  1.70000000E+00  1.70000000E+00  1.70000000E+00  1.70000000E+00  1.70000000E+00
  1.70000000E+00  1.70000000E+00  1.70000000E+00  1.70000000E+00  1.70000000E+00
  1.70000000E+00  1.70000000E+00  1.70000000E+00  1.30000000E+00  1.70000000E+00
  1.30000000E+00  1.30000000E+00  1.70000000E+00  1.30000000E+00  1.70000000E+00
  1.70000000E+00  1.30000000E+00  1.70000000E+00  1.30000000E+00  1.70000000E+00
  1.30000000E+00  1.70000000E+00  1.30000000E+00  1.70000000E+00  1.30000000E+00
  1.70000000E+00  1.30000000E+00  1.70000000E+00  1.30000000E+00  1.70000000E+00
  1.30000000E+00  1.70000000E+00  1.30000000E+00  1.30000000E+00  1.70000000E+00
  1.30000000E+00  1.30000000E+00  1.30000000E+00  1.70000000E+00  1.30000000E+00
  1.70000000E+00  1.30000000E+00  1.30000000E+00  1.70000000E+00  1.30000000E+00
  1.30000000E+00  1.70000000E+00  1.30000000E+00  1.30000000E+00  1.50000000E+00
  1.50000000E+00  1.50000000E+00  1.50000000E+00  1.50000000E+00  1.50000000E+00
  1.70000000E+00  1.70000000E+00  1.70000000E+00  1.70000000E+00  1.70000000E+00
  1.70000000E+00  1.30000000E+00  1.30000000E+00  1.30000000E+00  1.30000000E+00
  1.30000000E+00  1.30000000E+00  1.30000000E+00  1.30000000E+00  1.30000000E+00
  1.30000000E+00  1.30000000E+00  1.30000000E+00  1.30000000E+00  1.30000000E+00
  1.30000000E+00  1.30000000E+00  1.30000000E+00  1.30000000E+00  1.50000000E+00
  1.70000000E+00  1.70000000E+00  1.70000000E+00  1.70000000E+00  1.30000000E+00
  1.30000000E+00  1.30000000E+00  1.70000000E+00  1.30000000E+00  1.70000000E+00
  1.30000000E+00  1.70000000E+00  1.30000000E+00  1.30000000E+00  1.55000000E+00
  1.70000000E+00  1.70000000E+00  1.70000000E+00  1.70000000E+00  1.70000000E+00
  1.70000000E+00  1.70000000E+00  1.30000000E+00  1.70000000E+00  1.30000000E+00
  1.70000000E+00  1.30000000E+00  1.70000000E+00  1.30000000E+00  1.70000000E+00
  1.70000000E+00  1.30000000E+00  1.70000000E+00  1.30000000E+00  1.30000000E+00
  1.70000000E+00  1.70000000E+00  1.70000000E+00  1.70000000E+00  1.50000000E+00
  1.70000000E+00  1.70000000E+00  1.70000000E+00  1.70000000E+00  1.70000000E+00
  1.70000000E+00  1.70000000E+00  1.70000000E+00  1.30000000E+00  1.70000000E+00
  1.30000000E+00  1.70000000E+00  1.30000000E+00  1.70000000E+00  1.30000000E+00
  1.70000000E+00  1.70000000E+00  1.30000000E+00  1.30000000E+00  1.30000000E+00
  1.30000000E+00  1.55000000E+00  1.55000000E+00  1.70000000E+00  1.30000000E+00
  1.55000000E+00  1.70000000E+00  1.30000000E+00  1.70000000E+00  1.70000000E+00
  1.70000000E+00  1.70000000E+00  1.30000000E+00  1.70000000E+00  1.70000000E+00
  1.30000000E+00  1.70000000E+00  1.70000000E+00  1.70000000E+00  1.70000000E+00
  1.70000000E+00  1.70000000E+00  1.70000000E+00  1.70000000E+00  1.70000000E+00
  1.70000000E+00  1.70000000E+00  1.70000000E+00  1.70000000E+00  1.30000000E+00
  1.70000000E+00  1.30000000E+00  1.30000000E+00  1.70000000E+00  1.30000000E+00
  1.70000000E+00  1.70000000E+00  1.30000000E+00  1.70000000E+00  1.30000000E+00
  1.70000000E+00  1.30000000E+00  1.70000000E+00  1.30000000E+00  1.70000000E+00
  1.30000000E+00  1.70000000E+00  1.30000000E+00  1.70000000E+00  1.30000000E+00
  1.70000000E+00  1.30000000E+00  1.70000000E+00  1.30000000E+00  1.30000000E+00
  1.70000000E+00  1.30000000E+00  1.30000000E+00  1.30000000E+00  1.70000000E+00
  1.30000000E+00  1.70000000E+00  1.30000000E+00  1.30000000E+00  1.70000000E+00
  1.30000000E+00  1.30000000E+00  1.70000000E+00  1.30000000E+00  1.30000000E+00
  1.50000000E+00  1.50000000E+00  1.50000000E+00  1.50000000E+00  1.50000000E+00
  1.50000000E+00  1.70000000E+00  1.70000000E+00  1.70000000E+00  1.70000000E+00
  1.70000000E+00  1.70000000E+00  1.30000000E+00  1.30000000E+00  1.30000000E+00
  1.30000000E+00  1.30000000E+00  1.30000000E+00  1.30000000E+00  1.30000000E+00
  1.30000000E+00  1.30000000E+00  1.30000000E+00  1.30000000E+00  1.30000000E+00
  1.30000000E+00  1.30000000E+00  1.30000000E+00  1.30000000E+00  1.30000000E+00
  1.50000000E+00  1.70000000E+00  1.70000000E+00  1.70000000E+00  1.70000000E+00
  1.30000000E+00  1.30000000E+00  1.30000000E+00  1.70000000E+00  1.30000000E+00
  1.70000000E+00  1.30000000E+00  1.70000000E+00  1.30000000E+00  1.30000000E+00
  1.55000000E+00  1.70000000E+00  1.70000000E+00  1.70000000E+00  1.70000000E+00
  1.70000000E+00  1.70000000E+00  1.70000000E+00  1.30000000E+00  1.70000000E+00
  1.30000000E+00  1.70000000E+00  1.30000000E+00  1.70000000E+00  1.30000000E+00
  1.70000000E+00  1.70000000E+00  1.30000000E+00  1.70000000E+00  1.30000000E+00
  1.30000000E+00  1.70000000E+00  1.70000000E+00  1.70000000E+00  1.70000000E+00
  1.50000000E+00  1.70000000E+00  1.70000000E+00  1.70000000E+00  1.70000000E+00
  1.70000000E+00  1.70000000E+00  1.70000000E+00  1.70000000E+00  1.30000000E+00
  1.70000000E+00  1.30000000E+00  1.70000000E+00  1.30000000E+00  1.70000000E+00
  1.30000000E+00  1.70000000E+00  1.70000000E+00  1.30000000E+00  1.30000000E+00
  1.30000000E+00  1.30000000E+00  1.55000000E+00  1.55000000E+00  1.70000000E+00
  1.30000000E+00  1.55000000E+00  1.70000000E+00  1.30000000E+00  1.70000000E+00
  1.70000000E+00  1.70000000E+00  1.70000000E+00  1.30000000E+00  1.70000000E+00
  1.70000000E+00  1.30000000E+00  1.70000000E+00  1.70000000E+00  1.70000000E+00
  1.70000000E+00  1.70000000E+00  1.70000000E+00  1.70000000E+00  1.70000000E+00
  1.70000000E+00  1.70000000E+00  1.70000000E+00  1.70000000E+00  1.70000000E+00
  1.30000000E+00  1.70000000E+00  1.30000000E+00  1.30000000E+00  1.70000000E+00
  1.30000000E+00  1.70000000E+00  1.70000000E+00  1.30000000E+00  1.70000000E+00
  1.30000000E+00  1.70000000E+00  1.30000000E+00  1.70000000E+00  1.30000000E+00
  1.70000000E+00  1.30000000E+00  1.70000000E+00  1.30000000E+00  1.70000000E+00
  1.30000000E+00  1.70000000E+00  1.30000000E+00  1.70000000E+00  1.30000000E+00
  1.30000000E+00  1.70000000E+00  1.30000000E+00  1.30000000E+00  1.30000000E+00
  1.70000000E+00  1.30000000E+00  1.70000000E+00  1.30000000E+00  1.30000000E+00
  1.70000000E+00  1.30000000E+00  1.30000000E+00  1.70000000E+00  1.30000000E+00
  1.30000000E+00  1.50000000E+00  1.50000000E+00  1.50000000E+00  1.50000000E+00
  1.50000000E+00  1.50000000E+00  1.70000000E+00  1.70000000E+00  1.70000000E+00
  1.70000000E+00  1.70000000E+00  1.70000000E+00  1.30000000E+00  1.30000000E+00
  1.30000000E+00  1.30000000E+00  1.30000000E+00  1.30000000E+00  1.30000000E+00
  1.30000000E+00  1.30000000E+00  1.30000000E+00  1.30000000E+00  1.30000000E+00
  1.30000000E+00  1.30000000E+00  1.30000000E+00  1.30000000E+00  1.30000000E+00
  1.30000000E+00  1.50000000E+00  1.70000000E+00  1.70000000E+00  1.70000000E+00
  1.70000000E+00  1.30000000E+00  1.30000000E+00  1.30000000E+00  1.70000000E+00
  1.30000000E+00  1.70000000E+00  1.30000000E+00  1.70000000E+00  1.30000000E+00
  1.30000000E+00  1.55000000E+00  1.70000000E+00  1.70000000E+00  1.70000000E+00
  1.70000000E+00  1.70000000E+00  1.70000000E+00  1.70000000E+00  1.30000000E+00
  1.70000000E+00  1.30000000E+00  1.70000000E+00  1.30000000E+00  1.70000000E+00
  1.30000000E+00  1.70000000E+00  1.70000000E+00  1.30000000E+00  1.70000000E+00
  1.30000000E+00  1.30000000E+00  1.70000000E+00  1.70000000E+00  1.70000000E+00
  1.70000000E+00  1.50000000E+00  1.70000000E+00  1.70000000E+00  1.70000000E+00
  1.70000000E+00  1.70000000E+00  1.70000000E+00  1.70000000E+00  1.70000000E+00
  1.30000000E+00  1.70000000E+00  1.30000000E+00  1.70000000E+00  1.30000000E+00
  1.70000000E+00  1.30000000E+00  1.70000000E+00  1.70000000E+00  1.30000000E+00
  1.30000000E+00  1.30000000E+00  1.30000000E+00  1.55000000E+00  1.55000000E+00
  1.70000000E+00  1.30000000E+00  1.55000000E+00  1.70000000E+00  1.30000000E+00
  1.70000000E+00  1.70000000E+00  1.70000000E+00  1.70000000E+00  1.30000000E+00
  1.70000000E+00  1.70000000E+00  1.30000000E+00  1.70000000E+00  1.70000000E+00
  1.70000000E+00  1.70000000E+00  1.70000000E+00  1.70000000E+00  1.70000000E+00
  1.70000000E+00  1.70000000E+00  1.70000000E+00  1.70000000E+00  1.70000000E+00
  1.70000000E+00  1.30000000E+00  1.70000000E+00  1.30000000E+00  1.30000000E+00
  1.70000000E+00  1.30000000E+00  1.70000000E+00  1.70000000E+00  1.30000000E+00
  1.70000000E+00  1.30000000E+00  1.70000000E+00  1.30000000E+00  1.70000000E+00
  1.30000000E+00  1.70000000E+00  1.30000000E+00  1.70000000E+00  1.30000000E+00
  1.70000000E+00  1.30000000E+00  1.70000000E+00  1.30000000E+00  1.70000000E+00
  1.30000000E+00  1.30000000E+00  1.70000000E+00  1.30000000E+00  1.30000000E+00
  1.30000000E+00  1.70000000E+00  1.30000000E+00  1.70000000E+00  1.30000000E+00
  1.30000000E+00  1.70000000E+00  1.30000000E+00  1.30000000E+00  1.70000000E+00
  1.30000000E+00  1.30000000E+00  1.50000000E+00  1.50000000E+00  1.50000000E+00
  1.50000000E+00  1.50000000E+00  1.50000000E+00  1.70000000E+00  1.70000000E+00
  1.70000000E+00  1.70000000E+00  1.70000000E+00  1.70000000E+00  1.30000000E+00
  1.30000000E+00  1.30000000E+00  1.30000000E+00  1.30000000E+00  1.30000000E+00
  1.30000000E+00  1.30000000E+00  1.30000000E+00  1.30000000E+00  1.30000000E+00
  1.30000000E+00  1.30000000E+00  1.30000000E+00  1.30000000E+00  1.30000000E+00
  1.30000000E+00  1.30000000E+00  1.50000000E+00  1.70000000E+00  1.70000000E+00
  1.70000000E+00  1.70000000E+00  1.30000000E+00  1.30000000E+00  1.30000000E+00
  1.70000000E+00  1.30000000E+00  1.70000000E+00  1.30000000E+00  1.70000000E+00
  1.30000000E+00  1.30000000E+00  1.55000000E+00  1.70000000E+00  1.70000000E+00
  1.70000000E+00  1.70000000E+00  1.70000000E+00  1.70000000E+00  1.70000000E+00
  1.30000000E+00  1.70000000E+00  1.30000000E+00  1.70000000E+00  1.30000000E+00
  1.70000000E+00  1.30000000E+00  1.70000000E+00  1.70000000E+00  1.30000000E+00
  1.70000000E+00  1.30000000E+00  1.30000000E+00  1.70000000E+00  1.70000000E+00
  1.70000000E+00  1.70000000E+00  1.50000000E+00  1.70000000E+00  1.70000000E+00
  1.70000000E+00  1.70000000E+00  1.70000000E+00  1.70000000E+00  1.70000000E+00
  1.70000000E+00  1.30000000E+00  1.70000000E+00  1.30000000E+00  1.70000000E+00
  1.30000000E+00  1.70000000E+00  1.30000000E+00  1.70000000E+00  1.70000000E+00
  1.30000000E+00  1.30000000E+00  1.30000000E+00  1.30000000E+00  1.55000000E+00
  1.55000000E+00  1.70000000E+00  1.30000000E+00  1.55000000E+00  1.70000000E+00
  1.30000000E+00  1.70000000E+00  1.70000000E+00  1.70000000E+00  1.70000000E+00
  1.30000000E+00  1.70000000E+00  1.70000000E+00  1.30000000E+00  1.70000000E+00
  1.70000000E+00  1.70000000E+00  1.70000000E+00  1.70000000E+00  1.70000000E+00
  1.70000000E+00  1.70000000E+00  1.70000000E+00  1.70000000E+00  1.70000000E+00
  1.70000000E+00  1.70000000E+00  1.30000000E+00  1.70000000E+00  1.30000000E+00
  1.30000000E+00  1.70000000E+00  1.30000000E+00  1.70000000E+00  1.70000000E+00
  1.30000000E+00  1.70000000E+00  1.30000000E+00  1.70000000E+00  1.30000000E+00
  1.70000000E+00  1.30000000E+00  1.70000000E+00  1.30000000E+00  1.70000000E+00
  1.30000000E+00  1.70000000E+00  1.30000000E+00  1.70000000E+00  1.30000000E+00
  1.70000000E+00  1.30000000E+00  1.30000000E+00  1.70000000E+00  1.30000000E+00
  1.30000000E+00  1.30000000E+00  1.70000000E+00  1.30000000E+00  1.70000000E+00
  1.30000000E+00  1.30000000E+00  1.70000000E+00  1.30000000E+00  1.30000000E+00
  1.70000000E+00  1.30000000E+00  1.30000000E+00  1.50000000E+00  1.50000000E+00
  1.50000000E+00  1.50000000E+00  1.50000000E+00  1.50000000E+00  1.70000000E+00
  1.70000000E+00  1.70000000E+00  1.70000000E+00  1.70000000E+00  1.70000000E+00
  1.30000000E+00  1.30000000E+00  1.30000000E+00  1.30000000E+00  1.30000000E+00
  1.30000000E+00  1.30000000E+00  1.30000000E+00  1.30000000E+00  1.30000000E+00
  1.30000000E+00  1.30000000E+00  1.30000000E+00  1.30000000E+00  1.30000000E+00
  1.30000000E+00  1.30000000E+00  1.30000000E+00  1.50000000E+00  1.70000000E+00
  1.70000000E+00  1.70000000E+00  1.70000000E+00  1.30000000E+00  1.30000000E+00
  1.30000000E+00  1.70000000E+00  1.30000000E+00  1.70000000E+00  1.30000000E+00
  1.70000000E+00  1.30000000E+00  1.30000000E+00  1.55000000E+00  1.70000000E+00
  1.70000000E+00  1.70000000E+00  1.70000000E+00  1.70000000E+00  1.70000000E+00
  1.70000000E+00  1.30000000E+00  1.70000000E+00  1.30000000E+00  1.70000000E+00
  1.30000000E+00  1.70000000E+00  1.30000000E+00  1.70000000E+00  1.70000000E+00
  1.30000000E+00  1.70000000E+00  1.30000000E+00  1.30000000E+00  1.70000000E+00
  1.70000000E+00  1.70000000E+00  1.70000000E+00  1.50000000E+00  1.70000000E+00
  1.70000000E+00  1.70000000E+00  1.70000000E+00  1.70000000E+00  1.70000000E+00
  1.70000000E+00  1.70000000E+00  1.30000000E+00  1.70000000E+00  1.30000000E+00
  1.70000000E+00  1.30000000E+00  1.70000000E+00  1.30000000E+00  1.70000000E+00
  1.70000000E+00  1.30000000E+00  1.30000000E+00  1.30000000E+00  1.30000000E+00
  1.55000000E+00  1.55000000E+00  1.70000000E+00  1.30000000E+00  1.55000000E+00
  1.70000000E+00  1.30000000E+00  1.70000000E+00  1.70000000E+00  1.70000000E+00
  1.70000000E+00  1.30000000E+00  1.70000000E+00  1.70000000E+00  1.30000000E+00
  1.70000000E+00  1.70000000E+00  1.70000000E+00  1.70000000E+00  1.70000000E+00
  1.70000000E+00  1.70000000E+00  1.70000000E+00  1.70000000E+00  1.70000000E+00
  1.70000000E+00  1.70000000E+00  1.70000000E+00  1.30000000E+00  1.70000000E+00
  1.30000000E+00  1.30000000E+00  1.70000000E+00  1.30000000E+00  1.70000000E+00
  1.70000000E+00  1.30000000E+00  1.70000000E+00  1.30000000E+00  1.70000000E+00
  1.30000000E+00  1.70000000E+00  1.30000000E+00  1.70000000E+00  1.30000000E+00
  1.70000000E+00  1.30000000E+00  1.70000000E+00  1.30000000E+00  1.70000000E+00
  1.30000000E+00  1.70000000E+00  1.30000000E+00  1.30000000E+00  1.70000000E+00
  1.30000000E+00  1.30000000E+00  1.30000000E+00  1.70000000E+00  1.30000000E+00
  1.70000000E+00  1.30000000E+00  1.30000000E+00  1.70000000E+00  1.30000000E+00
  1.30000000E+00  1.70000000E+00  1.30000000E+00  1.30000000E+00  1.50000000E+00
  1.50000000E+00  1.50000000E+00  1.50000000E+00  1.50000000E+00  1.50000000E+00
  1.70000000E+00  1.70000000E+00  1.70000000E+00  1.70000000E+00  1.70000000E+00
  1.70000000E+00  1.30000000E+00  1.30000000E+00  1.30000000E+00  1.30000000E+00
  1.30000000E+00  1.30000000E+00  1.30000000E+00  1.30000000E+00  1.30000000E+00
  1.30000000E+00  1.30000000E+00  1.30000000E+00  1.30000000E+00  1.30000000E+00
  1.30000000E+00  1.30000000E+00  1.30000000E+00  1.30000000E+00  1.50000000E+00
  1.70000000E+00  1.70000000E+00  1.70000000E+00  1.70000000E+00  1.30000000E+00
  1.30000000E+00  1.30000000E+00  1.70000000E+00  1.30000000E+00  1.70000000E+00
  1.30000000E+00  1.70000000E+00  1.30000000E+00  1.30000000E+00  1.55000000E+00
  1.70000000E+00  1.70000000E+00  1.70000000E+00  1.70000000E+00  1.70000000E+00
  1.70000000E+00  1.70000000E+00  1.30000000E+00  1.70000000E+00  1.30000000E+00
  1.70000000E+00  1.30000000E+00  1.70000000E+00  1.30000000E+00  1.70000000E+00
  1.70000000E+00  1.30000000E+00  1.70000000E+00  1.30000000E+00  1.30000000E+00
  1.70000000E+00  1.70000000E+00  1.70000000E+00  1.70000000E+00  1.50000000E+00
  1.70000000E+00  1.70000000E+00  1.70000000E+00  1.70000000E+00  1.70000000E+00
  1.70000000E+00  1.70000000E+00  1.70000000E+00  1.30000000E+00  1.70000000E+00
  1.30000000E+00  1.70000000E+00  1.30000000E+00  1.70000000E+00  1.30000000E+00
  1.70000000E+00  1.70000000E+00  1.30000000E+00  1.30000000E+00  1.30000000E+00
  1.30000000E+00  1.55000000E+00  1.55000000E+00  1.70000000E+00  1.30000000E+00
  1.55000000E+00  1.70000000E+00  1.30000000E+00  1.70000000E+00  1.70000000E+00
  1.70000000E+00  1.70000000E+00  1.30000000E+00  1.70000000E+00  1.70000000E+00
  1.30000000E+00  1.70000000E+00  1.70000000E+00  1.70000000E+00  1.70000000E+00
  1.70000000E+00  1.70000000E+00  1.70000000E+00  1.70000000E+00  1.70000000E+00
  1.70000000E+00  1.70000000E+00  1.70000000E+00  1.70000000E+00  1.30000000E+00
  1.70000000E+00  1.30000000E+00  1.30000000E+00  1.70000000E+00  1.30000000E+00
  1.70000000E+00  1.70000000E+00  1.30000000E+00  1.70000000E+00  1.30000000E+00
  1.70000000E+00  1.30000000E+00  1.70000000E+00  1.30000000E+00  1.70000000E+00
  1.30000000E+00  1.70000000E+00  1.30000000E+00  1.70000000E+00  1.30000000E+00
  1.70000000E+00  1.30000000E+00  1.70000000E+00  1.30000000E+00  1.30000000E+00
  1.70000000E+00  1.30000000E+00  1.30000000E+00  1.30000000E+00  1.70000000E+00
  1.30000000E+00  1.70000000E+00  1.30000000E+00  1.30000000E+00  1.70000000E+00
  1.30000000E+00  1.30000000E+00  1.70000000E+00  1.30000000E+00  1.30000000E+00
  1.50000000E+00  1.50000000E+00  1.50000000E+00  1.50000000E+00  1.50000000E+00
  1.50000000E+00  1.70000000E+00  1.70000000E+00  1.70000000E+00  1.70000000E+00
  1.70000000E+00  1.70000000E+00  1.30000000E+00  1.30000000E+00  1.30000000E+00
  1.30000000E+00  1.30000000E+00  1.30000000E+00  1.30000000E+00  1.30000000E+00
  1.30000000E+00  1.30000000E+00  1.30000000E+00  1.30000000E+00  1.30000000E+00
  1.30000000E+00  1.30000000E+00  1.30000000E+00  1.30000000E+00  1.30000000E+00
  1.50000000E+00  1.70000000E+00  1.70000000E+00  1.70000000E+00  1.70000000E+00
  1.30000000E+00  1.30000000E+00  1.30000000E+00  1.70000000E+00  1.30000000E+00
  1.70000000E+00  1.30000000E+00  1.70000000E+00  1.30000000E+00  1.30000000E+00
  1.55000000E+00  1.70000000E+00  1.70000000E+00  1.70000000E+00  1.70000000E+00
  1.70000000E+00  1.70000000E+00  1.70000000E+00  1.30000000E+00  1.70000000E+00
  1.30000000E+00  1.70000000E+00  1.30000000E+00  1.70000000E+00  1.30000000E+00
  1.70000000E+00  1.70000000E+00  1.30000000E+00  1.70000000E+00  1.30000000E+00
  1.30000000E+00  1.70000000E+00  1.70000000E+00  1.70000000E+00  1.70000000E+00
  1.50000000E+00  1.70000000E+00  1.70000000E+00  1.70000000E+00  1.70000000E+00
  1.70000000E+00  1.70000000E+00  1.70000000E+00  1.70000000E+00  1.30000000E+00
  1.70000000E+00  1.30000000E+00  1.70000000E+00  1.30000000E+00  1.70000000E+00
  1.30000000E+00  1.70000000E+00  1.70000000E+00  1.30000000E+00  1.30000000E+00
  1.30000000E+00  1.30000000E+00  1.55000000E+00  1.55000000E+00  1.70000000E+00
  1.30000000E+00  1.55000000E+00  1.70000000E+00  1.30000000E+00  1.70000000E+00
  1.70000000E+00  1.70000000E+00  1.70000000E+00  1.30000000E+00  1.70000000E+00
  1.70000000E+00  1.30000000E+00  1.70000000E+00  1.70000000E+00  1.70000000E+00
  1.70000000E+00  1.70000000E+00  1.70000000E+00  1.70000000E+00  1.70000000E+00
  1.70000000E+00  1.70000000E+00  1.70000000E+00  1.70000000E+00  1.70000000E+00
  1.30000000E+00  1.70000000E+00  1.30000000E+00  1.30000000E+00  1.70000000E+00
  1.30000000E+00  1.70000000E+00  1.70000000E+00  1.30000000E+00  1.70000000E+00
  1.30000000E+00  1.70000000E+00  1.30000000E+00  1.70000000E+00  1.30000000E+00
  1.70000000E+00  1.30000000E+00  1.70000000E+00  1.30000000E+00  1.70000000E+00
  1.30000000E+00  1.70000000E+00  1.30000000E+00  1.70000000E+00  1.30000000E+00
  1.30000000E+00  1.70000000E+00  1.30000000E+00  1.30000000E+00  1.30000000E+00
  1.70000000E+00  1.30000000E+00  1.70000000E+00  1.30000000E+00  1.30000000E+00
  1.70000000E+00  1.30000000E+00  1.30000000E+00  1.70000000E+00  1.30000000E+00
  1.30000000E+00  1.50000000E+00  1.50000000E+00  1.50000000E+00  1.50000000E+00
  1.50000000E+00  1.50000000E+00  1.70000000E+00  1.70000000E+00  1.70000000E+00
  1.70000000E+00  1.70000000E+00  1.70000000E+00  1.30000000E+00  1.30000000E+00
  1.30000000E+00  1.30000000E+00  1.30000000E+00  1.30000000E+00  1.30000000E+00
  1.30000000E+00  1.30000000E+00  1.30000000E+00  1.30000000E+00  1.30000000E+00
  1.30000000E+00  1.30000000E+00  1.30000000E+00  1.30000000E+00  1.30000000E+00
  1.30000000E+00  1.50000000E+00  1.70000000E+00  1.70000000E+00  1.70000000E+00
  1.70000000E+00  1.30000000E+00  1.30000000E+00  1.30000000E+00  1.70000000E+00
  1.30000000E+00  1.70000000E+00  1.30000000E+00  1.70000000E+00  1.30000000E+00
  1.30000000E+00  1.55000000E+00  1.70000000E+00  1.70000000E+00  1.70000000E+00
  1.70000000E+00  1.70000000E+00  1.70000000E+00  1.70000000E+00  1.30000000E+00
  1.70000000E+00  1.30000000E+00  1.70000000E+00  1.30000000E+00  1.70000000E+00
  1.30000000E+00  1.70000000E+00  1.70000000E+00  1.30000000E+00  1.70000000E+00
  1.30000000E+00  1.30000000E+00  1.70000000E+00  1.70000000E+00  1.70000000E+00
  1.70000000E+00  1.50000000E+00  1.70000000E+00  1.70000000E+00  1.70000000E+00
  1.70000000E+00  1.70000000E+00  1.70000000E+00  1.70000000E+00  1.70000000E+00
  1.30000000E+00  1.70000000E+00  1.30000000E+00  1.70000000E+00  1.30000000E+00
  1.70000000E+00  1.30000000E+00  1.70000000E+00  1.70000000E+00  1.30000000E+00
  1.30000000E+00  1.30000000E+00  1.30000000E+00  1.55000000E+00  1.55000000E+00
  1.70000000E+00  1.30000000E+00  1.55000000E+00  1.70000000E+00  1.30000000E+00
  1.70000000E+00  1.70000000E+00  1.70000000E+00  1.70000000E+00  1.30000000E+00
  1.70000000E+00  1.70000000E+00  1.30000000E+00  1.70000000E+00  1.70000000E+00
  1.70000000E+00  1.70000000E+00  1.70000000E+00  1.70000000E+00  1.70000000E+00
  1.70000000E+00  1.70000000E+00  1.70000000E+00  1.70000000E+00  1.70000000E+00
  1.70000000E+00  1.30000000E+00  1.70000000E+00  1.30000000E+00  1.30000000E+00
  1.70000000E+00  1.30000000E+00  1.70000000E+00  1.70000000E+00  1.30000000E+00
  1.70000000E+00  1.30000000E+00  1.70000000E+00  1.30000000E+00  1.70000000E+00
  1.30000000E+00  1.70000000E+00  1.30000000E+00  1.70000000E+00  1.30000000E+00
  1.70000000E+00  1.30000000E+00  1.70000000E+00  1.30000000E+00  1.70000000E+00
  1.30000000E+00  1.30000000E+00  1.70000000E+00  1.30000000E+00  1.30000000E+00
  1.30000000E+00  1.70000000E+00  1.30000000E+00  1.70000000E+00  1.30000000E+00
  1.30000000E+00  1.70000000E+00  1.30000000E+00  1.30000000E+00  1.70000000E+00
  1.30000000E+00  1.30000000E+00  1.50000000E+00  1.50000000E+00  1.50000000E+00
  1.50000000E+00  1.50000000E+00  1.50000000E+00  1.70000000E+00  1.70000000E+00
  1.70000000E+00  1.70000000E+00  1.70000000E+00  1.70000000E+00  1.30000000E+00
  1.30000000E+00  1.30000000E+00  1.30000000E+00  1.30000000E+00  1.30000000E+00
  1.30000000E+00  1.30000000E+00  1.30000000E+00  1.30000000E+00  1.30000000E+00
  1.30000000E+00  1.30000000E+00  1.30000000E+00  1.30000000E+00  1.30000000E+00
  1.30000000E+00  1.30000000E+00  1.50000000E+00  1.70000000E+00  1.70000000E+00
  1.70000000E+00  1.70000000E+00  1.30000000E+00  1.30000000E+00  1.30000000E+00
  1.70000000E+00  1.30000000E+00  1.70000000E+00  1.30000000E+00  1.70000000E+00
  1.30000000E+00  1.30000000E+00  1.55000000E+00  1.70000000E+00  1.70000000E+00
  1.70000000E+00  1.70000000E+00  1.70000000E+00  1.70000000E+00  1.70000000E+00
  1.30000000E+00  1.70000000E+00  1.30000000E+00  1.70000000E+00  1.30000000E+00
  1.70000000E+00  1.30000000E+00  1.70000000E+00  1.70000000E+00  1.30000000E+00
  1.70000000E+00  1.30000000E+00  1.30000000E+00  1.70000000E+00  1.70000000E+00
  1.70000000E+00  1.70000000E+00  1.50000000E+00  1.70000000E+00  1.70000000E+00
  1.70000000E+00  1.70000000E+00  1.70000000E+00  1.70000000E+00  1.70000000E+00
  1.70000000E+00  1.30000000E+00  1.70000000E+00  1.30000000E+00  1.70000000E+00
  1.30000000E+00  1.70000000E+00  1.30000000E+00  1.70000000E+00  1.70000000E+00
  1.30000000E+00  1.30000000E+00  1.30000000E+00  1.30000000E+00  1.55000000E+00
  1.55000000E+00  1.70000000E+00  1.30000000E+00  1.55000000E+00  1.70000000E+00
  1.30000000E+00  1.70000000E+00  1.70000000E+00  1.70000000E+00  1.70000000E+00
  1.30000000E+00  1.70000000E+00  1.70000000E+00  1.30000000E+00  1.70000000E+00
  1.70000000E+00  1.70000000E+00  1.70000000E+00  1.70000000E+00  1.70000000E+00
  1.70000000E+00  1.70000000E+00  1.70000000E+00  1.70000000E+00  1.70000000E+00
  1.70000000E+00  1.70000000E+00  1.30000000E+00  1.70000000E+00  1.30000000E+00
  1.30000000E+00  1.70000000E+00  1.30000000E+00  1.70000000E+00  1.70000000E+00
  1.30000000E+00  1.70000000E+00  1.30000000E+00  1.70000000E+00  1.30000000E+00
  1.70000000E+00  1.30000000E+00  1.70000000E+00  1.30000000E+00  1.70000000E+00
  1.30000000E+00  1.70000000E+00  1.30000000E+00  1.70000000E+00  1.30000000E+00
  1.70000000E+00  1.30000000E+00  1.30000000E+00  1.70000000E+00  1.30000000E+00
  1.30000000E+00  1.30000000E+00  1.70000000E+00  1.30000000E+00  1.70000000E+00
  1.30000000E+00  1.30000000E+00  1.70000000E+00  1.30000000E+00  1.30000000E+00
  1.70000000E+00  1.30000000E+00  1.30000000E+00  1.50000000E+00  1.50000000E+00
  1.50000000E+00  1.50000000E+00  1.50000000E+00  1.50000000E+00  1.70000000E+00
  1.70000000E+00  1.70000000E+00  1.70000000E+00  1.70000000E+00  1.70000000E+00
  1.30000000E+00  1.30000000E+00  1.30000000E+00  1.30000000E+00  1.30000000E+00
  1.30000000E+00  1.30000000E+00  1.30000000E+00  1.30000000E+00  1.30000000E+00
  1.30000000E+00  1.30000000E+00  1.30000000E+00  1.30000000E+00  1.30000000E+00
  1.30000000E+00  1.30000000E+00  1.30000000E+00  1.50000000E+00  1.70000000E+00
  1.70000000E+00  1.70000000E+00  1.70000000E+00  1.30000000E+00  1.30000000E+00
  1.30000000E+00  1.70000000E+00  1.30000000E+00  1.70000000E+00  1.30000000E+00
  1.70000000E+00  1.30000000E+00  1.30000000E+00  1.55000000E+00  1.70000000E+00
  1.70000000E+00  1.70000000E+00  1.70000000E+00  1.70000000E+00  1.70000000E+00
  1.70000000E+00  1.30000000E+00  1.70000000E+00  1.30000000E+00  1.70000000E+00
  1.30000000E+00  1.70000000E+00  1.30000000E+00  1.70000000E+00  1.70000000E+00
  1.30000000E+00  1.70000000E+00  1.30000000E+00  1.30000000E+00  1.70000000E+00
  1.70000000E+00  1.70000000E+00  1.70000000E+00  1.50000000E+00  1.70000000E+00
  1.70000000E+00  1.70000000E+00  1.70000000E+00  1.70000000E+00  1.70000000E+00
  1.70000000E+00  1.70000000E+00  1.30000000E+00  1.70000000E+00  1.30000000E+00
  1.70000000E+00  1.30000000E+00  1.70000000E+00  1.30000000E+00  1.70000000E+00
  1.70000000E+00  1.30000000E+00  1.30000000E+00  1.30000000E+00  1.30000000E+00
  1.55000000E+00  1.55000000E+00  1.70000000E+00  1.30000000E+00  1.55000000E+00
  1.70000000E+00  1.30000000E+00  1.70000000E+00  1.70000000E+00  1.70000000E+00
  1.70000000E+00  1.30000000E+00  1.70000000E+00  1.70000000E+00  1.30000000E+00
  1.70000000E+00  1.70000000E+00  1.70000000E+00  1.70000000E+00  1.70000000E+00
  1.70000000E+00  1.70000000E+00  1.70000000E+00  1.70000000E+00  1.70000000E+00
  1.70000000E+00  1.70000000E+00  1.70000000E+00  1.30000000E+00  1.70000000E+00
  1.30000000E+00  1.30000000E+00  1.70000000E+00  1.30000000E+00  1.70000000E+00
  1.70000000E+00  1.30000000E+00  1.70000000E+00  1.30000000E+00  1.70000000E+00
  1.30000000E+00  1.70000000E+00  1.30000000E+00  1.70000000E+00  1.30000000E+00
  1.70000000E+00  1.30000000E+00  1.70000000E+00  1.30000000E+00  1.70000000E+00
  1.30000000E+00  1.70000000E+00  1.30000000E+00  1.30000000E+00  1.70000000E+00
  1.30000000E+00  1.30000000E+00  1.30000000E+00  1.70000000E+00  1.30000000E+00
  1.70000000E+00  1.30000000E+00  1.30000000E+00  1.70000000E+00  1.30000000E+00
  1.30000000E+00  1.70000000E+00  1.30000000E+00  1.30000000E+00  1.50000000E+00
  1.50000000E+00  1.50000000E+00  1.50000000E+00  1.50000000E+00  1.50000000E+00
  1.70000000E+00  1.70000000E+00  1.70000000E+00  1.70000000E+00  1.70000000E+00
  1.70000000E+00  1.30000000E+00  1.30000000E+00  1.30000000E+00  1.30000000E+00
  1.30000000E+00  1.30000000E+00  1.30000000E+00  1.30000000E+00  1.30000000E+00
  1.30000000E+00  1.30000000E+00  1.30000000E+00  1.30000000E+00  1.30000000E+00
  1.30000000E+00  1.30000000E+00  1.30000000E+00  1.30000000E+00  1.50000000E+00
  1.70000000E+00  1.70000000E+00  1.70000000E+00  1.70000000E+00  1.30000000E+00
  1.30000000E+00  1.30000000E+00  1.70000000E+00  1.30000000E+00  1.70000000E+00
  1.30000000E+00  1.70000000E+00  1.30000000E+00  1.30000000E+00  1.55000000E+00
  1.70000000E+00  1.70000000E+00  1.70000000E+00  1.70000000E+00  1.70000000E+00
  1.70000000E+00  1.70000000E+00  1.30000000E+00  1.70000000E+00  1.30000000E+00
  1.70000000E+00  1.30000000E+00  1.70000000E+00  1.30000000E+00  1.70000000E+00
  1.70000000E+00  1.30000000E+00  1.70000000E+00  1.30000000E+00  1.30000000E+00
  1.70000000E+00  1.70000000E+00  1.70000000E+00  1.70000000E+00  1.50000000E+00
  1.70000000E+00  1.70000000E+00  1.70000000E+00  1.70000000E+00  1.70000000E+00
  1.70000000E+00  1.70000000E+00  1.70000000E+00  1.30000000E+00  1.70000000E+00
  1.30000000E+00  1.70000000E+00  1.30000000E+00  1.70000000E+00  1.30000000E+00
  1.70000000E+00  1.70000000E+00  1.30000000E+00  1.30000000E+00  1.30000000E+00
  1.30000000E+00  1.55000000E+00  1.55000000E+00  1.70000000E+00  1.30000000E+00
  1.55000000E+00  1.70000000E+00  1.30000000E+00  1.70000000E+00  1.70000000E+00
  1.70000000E+00  1.70000000E+00  1.30000000E+00  1.70000000E+00  1.70000000E+00
  1.30000000E+00  1.70000000E+00  1.70000000E+00  1.70000000E+00  1.70000000E+00
  1.70000000E+00  1.70000000E+00  1.70000000E+00  1.70000000E+00  1.70000000E+00
  1.70000000E+00  1.70000000E+00  1.70000000E+00  1.70000000E+00  1.30000000E+00
  1.70000000E+00  1.30000000E+00  1.30000000E+00  1.70000000E+00  1.30000000E+00
  1.70000000E+00  1.70000000E+00  1.30000000E+00  1.70000000E+00  1.30000000E+00
  1.70000000E+00  1.30000000E+00  1.70000000E+00  1.30000000E+00  1.70000000E+00
  1.30000000E+00  1.70000000E+00  1.30000000E+00  1.70000000E+00  1.30000000E+00
  1.70000000E+00  1.30000000E+00  1.70000000E+00  1.30000000E+00  1.30000000E+00
  1.70000000E+00  1.30000000E+00  1.30000000E+00  1.30000000E+00  1.70000000E+00
  1.30000000E+00  1.70000000E+00  1.30000000E+00  1.30000000E+00  1.70000000E+00
  1.30000000E+00  1.30000000E+00  1.70000000E+00  1.30000000E+00  1.30000000E+00
  1.50000000E+00  1.50000000E+00  1.50000000E+00  1.50000000E+00  1.50000000E+00
  1.50000000E+00  1.70000000E+00  1.70000000E+00  1.70000000E+00  1.70000000E+00
  1.70000000E+00  1.70000000E+00  1.30000000E+00  1.30000000E+00  1.30000000E+00
  1.30000000E+00  1.30000000E+00  1.30000000E+00  1.30000000E+00  1.30000000E+00
  1.30000000E+00  1.30000000E+00  1.30000000E+00  1.30000000E+00  1.30000000E+00
  1.30000000E+00  1.30000000E+00  1.30000000E+00  1.30000000E+00  1.30000000E+00
%FLAG SCREEN                                                                    
%FORMAT(5E16.8)                                                                 
  8.50000000E-01  7.20000000E-01  7.20000000E-01  7.20000000E-01  7.20000000E-01
  8.50000000E-01  8.50000000E-01  8.50000000E-01  7.20000000E-01  8.50000000E-01
  7.20000000E-01  8.50000000E-01  7.20000000E-01  8.50000000E-01  8.50000000E-01
  7.90000000E-01  7.20000000E-01  7.20000000E-01  7.20000000E-01  7.20000000E-01
  7.20000000E-01  7.20000000E-01  7.20000000E-01  8.50000000E-01  7.20000000E-01
  8.50000000E-01  7.20000000E-01  8.50000000E-01  7.20000000E-01  8.50000000E-01
  7.20000000E-01  7.20000000E-01  8.50000000E-01  7.20000000E-01  8.50000000E-01
  8.50000000E-01  7.20000000E-01  7.20000000E-01  7.20000000E-01  7.20000000E-01
  8.50000000E-01  7.20000000E-01  7.20000000E-01  7.20000000E-01  7.20000000E-01
  7.20000000E-01  7.20000000E-01  7.20000000E-01  7.20000000E-01  8.50000000E-01
  7.20000000E-01  8.50000000E-01  7.20000000E-01  8.50000000E-01  7.20000000E-01
  8.50000000E-01  7.20000000E-01  7.20000000E-01  8.50000000E-01  8.50000000E-01
  8.50000000E-01  8.50000000E-01  7.90000000E-01  7.90000000E-01  7.20000000E-01
  8.50000000E-01  7.90000000E-01  7.20000000E-01  8.50000000E-01  7.20000000E-01
  7.20000000E-01  7.20000000E-01  7.20000000E-01  8.50000000E-01  7.20000000E-01
  7.20000000E-01  8.50000000E-01  7.20000000E-01  7.20000000E-01  7.20000000E-01
  7.20000000E-01  7.20000000E-01  7.20000000E-01  7.20000000E-01  7.20000000E-01
  7.20000000E-01  7.20000000E-01  7.20000000E-01  7.20000000E-01  7.20000000E-01
  8.50000000E-01  7.20000000E-01  8.50000000E-01  8.50000000E-01  7.20000000E-01
  8.50000000E-01  7.20000000E-01  7.20000000E-01  8.50000000E-01  7.20000000E-01
  8.50000000E-01  7.20000000E-01  8.50000000E-01  7.20000000E-01  8.50000000E-01
  7.20000000E-01  8.50000000E-01  7.20000000E-01  8.50000000E-01  7.20000000E-01
  8.50000000E-01  7.20000000E-01  8.50000000E-01  7.20000000E-01  8.50000000E-01
  8.50000000E-01  7.20000000E-01  8.50000000E-01  8.50000000E-01  8.50000000E-01
  7.20000000E-01  8.50000000E-01  7.20000000E-01  8.50000000E-01  8.50000000E-01
  7.20000000E-01  8.50000000E-01  8.50000000E-01  7.20000000E-01  8.50000000E-01
  8.50000000E-01  8.50000000E-01  8.50000000E-01  8.50000000E-01  8.50000000E-01
  8.50000000E-01  8.50000000E-01  7.20000000E-01  7.20000000E-01  7.20000000E-01
  7.20000000E-01  7.20000000E-01  7.20000000E-01  8.50000000E-01  8.50000000E-01
  8.50000000E-01  8.50000000E-01  8.50000000E-01  8.50000000E-01  8.50000000E-01
  8.50000000E-01  8.50000000E-01  8.50000000E-01  8.50000000E-01  8.50000000E-01
  8.50000000E-01  8.50000000E-01  8.50000000E-01  8.50000000E-01  8.50000000E-01
  8.50000000E-01  8.50000000E-01  7.20000000E-01  7.20000000E-01  7.20000000E-01
  7.20000000E-01  8.50000000E-01  8.50000000E-01  8.50000000E-01  7.20000000E-01
  8.50000000E-01  7.20000000E-01  8.50000000E-01  7.20000000E-01  8.50000000E-01
  8.50000000E-01  7.90000000E-01  7.20000000E-01  7.20000000E-01  7.20000000E-01
  7.20000000E-01  7.20000000E-01  7.20000000E-01  7.20000000E-01  8.50000000E-01
  7.20000000E-01  8.50000000E-01  7.20000000E-01  8.50000000E-01  7.20000000E-01
  8.50000000E-01  7.20000000E-01  7.20000000E-01  8.50000000E-01  7.20000000E-01
  8.50000000E-01  8.50000000E-01  7.20000000E-01  7.20000000E-01  7.20000000E-01
  7.20000000E-01  8.50000000E-01  7.20000000E-01  7.20000000E-01  7.20000000E-01
  7.20000000E-01  7.20000000E-01  7.20000000E-01  7.20000000E-01  7.20000000E-01
  8.50000000E-01  7.20000000E-01  8.50000000E-01  7.20000000E-01  8.50000000E-01
  7.20000000E-01  8.50000000E-01  7.20000000E-01  7.20000000E-01  8.50000000E-01
  8.50000000E-01  8.50000000E-01  8.50000000E-01  7.90000000E-01  7.90000000E-01
  7.20000000E-01  8.50000000E-01  7.90000000E-01  7.20000000E-01  8.50000000E-01
  7.20000000E-01  7.20000000E-01  7.20000000E-01  7.20000000E-01  8.50000000E-01
  7.20000000E-01  7.20000000E-01  8.50000000E-01  7.20000000E-01  7.20000000E-01
  7.20000000E-01  7.20000000E-01  7.20000000E-01  7.20000000E-01  7.20000000E-01
  7.20000000E-01  7.20000000E-01  7.20000000E-01  7.20000000E-01  7.20000000E-01
  7.20000000E-01  8.50000000E-01  7.20000000E-01  8.50000000E-01  8.50000000E-01
  7.20000000E-01  8.50000000E-01  7.20000000E-01  7.20000000E-01  8.50000000E-01
  7.20000000E-01  8.50000000E-01  7.20000000E-01  8.50000000E-01  7.20000000E-01
  8.50000000E-01  7.20000000E-01  8.50000000E-01  7.20000000E-01  8.50000000E-01
  7.20000000E-01  8.50000000E-01  7.20000000E-01  8.50000000E-01  7.20000000E-01
  8.50000000E-01  8.50000000E-01  7.20000000E-01  8.50000000E-01  8.50000000E-01
  8.50000000E-01  7.20000000E-01  8.50000000E-01  7.20000000E-01  8.50000000E-01
  8.50000000E-01  7.20000000E-01  8.50000000E-01  8.50000000E-01  7.20000000E-01
  8.50000000E-01  8.50000000E-01  8.50000000E-01  8.50000000E-01  8.50000000E-01
  8.50000000E-01  8.50000000E-01  8.50000000E-01  7.20000000E-01  7.20000000E-01
  7.20000000E-01  7.20000000E-01  7.20000000E-01  7.20000000E-01  8.50000000E-01
  8.50000000E-01  8.50000000E-01  8.50000000E-01  8.50000000E-01  8.50000000E-01
  8.50000000E-01  8.50000000E-01  8.50000000E-01  8.50000000E-01  8.50000000E-01
  8.50000000E-01  8.50000000E-01  8.50000000E-01  8.50000000E-01  8.50000000E-01
  8.50000000E-01  8.50000000E-01  8.50000000E-01  7.20000000E-01  7.20000000E-01
  7.20000000E-01  7.20000000E-01  8.50000000E-01  8.50000000E-01  8.50000000E-01
  7.20000000E-01  8.50000000E-01  7.20000000E-01  8.50000000E-01  7.20000000E-01
  8.50000000E-01  8.50000000E-01  7.90000000E-01  7.20000000E-01  7.20000000E-01
  7.20000000E-01  7.20000000E-01  7.20000000E-01  7.20000000E-01  7.20000000E-01
  8.50000000E-01  7.20000000E-01  8.50000000E-01  7.20000000E-01  8.50000000E-01
  7.20000000E-01  8.50000000E-01  7.20000000E-01  7.20000000E-01  8.50000000E-01
  7.20000000E-01  8.50000000E-01  8.50000000E-01  7.20000000E-01  7.20000000E-01
  7.20000000E-01  7.20000000E-01  8.50000000E-01  7.20000000E-01  7.20000000E-01
  7.20000000E-01  7.20000000E-01  7.20000000E-01  7.20000000E-01  7.20000000E-01
  7.20000000E-01  8.50000000E-01  7.20000000E-01  8.50000000E-01  7.20000000E-01
  8.50000000E-01  7.20000000E-01  8.50000000E-01  7.20000000E-01  7.20000000E-01
  8.50000000E-01  8.50000000E-01  8.50000000E-01  8.50000000E-01  7.90000000E-01
  7.90000000E-01  7.20000000E-01  8.50000000E-01  7.90000000E-01  7.20000000E-01
  8.50000000E-01  7.20000000E-01  7.20000000E-01  7.20000000E-01  7.20000000E-01
  8.50000000E-01  7.20000000E-01  7.20000000E-01  8.50000000E-01  7.20000000E-01
  7.20000000E-01  7.20000000E-01  7.20000000E-01  7.20000000E-01  7.20000000E-01
  7.20000000E-01  7.20000000E-01  7.20000000E-01  7.20000000E-01  7.20000000E-01
  7.20000000E-01  7.20000000E-01  8.50000000E-01  7.20000000E-01  8.50000000E-01
  8.50000000E-01  7.20000000E-01  8.50000000E-01  7.20000000E-01  7.20000000E-01
  8.50000000E-01  7.20000000E-01  8.50000000E-01  7.20000000E-01  8.50000000E-01
  7.20000000E-01  8.50000000E-01  7.20000000E-01  8.50000000E-01  7.20000000E-01
  8.50000000E-01  7.20000000E-01  8.50000000E-01  7.20000000E-01  8.50000000E-01
  7.20000000E-01  8.50000000E-01  8.50000000E-01  7.20000000E-01  8.50000000E-01
  8.50000000E-01  8.50000000E-01  7.20000000E-01  8.50000000E-01  7.20000000E-01
  8.50000000E-01  8.50000000E-01  7.20000000E-01  8.50000000E-01  8.50000000E-01
  7.20000000E-01  8.50000000E-01  8.50000000E-01  8.50000000E-01  8.50000000E-01
  8.50000000E-01  8.50000000E-01  8.50000000E-01  8.50000000E-01  7.20000000E-01
  7.20000000E-01  7.20000000E-01  7.20000000E-01  7.20000000E-01  7.20000000E-01
  8.50000000E-01  8.50000000E-01  8.50000000E-01  8.50000000E-01  8.50000000E-01
  8.50000000E-01  8.50000000E-01  8.50000000E-01  8.50000000E-01  8.50000000E-01
  8.50000000E-01  8.50000000E-01  8.50000000E-01  8.50000000E-01  8.50000000E-01
  8.50000000E-01  8.50000000E-01  8.50000000E-01  8.50000000E-01  7.20000000E-01
  7.20000000E-01  7.20000000E-01  7.20000000E-01  8.50000000E-01  8.50000000E-01
  8.50000000E-01  7.20000000E-01  8.50000000E-01  7.20000000E-01  8.50000000E-01
  7.20000000E-01  8.50000000E-01  8.50000000E-01  7.90000000E-01  7.20000000E-01
  7.20000000E-01  7.20000000E-01  7.20000000E-01  7.20000000E-01  7.20000000E-01
  7.20000000E-01  8.50000000E-01  7.20000000E-01  8.50000000E-01  7.20000000E-01
  8.50000000E-01  7.20000000E-01  8.50000000E-01  7.20000000E-01  7.20000000E-01
  8.50000000E-01  7.20000000E-01  8.50000000E-01  8.50000000E-01  7.20000000E-01
  7.20000000E-01  7.20000000E-01  7.20000000E-01  8.50000000E-01  7.20000000E-01
  7.20000000E-01  7.20000000E-01  7.20000000E-01  7.20000000E-01  7.20000000E-01
  7.20000000E-01  7.20000000E-01  8.50000000E-01  7.20000000E-01  8.50000000E-01
  7.20000000E-01  8.50000000E-01  7.20000000E-01  8.50000000E-01  7.20000000E-01
  7.20000000E-01  8.50000000E-01  8.50000000E-01  8.50000000E-01  8.50000000E-01
  7.90000000E-01  7.90000000E-01  7.20000000E-01  8.50000000E-01  7.90000000E-01
  7.20000000E-01  8.50000000E-01  7.20000000E-01  7.20000000E-01  7.20000000E-01
  7.20000000E-01  8.50000000E-01  7.20000000E-01  7.20000000E-01  8.50000000E-01
  7.20000000E-01  7.20000000E-01  7.20000000E-01  7.20000000E-01  7.20000000E-01
  7.20000000E-01  7.20000000E-01  7.20000000E-01  7.20000000E-01  7.20000000E-01
  7.20000000E-01  7.20000000E-01  7.20000000E-01  8.50000000E-01  7.20000000E-01
  8.50000000E-01  8.50000000E-01  7.20000000E-01  8.50000000E-01  7.20000000E-01
  7.20000000E-01  8.50000000E-01  7.20000000E-01  8.50000000E-01  7.20000000E-01
  8.50000000E-01  7.20000000E-01  8.50000000E-01  7.20000000E-01  8.50000000E-01
  7.20000000E-01  8.50000000E-01  7.20000000E-01  8.50000000E-01  7.20000000E-01
  8.50000000E-01  7.20000000E-01  8.50000000E-01  8.50000000E-01  7.20000000E-01
  8.50000000E-01  8.50000000E-01  8.50000000E-01  7.20000000E-01  8.50000000E-01
  7.20000000E-01  8.50000000E-01  8.50000000E-01  7.20000000E-01  8.50000000E-01
  8.50000000E-01  7.20000000E-01  8.50000000E-01  8.50000000E-01  8.50000000E-01
  8.50000000E-01  8.50000000E-01  8.50000000E-01  8.50000000E-01  8.50000000E-01
  7.20000000E-01  7.20000000E-01  7.20000000E-01  7.20000000E-01  7.20000000E-01
  7.20000000E-01  8.50000000E-01  8.50000000E-01  8.50000000E-01  8.50000000E-01
  8.50000000E-01  8.50000000E-01  8.50000000E-01  8.50000000E-01  8.50000000E-01
  8.50000000E-01  8.50000000E-01  8.50000000E-01  8.50000000E-01  8.50000000E-01
  8.50000000E-01  8.50000000E-01  8.50000000E-01  8.50000000E-01  8.50000000E-01
  7.20000000E-01  7.20000000E-01  7.20000000E-01  7.20000000E-01  8.50000000E-01
  8.50000000E-01  8.50000000E-01  7.20000000E-01  8.50000000E-01  7.20000000E-01
  8.50000000E-01  7.20000000E-01  8.50000000E-01  8.50000000E-01  7.90000000E-01
  7.20000000E-01  7.20000000E-01  7.20000000E-01  7.20000000E-01  7.20000000E-01
  7.20000000E-01  7.20000000E-01  8.50000000E-01  7.20000000E-01  8.50000000E-01
  7.20000000E-01  8.50000000E-01  7.20000000E-01  8.50000000E-01  7.20000000E-01
  7.20000000E-01  8.50000000E-01  7.20000000E-01  8.50000000E-01  8.50000000E-01
  7.20000000E-01  7.20000000E-01  7.20000000E-01  7.20000000E-01  8.50000000E-01
  7.20000000E-01  7.20000000E-01  7.20000000E-01  7.20000000E-01  7.20000000E-01
  7.20000000E-01  7.20000000E-01  7.20000000E-01  8.50000000E-01  7.20000000E-01
  8.50000000E-01  7.20000000E-01  8.50000000E-01  7.20000000E-01  8.50000000E-01
  7.20000000E-01  7.20000000E-01  8.50000000E-01  8.50000000E-01  8.50000000E-01
  8.50000000E-01  7.90000000E-01  7.90000000E-01  7.20000000E-01  8.50000000E-01
  7.90000000E-01  7.20000000E-01  8.50000000E-01  7.20000000E-01  7.20000000E-01
  7.20000000E-01  7.20000000E-01  8.50000000E-01  7.20000000E-01  7.20000000E-01
  8.50000000E-01  7.20000000E-01  7.20000000E-01  7.20000000E-01  7.20000000E-01
  7.20000000E-01  7.20000000E-01  7.20000000E-01  7.20000000E-01  7.20000000E-01
  7.20000000E-01  7.20000000E-01  7.20000000E-01  7.20000000E-01  8.50000000E-01
  7.20000000E-01  8.50000000E-01  8.50000000E-01  7.20000000E-01  8.50000000E-01
  7.20000000E-01  7.20000000E-01  8.50000000E-01  7.20000000E-01  8.50000000E-01
  7.20000000E-01  8.50000000E-01  7.20000000E-01  8.50000000E-01  7.20000000E-01
  8.50000000E-01  7.20000000E-01  8.50000000E-01  7.20000000E-01  8.50000000E-01
  7.20000000E-01  8.50000000E-01  7.20000000E-01  8.50000000E-01  8.50000000E-01
  7.20000000E-01  8.50000000E-01  8.50000000E-01  8.50000000E-01  7.20000000E-01
  8.50000000E-01  7.20000000E-01  8.50000000E-01  8.50000000E-01  7.20000000E-01
  8.50000000E-01  8.50000000E-01  7.20000000E-01  8.50000000E-01  8.50000000E-01
  8.50000000E-01  8.50000000E-01  8.50000000E-01  8.50000000E-01  8.50000000E-01
  8.50000000E-01  7.20000000E-01  7.20000000E-01  7.20000000E-01  7.20000000E-01
  7.20000000E-01  7.20000000E-01  8.50000000E-01  8.50000000E-01  8.50000000E-01
  8.50000000E-01  8.50000000E-01  8.50000000E-01  8.50000000E-01  8.50000000E-01
  8.50000000E-01  8.50000000E-01  8.50000000E-01  8.50000000E-01  8.50000000E-01
  8.50000000E-01  8.50000000E-01  8.50000000E-01  8.50000000E-01  8.50000000E-01
  8.50000000E-01  7.20000000E-01  7.20000000E-01  7.20000000E-01  7.20000000E-01
  8.50000000E-01  8.50000000E-01  8.50000000E-01  7.20000000E-01  8.50000000E-01
  7.20000000E-01  8.50000000E-01  7.20000000E-01  8.50000000E-01  8.50000000E-01
  7.90000000E-01  7.20000000E-01  7.20000000E-01  7.20000000E-01  7.20000000E-01
  7.20000000E-01  7.20000000E-01  7.20000000E-01  8.50000000E-01  7.20000000E-01
  8.50000000E-01  7.20000000E-01  8.50000000E-01  7.20000000E-01  8.50000000E-01
  7.20000000E-01  7.20000000E-01  8.50000000E-01  7.20000000E-01  8.50000000E-01
  8.50000000E-01  7.20000000E-01  7.20000000E-01  7.20000000E-01  7.20000000E-01
  8.50000000E-01  7.20000000E-01  7.20000000E-01  7.20000000E-01  7.20000000E-01
  7.20000000E-01  7.20000000E-01  7.20000000E-01  7.20000000E-01  8.50000000E-01
  7.20000000E-01  8.50000000E-01  7.20000000E-01  8.50000000E-01  7.20000000E-01
  8.50000000E-01  7.20000000E-01  7.20000000E-01  8.50000000E-01  8.50000000E-01
  8.50000000E-01  8.50000000E-01  7.90000000E-01  7.90000000E-01  7.20000000E-01
  8.50000000E-01  7.90000000E-01  7.20000000E-01  8.50000000E-01  7.20000000E-01
  7.20000000E-01  7.20000000E-01  7.20000000E-01  8.50000000E-01  7.20000000E-01
  7.20000000E-01  8.50000000E-01  7.20000000E-01  7.20000000E-01  7.20000000E-01
  7.20000000E-01  7.20000000E-01  7.20000000E-01  7.20000000E-01  7.20000000E-01
  7.20000000E-01  7.20000000E-01  7.20000000E-01  7.20000000E-01  7.20000000E-01
  8.50000000E-01  7.20000000E-01  8.50000000E-01  8.50000000E-01  7.20000000E-01
  8.50000000E-01  7.20000000E-01  7.20000000E-01  8.50000000E-01  7.20000000E-01
  8.50000000E-01  7.20000000E-01  8.50000000E-01  7.20000000E-01  8.50000000E-01
  7.20000000E-01  8.50000000E-01  7.20000000E-01  8.50000000E-01  7.20000000E-01
  8.50000000E-01  7.20000000E-01  8.50000000E-01  7.20000000E-01  8.50000000E-01
  8.50000000E-01  7.20000000E-01  8.50000000E-01  8.50000000E-01  8.50000000E-01
  7.20000000E-01  8.50000000E-01  7.20000000E-01  8.50000000E-01  8.50000000E-01
  7.20000000E-01  8.50000000E-01  8.50000000E-01  7.20000000E-01  8.50000000E-01
  8.50000000E-01  8.50000000E-01  8.50000000E-01  8.50000000E-01  8.50000000E-01
  8.50000000E-01  8.50000000E-01  7.20000000E-01  7.20000000E-01  7.20000000E-01
  7.20000000E-01  7.20000000E-01  7.20000000E-01  8.50000000E-01  8.50000000E-01
  8.50000000E-01  8.50000000E-01  8.50000000E-01  8.50000000E-01  8.50000000E-01
  8.50000000E-01  8.50000000E-01  8.50000000E-01  8.50000000E-01  8.50000000E-01
  8.50000000E-01  8.50000000E-01  8.50000000E-01  8.50000000E-01  8.50000000E-01
  8.50000000E-01  8.50000000E-01  7.20000000E-01  7.20000000E-01  7.20000000E-01
  7.20000000E-01  8.50000000E-01  8.50000000E-01  8.50000000E-01  7.20000000E-01
  8.50000000E-01  7.20000000E-01  8.50000000E-01  7.20000000E-01  8.50000000E-01
  8.50000000E-01  7.90000000E-01  7.20000000E-01  7.20000000E-01  7.20000000E-01
  7.20000000E-01  7.20000000E-01  7.20000000E-01  7.20000000E-01  8.50000000E-01
  7.20000000E-01  8.50000000E-01  7.20000000E-01  8.50000000E-01  7.20000000E-01
  8.50000000E-01  7.20000000E-01  7.20000000E-01  8.50000000E-01  7.20000000E-01
  8.50000000E-01  8.50000000E-01  7.20000000E-01  7.20000000E-01  7.20000000E-01
  7.20000000E-01  8.50000000E-01  7.20000000E-01  7.20000000E-01  7.20000000E-01
  7.20000000E-01  7.20000000E-01  7.20000000E-01  7.20000000E-01  7.20000000E-01
  8.50000000E-01  7.20000000E-01  8.50000000E-01  7.20000000E-01  8.50000000E-01
  7.20000000E-01  8.50000000E-01  7.20000000E-01  7.20000000E-01  8.50000000E-01
  8.50000000E-01  8.50000000E-01  8.50000000E-01  7.90000000E-01  7.90000000E-01
  7.20000000E-01  8.50000000E-01  7.90000000E-01  7.20000000E-01  8.50000000E-01
  7.20000000E-01  7.20000000E-01  7.20000000E-01  7.20000000E-01  8.50000000E-01
  7.20000000E-01  7.20000000E-01  8.50000000E-01  7.20000000E-01  7.20000000E-01
  7.20000000E-01  7.20000000E-01  7.20000000E-01  7.20000000E-01  7.20000000E-01
  7.20000000E-01  7.20000000E-01  7.20000000E-01  7.20000000E-01  7.20000000E-01
  7.20000000E-01  8.50000000E-01  7.20000000E-01  8.50000000E-01  8.50000000E-01
  7.20000000E-01  8.50000000E-01  7.20000000E-01  7.20000000E-01  8.50000000E-01
  7.20000000E-01  8.50000000E-01  7.20000000E-01  8.50000000E-01  7.20000000E-01
  8.50000000E-01  7.20000000E-01  8.50000000E-01  7.20000000E-01  8.50000000E-01
  7.20000000E-01  8.50000000E-01  7.20000000E-01  8.50000000E-01  7.20000000E-01
  8.50000000E-01  8.50000000E-01  7.20000000E-01  8.50000000E-01  8.50000000E-01
  8.50000000E-01  7.20000000E-01  8.50000000E-01  7.20000000E-01  8.50000000E-01
  8.50000000E-01  7.20000000E-01  8.50000000E-01  8.50000000E-01  7.20000000E-01
  8.50000000E-01  8.50000000E-01  8.50000000E-01  8.50000000E-01  8.50000000E-01
  8.50000000E-01  8.50000000E-01  8.50000000E-01  7.20000000E-01  7.20000000E-01
  7.20000000E-01  7.20000000E-01  7.20000000E-01  7.20000000E-01  8.50000000E-01
  8.50000000E-01  8.50000000E-01  8.50000000E-01  8.50000000E-01  8.50000000E-01
  8.50000000E-01  8.50000000E-01  8.50000000E-01  8.50000000E-01  8.50000000E-01
  8.50000000E-01  8.50000000E-01  8.50000000E-01  8.50000000E-01  8.50000000E-01
  8.50000000E-01  8.50000000E-01  8.50000000E-01  7.20000000E-01  7.20000000E-01
  7.20000000E-01  7.20000000E-01  8.50000000E-01  8.50000000E-01  8.50000000E-01
  7.20000000E-01  8.50000000E-01  7.20000000E-01  8.50000000E-01  7.20000000E-01
  8.50000000E-01  8.50000000E-01  7.90000000E-01  7.20000000E-01  7.20000000E-01
  7.20000000E-01  7.20000000E-01  7.20000000E-01  7.20000000E-01  7.20000000E-01
  8.50000000E-01  7.20000000E-01  8.50000000E-01  7.20000000E-01  8.50000000E-01
  7.20000000E-01  8.50000000E-01  7.20000000E-01  7.20000000E-01  8.50000000E-01
  7.20000000E-01  8.50000000E-01  8.50000000E-01  7.20000000E-01  7.20000000E-01
  7.20000000E-01  7.20000000E-01  8.50000000E-01  7.20000000E-01  7.20000000E-01
  7.20000000E-01  7.20000000E-01  7.20000000E-01  7.20000000E-01  7.20000000E-01
  7.20000000E-01  8.50000000E-01  7.20000000E-01  8.50000000E-01  7.20000000E-01
  8.50000000E-01  7.20000000E-01  8.50000000E-01  7.20000000E-01  7.20000000E-01
  8.50000000E-01  8.50000000E-01  8.50000000E-01  8.50000000E-01  7.90000000E-01
  7.90000000E-01  7.20000000E-01  8.50000000E-01  7.90000000E-01  7.20000000E-01
  8.50000000E-01  7.20000000E-01  7.20000000E-01  7.20000000E-01  7.20000000E-01
  8.50000000E-01  7.20000000E-01  7.20000000E-01  8.50000000E-01  7.20000000E-01
  7.20000000E-01  7.20000000E-01  7.20000000E-01  7.20000000E-01  7.20000000E-01
  7.20000000E-01  7.20000000E-01  7.20000000E-01  7.20000000E-01  7.20000000E-01
  7.20000000E-01  7.20000000E-01  8.50000000E-01  7.20000000E-01  8.50000000E-01
  8.50000000E-01  7.20000000E-01  8.50000000E-01  7.20000000E-01  7.20000000E-01
  8.50000000E-01  7.20000000E-01  8.50000000E-01  7.20000000E-01  8.50000000E-01
  7.20000000E-01  8.50000000E-01  7.20000000E-01  8.50000000E-01  7.20000000E-01
  8.50000000E-01  7.20000000E-01  8.50000000E-01  7.20000000E-01  8.50000000E-01
  7.20000000E-01  8.50000000E-01  8.50000000E-01  7.20000000E-01  8.50000000E-01
  8.50000000E-01  8.50000000E-01  7.20000000E-01  8.50000000E-01  7.20000000E-01
  8.50000000E-01  8.50000000E-01  7.20000000E-01  8.50000000E-01  8.50000000E-01
  7.20000000E-01  8.50000000E-01  8.50000000E-01  8.50000000E-01  8.50000000E-01
  8.50000000E-01  8.50000000E-01  8.50000000E-01  8.50000000E-01  7.20000000E-01
  7.20000000E-01  7.20000000E-01  7.20000000E-01  7.20000000E-01  7.20000000E-01
  8.50000000E-01  8.50000000E-01  8.50000000E-01  8.50000000E-01  8.50000000E-01
  8.50000000E-01  8.50000000E-01  8.50000000E-01  8.50000000E-01  8.50000000E-01
  8.50000000E-01  8.50000000E-01  8.50000000E-01  8.50000000E-01  8.50000000E-01
  8.50000000E-01  8.50000000E-01  8.50000000E-01  8.50000000E-01  7.20000000E-01
  7.20000000E-01  7.20000000E-01  7.20000000E-01  8.50000000E-01  8.50000000E-01
  8.50000000E-01  7.20000000E-01  8.50000000E-01  7.20000000E-01  8.50000000E-01
  7.20000000E-01  8.50000000E-01  8.50000000E-01  7.90000000E-01  7.20000000E-01
  7.20000000E-01  7.20000000E-01  7.20000000E-01  7.20000000E-01  7.20000000E-01
  7.20000000E-01  8.50000000E-01  7.20000000E-01  8.50000000E-01  7.20000000E-01
  8.50000000E-01  7.20000000E-01  8.50000000E-01  7.20000000E-01  7.20000000E-01
  8.50000000E-01  7.20000000E-01  8.50000000E-01  8.50000000E-01  7.20000000E-01
  7.20000000E-01  7.20000000E-01  7.20000000E-01  8.50000000E-01  7.20000000E-01
  7.20000000E-01  7.20000000E-01  7.20000000E-01  7.20000000E-01  7.20000000E-01
  7.20000000E-01  7.20000000E-01  8.50000000E-01  7.20000000E-01  8.50000000E-01
  7.20000000E-01  8.50000000E-01  7.20000000E-01  8.50000000E-01  7.20000000E-01
  7.20000000E-01  8.50000000E-01  8.50000000E-01  8.50000000E-01  8.50000000E-01
  7.90000000E-01  7.90000000E-01  7.20000000E-01  8.50000000E-01  7.90000000E-01
  7.20000000E-01  8.50000000E-01  7.20000000E-01  7.20000000E-01  7.20000000E-01
  7.20000000E-01  8.50000000E-01  7.20000000E-01  7.20000000E-01  8.50000000E-01
  7.20000000E-01  7.20000000E-01  7.20000000E-01  7.20000000E-01  7.20000000E-01
  7.20000000E-01  7.20000000E-01  7.20000000E-01  7.20000000E-01  7.20000000E-01
  7.20000000E-01  7.20000000E-01  7.20000000E-01  8.50000000E-01  7.20000000E-01
  8.50000000E-01  8.50000000E-01  7.20000000E-01  8.50000000E-01  7.20000000E-01
  7.20000000E-01  8.50000000E-01  7.20000000E-01  8.50000000E-01  7.20000000E-01
  8.50000000E-01  7.20000000E-01  8.50000000E-01  7.20000000E-01  8.50000000E-01
  7.20000000E-01  8.50000000E-01  7.20000000E-01  8.50000000E-01  7.20000000E-01
  8.50000000E-01  7.20000000E-01  8.50000000E-01  8.50000000E-01  7.20000000E-01
  8.50000000E-01  8.50000000E-01  8.50000000E-01  7.20000000E-01  8.50000000E-01
  7.20000000E-01  8.50000000E-01  8.50000000E-01  7.20000000E-01  8.50000000E-01
  8.50000000E-01  7.20000000E-01  8.50000000E-01  8.50000000E-01  8.50000000E-01
  8.50000000E-01  8.50000000E-01  8.50000000E-01  8.50000000E-01  8.50000000E-01
  7.20000000E-01  7.20000000E-01  7.20000000E-01  7.20000000E-01  7.20000000E-01
  7.20000000E-01  8.50000000E-01  8.50000000E-01  8.50000000E-01  8.50000000E-01
  8.50000000E-01  8.50000000E-01  8.50000000E-01  8.50000000E-01  8.50000000E-01
  8.50000000E-01  8.50000000E-01  8.50000000E-01  8.50000000E-01  8.50000000E-01
  8.50000000E-01  8.50000000E-01  8.50000000E-01  8.50000000E-01  8.50000000E-01
  7.20000000E-01  7.20000000E-01  7.20000000E-01  7.20000000E-01  8.50000000E-01
  8.50000000E-01  8.50000000E-01  7.20000000E-01  8.50000000E-01  7.20000000E-01
  8.50000000E-01  7.20000000E-01  8.50000000E-01  8.50000000E-01  7.90000000E-01
  7.20000000E-01  7.20000000E-01  7.20000000E-01  7.20000000E-01  7.20000000E-01
  7.20000000E-01  7.20000000E-01  8.50000000E-01  7.20000000E-01  8.50000000E-01
  7.20000000E-01  8.50000000E-01  7.20000000E-01  8.50000000E-01  7.20000000E-01
  7.20000000E-01  8.50000000E-01  7.20000000E-01  8.50000000E-01  8.50000000E-01
  7.20000000E-01  7.20000000E-01  7.20000000E-01  7.20000000E-01  8.50000000E-01
  7.20000000E-01  7.20000000E-01  7.20000000E-01  7.20000000E-01  7.20000000E-01
  7.20000000E-01  7.20000000E-01  7.20000000E-01  8.50000000E-01  7.20000000E-01
  8.50000000E-01  7.20000000E-01  8.50000000E-01  7.20000000E-01  8.50000000E-01
  7.20000000E-01  7.20000000E-01  8.50000000E-01  8.50000000E-01  8.50000000E-01
  8.50000000E-01  7.90000000E-01  7.90000000E-01  7.20000000E-01  8.50000000E-01
  7.90000000E-01  7.20000000E-01  8.50000000E-01  7.20000000E-01  7.20000000E-01
  7.20000000E-01  7.20000000E-01  8.50000000E-01  7.20000000E-01  7.20000000E-01
  8.50000000E-01  7.20000000E-01  7.20000000E-01  7.20000000E-01  7.20000000E-01
  7.20000000E-01  7.20000000E-01  7.20000000E-01  7.20000000E-01  7.20000000E-01
  7.20000000E-01  7.20000000E-01  7.20000000E-01  7.20000000E-01  8.50000000E-01
  7.20000000E-01  8.50000000E-01  8.50000000E-01  7.20000000E-01  8.50000000E-01
  7.20000000E-01  7.20000000E-01  8.50000000E-01  7.20000000E-01  8.50000000E-01
  7.20000000E-01  8.50000000E-01  7.20000000E-01  8.50000000E-01  7.20000000E-01
  8.50000000E-01  7.20000000E-01  8.50000000E-01  7.20000000E-01  8.50000000E-01
  7.20000000E-01  8.50000000E-01  7.20000000E-01  8.50000000E-01  8.50000000E-01
  7.20000000E-01  8.50000000E-01  8.50000000E-01  8.50000000E-01  7.20000000E-01
  8.50000000E-01  7.20000000E-01  8.50000000E-01  8.50000000E-01  7.20000000E-01
  8.50000000E-01  8.50000000E-01  7.20000000E-01  8.50000000E-01  8.50000000E-01
  8.50000000E-01  8.50000000E-01  8.50000000E-01  8.50000000E-01  8.50000000E-01
  8.50000000E-01  7.20000000E-01  7.20000000E-01  7.20000000E-01  7.20000000E-01
  7.20000000E-01  7.20000000E-01  8.50000000E-01  8.50000000E-01  8.50000000E-01
  8.50000000E-01  8.50000000E-01  8.50000000E-01  8.50000000E-01  8.50000000E-01
  8.50000000E-01  8.50000000E-01  8.50000000E-01  8.50000000E-01  8.50000000E-01
  8.50000000E-01  8.50000000E-01  8.50000000E-01  8.50000000E-01  8.50000000E-01
  8.50000000E-01  7.20000000E-01  7.20000000E-01  7.20000000E-01  7.20000000E-01
  8.50000000E-01  8.50000000E-01  8.50000000E-01  7.20000000E-01  8.50000000E-01
  7.20000000E-01  8.50000000E-01  7.20000000E-01  8.50000000E-01  8.50000000E-01
  7.90000000E-01  7.20000000E-01  7.20000000E-01  7.20000000E-01  7.20000000E-01
  7.20000000E-01  7.20000000E-01  7.20000000E-01  8.50000000E-01  7.20000000E-01
  8.50000000E-01  7.20000000E-01  8.50000000E-01  7.20000000E-01  8.50000000E-01
  7.20000000E-01  7.20000000E-01  8.50000000E-01  7.20000000E-01  8.50000000E-01
  8.50000000E-01  7.20000000E-01  7.20000000E-01  7.20000000E-01  7.20000000E-01
  8.50000000E-01  7.20000000E-01  7.20000000E-01  7.20000000E-01  7.20000000E-01
  7.20000000E-01  7.20000000E-01  7.20000000E-01  7.20000000E-01  8.50000000E-01
  7.20000000E-01  8.50000000E-01  7.20000000E-01  8.50000000E-01  7.20000000E-01
  8.50000000E-01  7.20000000E-01  7.20000000E-01  8.50000000E-01  8.50000000E-01
  8.50000000E-01  8.50000000E-01  7.90000000E-01  7.90000000E-01  7.20000000E-01
  8.50000000E-01  7.90000000E-01  7.20000000E-01  8.50000000E-01  7.20000000E-01
  7.20000000E-01  7.20000000E-01  7.20000000E-01  8.50000000E-01  7.20000000E-01
  7.20000000E-01  8.50000000E-01  7.20000000E-01  7.20000000E-01  7.20000000E-01
  7.20000000E-01  7.20000000E-01  7.20000000E-01  7.20000000E-01  7.20000000E-01
  7.20000000E-01  7.20000000E-01  7.20000000E-01  7.20000000E-01  7.20000000E-01
  8.50000000E-01  7.20000000E-01  8.50000000E-01  8.50000000E-01  7.20000000E-01
  8.50000000E-01  7.20000000E-01  7.20000000E-01  8.50000000E-01  7.20000000E-01
  8.50000000E-01  7.20000000E-01  8.50000000E-01  7.20000000E-01  8.50000000E-01
  7.20000000E-01  8.50000000E-01  7.20000000E-01  8.50000000E-01  7.20000000E-01
  8.50000000E-01  7.20000000E-01  8.50000000E-01  7.20000000E-01  8.50000000E-01
  8.50000000E-01  7.20000000E-01  8.50000000E-01  8.50000000E-01  8.50000000E-01
  7.20000000E-01  8.50000000E-01  7.20000000E-01  8.50000000E-01  8.50000000E-01
  7.20000000E-01  8.50000000E-01  8.50000000E-01  7.20000000E-01  8.50000000E-01
  8.50000000E-01  8.50000000E-01  8.50000000E-01  8.50000000E-01  8.50000000E-01
  8.50000000E-01  8.50000000E-01  7.20000000E-01  7.20000000E-01  7.20000000E-01
  7.20000000E-01  7.20000000E-01  7.20000000E-01  8.50000000E-01  8.50000000E-01
  8.50000000E-01  8.50000000E-01  8.50000000E-01  8.50000000E-01  8.50000000E-01
  8.50000000E-01  8.50000000E-01  8.50000000E-01  8.50000000E-01  8.50000000E-01
  8.50000000E-01  8.50000000E-01  8.50000000E-01  8.50000000E-01  8.50000000E-01
  8.50000000E-01  8.50000000E-01  7.20000000E-01  7.20000000E-01  7.20000000E-01
  7.20000000E-01  8.50000000E-01  8.50000000E-01  8.50000000E-01  7.20000000E-01
  8.50000000E-01  7.20000000E-01  8.50000000E-01  7.20000000E-01  8.50000000E-01
  8.50000000E-01  7.90000000E-01  7.20000000E-01  7.20000000E-01  7.20000000E-01
  7.20000000E-01  7.20000000E-01  7.20000000E-01  7.20000000E-01  8.50000000E-01
  7.20000000E-01  8.50000000E-01  7.20000000E-01  8.50000000E-01  7.20000000E-01
  8.50000000E-01  7.20000000E-01  7.20000000E-01  8.50000000E-01  7.20000000E-01
  8.50000000E-01  8.50000000E-01  7.20000000E-01  7.20000000E-01  7.20000000E-01
  7.20000000E-01  8.50000000E-01  7.20000000E-01  7.20000000E-01  7.20000000E-01
  7.20000000E-01  7.20000000E-01  7.20000000E-01  7.20000000E-01  7.20000000E-01
  8.50000000E-01  7.20000000E-01  8.50000000E-01  7.20000000E-01  8.50000000E-01
  7.20000000E-01  8.50000000E-01  7.20000000E-01  7.20000000E-01  8.50000000E-01
  8.50000000E-01  8.50000000E-01  8.50000000E-01  7.90000000E-01  7.90000000E-01
  7.20000000E-01  8.50000000E-01  7.90000000E-01  7.20000000E-01  8.50000000E-01
  7.20000000E-01  7.20000000E-01  7.20000000E-01  7.20000000E-01  8.50000000E-01
  7.20000000E-01  7.20000000E-01  8.50000000E-01  7.20000000E-01  7.20000000E-01
  7.20000000E-01  7.20000000E-01  7.20000000E-01  7.20000000E-01  7.20000000E-01
  7.20000000E-01  7.20000000E-01  7.20000000E-01  7.20000000E-01  7.20000000E-01
  7.20000000E-01  8.50000000E-01  7.20000000E-01  8.50000000E-01  8.50000000E-01
  7.20000000E-01  8.50000000E-01  7.20000000E-01  7.20000000E-01  8.50000000E-01
  7.20000000E-01  8.50000000E-01  7.20000000E-01  8.50000000E-01  7.20000000E-01
  8.50000000E-01  7.20000000E-01  8.50000000E-01  7.20000000E-01  8.50000000E-01
  7.20000000E-01  8.50000000E-01  7.20000000E-01  8.50000000E-01  7.20000000E-01
  8.50000000E-01  8.50000000E-01  7.20000000E-01  8.50000000E-01  8.50000000E-01
  8.50000000E-01  7.20000000E-01  8.50000000E-01  7.20000000E-01  8.50000000E-01
  8.50000000E-01  7.20000000E-01  8.50000000E-01  8.50000000E-01  7.20000000E-01
  8.50000000E-01  8.50000000E-01  8.50000000E-01  8.50000000E-01  8.50000000E-01
  8.50000000E-01  8.50000000E-01  8.50000000E-01  7.20000000E-01  7.20000000E-01
  7.20000000E-01  7.20000000E-01  7.20000000E-01  7.20000000E-01  8.50000000E-01
  8.50000000E-01  8.50000000E-01  8.50000000E-01  8.50000000E-01  8.50000000E-01
  8.50000000E-01  8.50000000E-01  8.50000000E-01  8.50000000E-01  8.50000000E-01
  8.50000000E-01  8.50000000E-01  8.50000000E-01  8.50000000E-01  8.50000000E-01
  8.50000000E-01  8.50000000E-01  8.50000000E-01  7.20000000E-01  7.20000000E-01
  7.20000000E-01  7.20000000E-01  8.50000000E-01  8.50000000E-01  8.50000000E-01
  7.20000000E-01  8.50000000E-01  7.20000000E-01  8.50000000E-01  7.20000000E-01
  8.50000000E-01  8.50000000E-01  7.90000000E-01  7.20000000E-01  7.20000000E-01
  7.20000000E-01  7.20000000E-01  7.20000000E-01  7.20000000E-01  7.20000000E-01
  8.50000000E-01  7.20000000E-01  8.50000000E-01  7.20000000E-01  8.50000000E-01
  7.20000000E-01  8.50000000E-01  7.20000000E-01  7.20000000E-01  8.50000000E-01
  7.20000000E-01  8.50000000E-01  8.50000000E-01  7.20000000E-01  7.20000000E-01
  7.20000000E-01  7.20000000E-01  8.50000000E-01  7.20000000E-01  7.20000000E-01
  7.20000000E-01  7.20000000E-01  7.20000000E-01  7.20000000E-01  7.20000000E-01
  7.20000000E-01  8.50000000E-01  7.20000000E-01  8.50000000E-01  7.20000000E-01
  8.50000000E-01  7.20000000E-01  8.50000000E-01  7.20000000E-01  7.20000000E-01
  8.50000000E-01  8.50000000E-01  8.50000000E-01  8.50000000E-01  7.90000000E-01
  7.90000000E-01  7.20000000E-01  8.50000000E-01  7.90000000E-01  7.20000000E-01
  8.50000000E-01  7.20000000E-01  7.20000000E-01  7.20000000E-01  7.20000000E-01
  8.50000000E-01  7.20000000E-01  7.20000000E-01  8.50000000E-01  7.20000000E-01
  7.20000000E-01  7.20000000E-01  7.20000000E-01  7.20000000E-01  7.20000000E-01
  7.20000000E-01  7.20000000E-01  7.20000000E-01  7.20000000E-01  7.20000000E-01
  7.20000000E-01  7.20000000E-01  8.50000000E-01  7.20000000E-01  8.50000000E-01
  8.50000000E-01  7.20000000E-01  8.50000000E-01  7.20000000E-01  7.20000000E-01
  8.50000000E-01  7.20000000E-01  8.50000000E-01  7.20000000E-01  8.50000000E-01
  7.20000000E-01  8.50000000E-01  7.20000000E-01  8.50000000E-01  7.20000000E-01
  8.50000000E-01  7.20000000E-01  8.50000000E-01  7.20000000E-01  8.50000000E-01
  7.20000000E-01  8.50000000E-01  8.50000000E-01  7.20000000E-01  8.50000000E-01
  8.50000000E-01  8.50000000E-01  7.20000000E-01  8.50000000E-01  7.20000000E-01
  8.50000000E-01  8.50000000E-01  7.20000000E-01  8.50000000E-01  8.50000000E-01
  7.20000000E-01  8.50000000E-01  8.50000000E-01  8.50000000E-01  8.50000000E-01
  8.50000000E-01  8.50000000E-01  8.50000000E-01  8.50000000E-01  7.20000000E-01
  7.20000000E-01  7.20000000E-01  7.20000000E-01  7.20000000E-01  7.20000000E-01
  8.50000000E-01  8.50000000E-01  8.50000000E-01  8.50000000E-01  8.50000000E-01
  8.50000000E-01  8.50000000E-01  8.50000000E-01  8.50000000E-01  8.50000000E-01
  8.50000000E-01  8.50000000E-01  8.50000000E-01  8.50000000E-01  8.50000000E-01
  8.50000000E-01  8.50000000E-01  8.50000000E-01  8.50000000E-01  7.20000000E-01
  7.20000000E-01  7.20000000E-01  7.20000000E-01  8.50000000E-01  8.50000000E-01
  8.50000000E-01  7.20000000E-01  8.50000000E-01  7.20000000E-01  8.50000000E-01
  7.20000000E-01  8.50000000E-01  8.50000000E-01  7.90000000E-01  7.20000000E-01
  7.20000000E-01  7.20000000E-01  7.20000000E-01  7.20000000E-01  7.20000000E-01
  7.20000000E-01  8.50000000E-01  7.20000000E-01  8.50000000E-01  7.20000000E-01
  8.50000000E-01  7.20000000E-01  8.50000000E-01  7.20000000E-01  7.20000000E-01
  8.50000000E-01  7.20000000E-01  8.50000000E-01  8.50000000E-01  7.20000000E-01
  7.20000000E-01  7.20000000E-01  7.20000000E-01  8.50000000E-01  7.20000000E-01
  7.20000000E-01  7.20000000E-01  7.20000000E-01  7.20000000E-01  7.20000000E-01
  7.20000000E-01  7.20000000E-01  8.50000000E-01  7.20000000E-01  8.50000000E-01
  7.20000000E-01  8.50000000E-01  7.20000000E-01  8.50000000E-01  7.20000000E-01
  7.20000000E-01  8.50000000E-01  8.50000000E-01  8.50000000E-01  8.50000000E-01
  7.90000000E-01  7.90000000E-01  7.20000000E-01  8.50000000E-01  7.90000000E-01
  7.20000000E-01  8.50000000E-01  7.20000000E-01  7.20000000E-01  7.20000000E-01
  7.20000000E-01  8.50000000E-01  7.20000000E-01  7.20000000E-01  8.50000000E-01
  7.20000000E-01  7.20000000E-01  7.20000000E-01  7.20000000E-01  7.20000000E-01
  7.20000000E-01  7.20000000E-01  7.20000000E-01  7.20000000E-01  7.20000000E-01
  7.20000000E-01  7.20000000E-01  7.20000000E-01  8.50000000E-01  7.20000000E-01
  8.50000000E-01  8.50000000E-01  7.20000000E-01  8.50000000E-01  7.20000000E-01
  7.20000000E-01  8.50000000E-01  7.20000000E-01  8.50000000E-01  7.20000000E-01
  8.50000000E-01  7.20000000E-01  8.50000000E-01  7.20000000E-01  8.50000000E-01
  7.20000000E-01  8.50000000E-01  7.20000000E-01  8.50000000E-01  7.20000000E-01
  8.50000000E-01  7.20000000E-01  8.50000000E-01  8.50000000E-01  7.20000000E-01
  8.50000000E-01  8.50000000E-01  8.50000000E-01  7.20000000E-01  8.50000000E-01
  7.20000000E-01  8.50000000E-01  8.50000000E-01  7.20000000E-01  8.50000000E-01
  8.50000000E-01  7.20000000E-01  8.50000000E-01  8.50000000E-01  8.50000000E-01
  8.50000000E-01  8.50000000E-01  8.50000000E-01  8.50000000E-01  8.50000000E-01
  7.20000000E-01  7.20000000E-01  7.20000000E-01  7.20000000E-01  7.20000000E-01
  7.20000000E-01  8.50000000E-01  8.50000000E-01  8.50000000E-01  8.50000000E-01
  8.50000000E-01  8.50000000E-01  8.50000000E-01  8.50000000E-01  8.50000000E-01
  8.50000000E-01  8.50000000E-01  8.50000000E-01  8.50000000E-01  8.50000000E-01
  8.50000000E-01  8.50000000E-01  8.50000000E-01  8.50000000E-01  8.50000000E-01
  7.20000000E-01  7.20000000E-01  7.20000000E-01  7.20000000E-01  8.50000000E-01
  8.50000000E-01  8.50000000E-01  7.20000000E-01  8.50000000E-01  7.20000000E-01
  8.50000000E-01  7.20000000E-01  8.50000000E-01  8.50000000E-01  7.90000000E-01
  7.20000000E-01  7.20000000E-01  7.20000000E-01  7.20000000E-01  7.20000000E-01
  7.20000000E-01  7.20000000E-01  8.50000000E-01  7.20000000E-01  8.50000000E-01
  7.20000000E-01  8.50000000E-01  7.20000000E-01  8.50000000E-01  7.20000000E-01
  7.20000000E-01  8.50000000E-01  7.20000000E-01  8.50000000E-01  8.50000000E-01
  7.20000000E-01  7.20000000E-01  7.20000000E-01  7.20000000E-01  8.50000000E-01
  7.20000000E-01  7.20000000E-01  7.20000000E-01  7.20000000E-01  7.20000000E-01
  7.20000000E-01  7.20000000E-01  7.20000000E-01  8.50000000E-01  7.20000000E-01
  8.50000000E-01  7.20000000E-01  8.50000000E-01  7.20000000E-01  8.50000000E-01
  7.20000000E-01  7.20000000E-01  8.50000000E-01  8.50000000E-01  8.50000000E-01
  8.50000000E-01  7.90000000E-01  7.90000000E-01  7.20000000E-01  8.50000000E-01
  7.90000000E-01  7.20000000E-01  8.50000000E-01  7.20000000E-01  7.20000000E-01
  7.20000000E-01  7.20000000E-01  8.50000000E-01  7.20000000E-01  7.20000000E-01
  8.50000000E-01  7.20000000E-01  7.20000000E-01  7.20000000E-01  7.20000000E-01
  7.20000000E-01  7.20000000E-01  7.20000000E-01  7.20000000E-01  7.20000000E-01
  7.20000000E-01  7.20000000E-01  7.20000000E-01  7.20000000E-01  8.50000000E-01
  7.20000000E-01  8.50000000E-01  8.50000000E-01  7.20000000E-01  8.50000000E-01
  7.20000000E-01  7.20000000E-01  8.50000000E-01  7.20000000E-01  8.50000000E-01
  7.20000000E-01  8.50000000E-01  7.20000000E-01  8.50000000E-01  7.20000000E-01
  8.50000000E-01  7.20000000E-01  8.50000000E-01  7.20000000E-01  8.50000000E-01
  7.20000000E-01  8.50000000E-01  7.20000000E-01  8.50000000E-01  8.50000000E-01
  7.20000000E-01  8.50000000E-01  8.50000000E-01  8.50000000E-01  7.20000000E-01
  8.50000000E-01  7.20000000E-01  8.50000000E-01  8.50000000E-01  7.20000000E-01
  8.50000000E-01  8.50000000E-01  7.20000000E-01  8.50000000E-01  8.50000000E-01
  8.50000000E-01  8.50000000E-01  8.50000000E-01  8.50000000E-01  8.50000000E-01
  8.50000000E-01  7.20000000E-01  7.20000000E-01  7.20000000E-01  7.20000000E-01
  7.20000000E-01  7.20000000E-01  8.50000000E-01  8.50000000E-01  8.50000000E-01
  8.50000000E-01  8.50000000E-01  8.50000000E-01  8.50000000E-01  8.50000000E-01
  8.50000000E-01  8.50000000E-01  8.50000000E-01  8.50000000E-01  8.50000000E-01
  8.50000000E-01  8.50000000E-01  8.50000000E-01  8.50000000E-01  8.50000000E-01
  8.50000000E-01  7.20000000E-01  7.20000000E-01  7.20000000E-01  7.20000000E-01
  8.50000000E-01  8.50000000E-01  8.50000000E-01  7.20000000E-01  8.50000000E-01
  7.20000000E-01  8.50000000E-01  7.20000000E-01  8.50000000E-01  8.50000000E-01
  7.90000000E-01  7.20000000E-01  7.20000000E-01  7.20000000E-01  7.20000000E-01
  7.20000000E-01  7.20000000E-01  7.20000000E-01  8.50000000E-01  7.20000000E-01
  8.50000000E-01  7.20000000E-01  8.50000000E-01  7.20000000E-01  8.50000000E-01
  7.20000000E-01  7.20000000E-01  8.50000000E-01  7.20000000E-01  8.50000000E-01
  8.50000000E-01  7.20000000E-01  7.20000000E-01  7.20000000E-01  7.20000000E-01
  8.50000000E-01  7.20000000E-01  7.20000000E-01  7.20000000E-01  7.20000000E-01
  7.20000000E-01  7.20000000E-01  7.20000000E-01  7.20000000E-01  8.50000000E-01
  7.20000000E-01  8.50000000E-01  7.20000000E-01  8.50000000E-01  7.20000000E-01
  8.50000000E-01  7.20000000E-01  7.20000000E-01  8.50000000E-01  8.50000000E-01
  8.50000000E-01  8.50000000E-01  7.90000000E-01  7.90000000E-01  7.20000000E-01
  8.50000000E-01  7.90000000E-01  7.20000000E-01  8.50000000E-01  7.20000000E-01
  7.20000000E-01  7.20000000E-01  7.20000000E-01  8.50000000E-01  7.20000000E-01
  7.20000000E-01  8.50000000E-01  7.20000000E-01  7.20000000E-01  7.20000000E-01
  7.20000000E-01  7.20000000E-01  7.20000000E-01  7.20000000E-01  7.20000000E-01
  7.20000000E-01  7.20000000E-01  7.20000000E-01  7.20000000E-01  7.20000000E-01
  8.50000000E-01  7.20000000E-01  8.50000000E-01  8.50000000E-01  7.20000000E-01
  8.50000000E-01  7.20000000E-01  7.20000000E-01  8.50000000E-01  7.20000000E-01
  8.50000000E-01  7.20000000E-01  8.50000000E-01  7.20000000E-01  8.50000000E-01
  7.20000000E-01  8.50000000E-01  7.20000000E-01  8.50000000E-01  7.20000000E-01
  8.50000000E-01  7.20000000E-01  8.50000000E-01  7.20000000E-01  8.50000000E-01
  8.50000000E-01  7.20000000E-01  8.50000000E-01  8.50000000E-01  8.50000000E-01
  7.20000000E-01  8.50000000E-01  7.20000000E-01  8.50000000E-01  8.50000000E-01
  7.20000000E-01  8.50000000E-01  8.50000000E-01  7.20000000E-01  8.50000000E-01
  8.50000000E-01  8.50000000E-01  8.50000000E-01  8.50000000E-01  8.50000000E-01
  8.50000000E-01  8.50000000E-01  7.20000000E-01  7.20000000E-01  7.20000000E-01
  7.20000000E-01  7.20000000E-01  7.20000000E-01  8.50000000E-01  8.50000000E-01
  8.50000000E-01  8.50000000E-01  8.50000000E-01  8.50000000E-01  8.50000000E-01
  8.50000000E-01  8.50000000E-01  8.50000000E-01  8.50000000E-01  8.50000000E-01
  8.50000000E-01  8.50000000E-01  8.50000000E-01  8.50000000E-01  8.50000000E-01
  8.50000000E-01  8.50000000E-01  7.20000000E-01  7.20000000E-01  7.20000000E-01
  7.20000000E-01  8.50000000E-01  8.50000000E-01  8.50000000E-01  7.20000000E-01
  8.50000000E-01  7.20000000E-01  8.50000000E-01  7.20000000E-01  8.50000000E-01
  8.50000000E-01  7.90000000E-01  7.20000000E-01  7.20000000E-01  7.20000000E-01
  7.20000000E-01  7.20000000E-01  7.20000000E-01  7.20000000E-01  8.50000000E-01
  7.20000000E-01  8.50000000E-01  7.20000000E-01  8.50000000E-01  7.20000000E-01
  8.50000000E-01  7.20000000E-01  7.20000000E-01  8.50000000E-01  7.20000000E-01
  8.50000000E-01  8.50000000E-01  7.20000000E-01  7.20000000E-01  7.20000000E-01
  7.20000000E-01  8.50000000E-01  7.20000000E-01  7.20000000E-01  7.20000000E-01
  7.20000000E-01  7.20000000E-01  7.20000000E-01  7.20000000E-01  7.20000000E-01
  8.50000000E-01  7.20000000E-01  8.50000000E-01  7.20000000E-01  8.50000000E-01
  7.20000000E-01  8.50000000E-01  7.20000000E-01  7.20000000E-01  8.50000000E-01
  8.50000000E-01  8.50000000E-01  8.50000000E-01  7.90000000E-01  7.90000000E-01
  7.20000000E-01  8.50000000E-01  7.90000000E-01  7.20000000E-01  8.50000000E-01
  7.20000000E-01  7.20000000E-01  7.20000000E-01  7.20000000E-01  8.50000000E-01
  7.20000000E-01  7.20000000E-01  8.50000000E-01  7.20000000E-01  7.20000000E-01
  7.20000000E-01  7.20000000E-01  7.20000000E-01  7.20000000E-01  7.20000000E-01
  7.20000000E-01  7.20000000E-01  7.20000000E-01  7.20000000E-01  7.20000000E-01
  7.20000000E-01  8.50000000E-01  7.20000000E-01  8.50000000E-01  8.50000000E-01
  7.20000000E-01  8.50000000E-01  7.20000000E-01  7.20000000E-01  8.50000000E-01
  7.20000000E-01  8.50000000E-01  7.20000000E-01  8.50000000E-01  7.20000000E-01
  8.50000000E-01  7.20000000E-01  8.50000000E-01  7.20000000E-01  8.50000000E-01
  7.20000000E-01  8.50000000E-01  7.20000000E-01  8.50000000E-01  7.20000000E-01
  8.50000000E-01  8.50000000E-01  7.20000000E-01  8.50000000E-01  8.50000000E-01
  8.50000000E-01  7.20000000E-01  8.50000000E-01  7.20000000E-01  8.50000000E-01
  8.50000000E-01  7.20000000E-01  8.50000000E-01  8.50000000E-01  7.20000000E-01
  8.50000000E-01  8.50000000E-01  8.50000000E-01  8.50000000E-01  8.50000000E-01
  8.50000000E-01  8.50000000E-01  8.50000000E-01  7.20000000E-01  7.20000000E-01
  7.20000000E-01  7.20000000E-01  7.20000000E-01  7.20000000E-01  8.50000000E-01
  8.50000000E-01  8.50000000E-01  8.50000000E-01  8.50000000E-01  8.50000000E-01
  8.50000000E-01  8.50000000E-01  8.50000000E-01  8.50000000E-01  8.50000000E-01
  8.50000000E-01  8.50000000E-01  8.50000000E-01  8.50000000E-01  8.50000000E-01
  8.50000000E-01  8.50000000E-01  8.50000000E-01  7.20000000E-01  7.20000000E-01
  7.20000000E-01  7.20000000E-01  8.50000000E-01  8.50000000E-01  8.50000000E-01
  7.20000000E-01  8.50000000E-01  7.20000000E-01  8.50000000E-01  7.20000000E-01
  8.50000000E-01  8.50000000E-01  7.90000000E-01  7.20000000E-01  7.20000000E-01
  7.20000000E-01  7.20000000E-01  7.20000000E-01  7.20000000E-01  7.20000000E-01
  8.50000000E-01  7.20000000E-01  8.50000000E-01  7.20000000E-01  8.50000000E-01
  7.20000000E-01  8.50000000E-01  7.20000000E-01  7.20000000E-01  8.50000000E-01
  7.20000000E-01  8.50000000E-01  8.50000000E-01  7.20000000E-01  7.20000000E-01
  7.20000000E-01  7.20000000E-01  8.50000000E-01  7.20000000E-01  7.20000000E-01
  7.20000000E-01  7.20000000E-01  7.20000000E-01  7.20000000E-01  7.20000000E-01
  7.20000000E-01  8.50000000E-01  7.20000000E-01  8.50000000E-01  7.20000000E-01
  8.50000000E-01  7.20000000E-01  8.50000000E-01  7.20000000E-01  7.20000000E-01
  8.50000000E-01  8.50000000E-01  8.50000000E-01  8.50000000E-01  7.90000000E-01
  7.90000000E-01  7.20000000E-01  8.50000000E-01  7.90000000E-01  7.20000000E-01
  8.50000000E-01  7.20000000E-01  7.20000000E-01  7.20000000E-01  7.20000000E-01
  8.50000000E-01  7.20000000E-01  7.20000000E-01  8.50000000E-01  7.20000000E-01
  7.20000000E-01  7.20000000E-01  7.20000000E-01  7.20000000E-01  7.20000000E-01
  7.20000000E-01  7.20000000E-01  7.20000000E-01  7.20000000E-01  7.20000000E-01
  7.20000000E-01  7.20000000E-01  8.50000000E-01  7.20000000E-01  8.50000000E-01
  8.50000000E-01  7.20000000E-01  8.50000000E-01  7.20000000E-01  7.20000000E-01
  8.50000000E-01  7.20000000E-01  8.50000000E-01  7.20000000E-01  8.50000000E-01
  7.20000000E-01  8.50000000E-01  7.20000000E-01  8.50000000E-01  7.20000000E-01
  8.50000000E-01  7.20000000E-01  8.50000000E-01  7.20000000E-01  8.50000000E-01
  7.20000000E-01  8.50000000E-01  8.50000000E-01  7.20000000E-01  8.50000000E-01
  8.50000000E-01  8.50000000E-01  7.20000000E-01  8.50000000E-01  7.20000000E-01
  8.50000000E-01  8.50000000E-01  7.20000000E-01  8.50000000E-01  8.50000000E-01
  7.20000000E-01  8.50000000E-01  8.50000000E-01  8.50000000E-01  8.50000000E-01
  8.50000000E-01  8.50000000E-01  8.50000000E-01  8.50000000E-01  7.20000000E-01
  7.20000000E-01  7.20000000E-01  7.20000000E-01  7.20000000E-01  7.20000000E-01
  8.50000000E-01  8.50000000E-01  8.50000000E-01  8.50000000E-01  8.50000000E-01
  8.50000000E-01  8.50000000E-01  8.50000000E-01  8.50000000E-01  8.50000000E-01
  8.50000000E-01  8.50000000E-01  8.50000000E-01  8.50000000E-01  8.50000000E-01
  8.50000000E-01  8.50000000E-01  8.50000000E-01  8.50000000E-01  7.20000000E-01
  7.20000000E-01  7.20000000E-01  7.20000000E-01  8.50000000E-01  8.50000000E-01
  8.50000000E-01  7.20000000E-01  8.50000000E-01  7.20000000E-01  8.50000000E-01
  7.20000000E-01  8.50000000E-01  8.50000000E-01  7.90000000E-01  7.20000000E-01
  7.20000000E-01  7.20000000E-01  7.20000000E-01  7.20000000E-01  7.20000000E-01
  7.20000000E-01  8.50000000E-01  7.20000000E-01  8.50000000E-01  7.20000000E-01
  8.50000000E-01  7.20000000E-01  8.50000000E-01  7.20000000E-01  7.20000000E-01
  8.50000000E-01  7.20000000E-01  8.50000000E-01  8.50000000E-01  7.20000000E-01
  7.20000000E-01  7.20000000E-01  7.20000000E-01  8.50000000E-01  7.20000000E-01
  7.20000000E-01  7.20000000E-01  7.20000000E-01  7.20000000E-01  7.20000000E-01
  7.20000000E-01  7.20000000E-01  8.50000000E-01  7.20000000E-01  8.50000000E-01
  7.20000000E-01  8.50000000E-01  7.20000000E-01  8.50000000E-01  7.20000000E-01
  7.20000000E-01  8.50000000E-01  8.50000000E-01  8.50000000E-01  8.50000000E-01
  7.90000000E-01  7.90000000E-01  7.20000000E-01  8.50000000E-01  7.90000000E-01
  7.20000000E-01  8.50000000E-01  7.20000000E-01  7.20000000E-01  7.20000000E-01
  7.20000000E-01  8.50000000E-01  7.20000000E-01  7.20000000E-01  8.50000000E-01
  7.20000000E-01  7.20000000E-01  7.20000000E-01  7.20000000E-01  7.20000000E-01
  7.20000000E-01  7.20000000E-01  7.20000000E-01  7.20000000E-01  7.20000000E-01
  7.20000000E-01  7.20000000E-01  7.20000000E-01  8.50000000E-01  7.20000000E-01
  8.50000000E-01  8.50000000E-01  7.20000000E-01  8.50000000E-01  7.20000000E-01
  7.20000000E-01  8.50000000E-01  7.20000000E-01  8.50000000E-01  7.20000000E-01
  8.50000000E-01  7.20000000E-01  8.50000000E-01  7.20000000E-01  8.50000000E-01
  7.20000000E-01  8.50000000E-01  7.20000000E-01  8.50000000E-01  7.20000000E-01
  8.50000000E-01  7.20000000E-01  8.50000000E-01  8.50000000E-01  7.20000000E-01
  8.50000000E-01  8.50000000E-01  8.50000000E-01  7.20000000E-01  8.50000000E-01
  7.20000000E-01  8.50000000E-01  8.50000000E-01  7.20000000E-01  8.50000000E-01
  8.50000000E-01  7.20000000E-01  8.50000000E-01  8.50000000E-01  8.50000000E-01
  8.50000000E-01  8.50000000E-01  8.50000000E-01  8.50000000E-01  8.50000000E-01
  7.20000000E-01  7.20000000E-01  7.20000000E-01  7.20000000E-01  7.20000000E-01
  7.20000000E-01  8.50000000E-01  8.50000000E-01  8.50000000E-01  8.50000000E-01
  8.50000000E-01  8.50000000E-01  8.50000000E-01  8.50000000E-01  8.50000000E-01
  8.50000000E-01  8.50000000E-01  8.50000000E-01  8.50000000E-01  8.50000000E-01
  8.50000000E-01  8.50000000E-01  8.50000000E-01  8.50000000E-01  8.50000000E-01
  7.20000000E-01  7.20000000E-01  7.20000000E-01  7.20000000E-01  8.50000000E-01
  8.50000000E-01  8.50000000E-01  7.20000000E-01  8.50000000E-01  7.20000000E-01
  8.50000000E-01  7.20000000E-01  8.50000000E-01  8.50000000E-01  7.90000000E-01
  7.20000000E-01  7.20000000E-01  7.20000000E-01  7.20000000E-01  7.20000000E-01
  7.20000000E-01  7.20000000E-01  8.50000000E-01  7.20000000E-01  8.50000000E-01
  7.20000000E-01  8.50000000E-01  7.20000000E-01  8.50000000E-01  7.20000000E-01
  7.20000000E-01  8.50000000E-01  7.20000000E-01  8.50000000E-01  8.50000000E-01
  7.20000000E-01  7.20000000E-01  7.20000000E-01  7.20000000E-01  8.50000000E-01
  7.20000000E-01  7.20000000E-01  7.20000000E-01  7.20000000E-01  7.20000000E-01
  7.20000000E-01  7.20000000E-01  7.20000000E-01  8.50000000E-01  7.20000000E-01
  8.50000000E-01  7.20000000E-01  8.50000000E-01  7.20000000E-01  8.50000000E-01
  7.20000000E-01  7.20000000E-01  8.50000000E-01  8.50000000E-01  8.50000000E-01
  8.50000000E-01  7.90000000E-01  7.90000000E-01  7.20000000E-01  8.50000000E-01
  7.90000000E-01  7.20000000E-01  8.50000000E-01  7.20000000E-01  7.20000000E-01
  7.20000000E-01  7.20000000E-01  8.50000000E-01  7.20000000E-01  7.20000000E-01
  8.50000000E-01  7.20000000E-01  7.20000000E-01  7.20000000E-01  7.20000000E-01
  7.20000000E-01  7.20000000E-01  7.20000000E-01  7.20000000E-01  7.20000000E-01
  7.20000000E-01  7.20000000E-01  7.20000000E-01  7.20000000E-01  8.50000000E-01
  7.20000000E-01  8.50000000E-01  8.50000000E-01  7.20000000E-01  8.50000000E-01
  7.20000000E-01  7.20000000E-01  8.50000000E-01  7.20000000E-01  8.50000000E-01
  7.20000000E-01  8.50000000E-01  7.20000000E-01  8.50000000E-01  7.20000000E-01
  8.50000000E-01  7.20000000E-01  8.50000000E-01  7.20000000E-01  8.50000000E-01
  7.20000000E-01  8.50000000E-01  7.20000000E-01  8.50000000E-01  8.50000000E-01
  7.20000000E-01  8.50000000E-01  8.50000000E-01  8.50000000E-01  7.20000000E-01
  8.50000000E-01  7.20000000E-01  8.50000000E-01  8.50000000E-01  7.20000000E-01
  8.50000000E-01  8.50000000E-01  7.20000000E-01  8.50000000E-01  8.50000000E-01
  8.50000000E-01  8.50000000E-01  8.50000000E-01  8.50000000E-01  8.50000000E-01
  8.50000000E-01  7.20000000E-01  7.20000000E-01  7.20000000E-01  7.20000000E-01
  7.20000000E-01  7.20000000E-01  8.50000000E-01  8.50000000E-01  8.50000000E-01
  8.50000000E-01  8.50000000E-01  8.50000000E-01  8.50000000E-01  8.50000000E-01
  8.50000000E-01  8.50000000E-01  8.50000000E-01  8.50000000E-01  8.50000000E-01
  8.50000000E-01  8.50000000E-01  8.50000000E-01  8.50000000E-01  8.50000000E-01
  8.50000000E-01  7.20000000E-01  7.20000000E-01  7.20000000E-01  7.20000000E-01
  8.50000000E-01  8.50000000E-01  8.50000000E-01  7.20000000E-01  8.50000000E-01
  7.20000000E-01  8.50000000E-01  7.20000000E-01  8.50000000E-01  8.50000000E-01
  7.90000000E-01  7.20000000E-01  7.20000000E-01  7.20000000E-01  7.20000000E-01
  7.20000000E-01  7.20000000E-01  7.20000000E-01  8.50000000E-01  7.20000000E-01
  8.50000000E-01  7.20000000E-01  8.50000000E-01  7.20000000E-01  8.50000000E-01
  7.20000000E-01  7.20000000E-01  8.50000000E-01  7.20000000E-01  8.50000000E-01
  8.50000000E-01  7.20000000E-01  7.20000000E-01  7.20000000E-01  7.20000000E-01
  8.50000000E-01  7.20000000E-01  7.20000000E-01  7.20000000E-01  7.20000000E-01
  7.20000000E-01  7.20000000E-01  7.20000000E-01  7.20000000E-01  8.50000000E-01
  7.20000000E-01  8.50000000E-01  7.20000000E-01  8.50000000E-01  7.20000000E-01
  8.50000000E-01  7.20000000E-01  7.20000000E-01  8.50000000E-01  8.50000000E-01
  8.50000000E-01  8.50000000E-01  7.90000000E-01  7.90000000E-01  7.20000000E-01
  8.50000000E-01  7.90000000E-01  7.20000000E-01  8.50000000E-01  7.20000000E-01
  7.20000000E-01  7.20000000E-01  7.20000000E-01  8.50000000E-01  7.20000000E-01
  7.20000000E-01  8.50000000E-01  7.20000000E-01  7.20000000E-01  7.20000000E-01
  7.20000000E-01  7.20000000E-01  7.20000000E-01  7.20000000E-01  7.20000000E-01
  7.20000000E-01  7.20000000E-01  7.20000000E-01  7.20000000E-01  7.20000000E-01
  8.50000000E-01  7.20000000E-01  8.50000000E-01  8.50000000E-01  7.20000000E-01
  8.50000000E-01  7.20000000E-01  7.20000000E-01  8.50000000E-01  7.20000000E-01
  8.50000000E-01  7.20000000E-01  8.50000000E-01  7.20000000E-01  8.50000000E-01
  7.20000000E-01  8.50000000E-01  7.20000000E-01  8.50000000E-01  7.20000000E-01
  8.50000000E-01  7.20000000E-01  8.50000000E-01  7.20000000E-01  8.50000000E-01
  8.50000000E-01  7.20000000E-01  8.50000000E-01  8.50000000E-01  8.50000000E-01
  7.20000000E-01  8.50000000E-01  7.20000000E-01  8.50000000E-01  8.50000000E-01
  7.20000000E-01  8.50000000E-01  8.50000000E-01  7.20000000E-01  8.50000000E-01
  8.50000000E-01  8.50000000E-01  8.50000000E-01  8.50000000E-01  8.50000000E-01
  8.50000000E-01  8.50000000E-01  7.20000000E-01  7.20000000E-01  7.20000000E-01
  7.20000000E-01  7.20000000E-01  7.20000000E-01  8.50000000E-01  8.50000000E-01
  8.50000000E-01  8.50000000E-01  8.50000000E-01  8.50000000E-01  8.50000000E-01
  8.50000000E-01  8.50000000E-01  8.50000000E-01  8.50000000E-01  8.50000000E-01
  8.50000000E-01  8.50000000E-01  8.50000000E-01  8.50000000E-01  8.50000000E-01
  8.50000000E-01  8.50000000E-01  7.20000000E-01  7.20000000E-01  7.20000000E-01
  7.20000000E-01  8.50000000E-01  8.50000000E-01  8.50000000E-01  7.20000000E-01
  8.50000000E-01  7.20000000E-01  8.50000000E-01  7.20000000E-01  8.50000000E-01
  8.50000000E-01  7.90000000E-01  7.20000000E-01  7.20000000E-01  7.20000000E-01
  7.20000000E-01  7.20000000E-01  7.20000000E-01  7.20000000E-01  8.50000000E-01
  7.20000000E-01  8.50000000E-01  7.20000000E-01  8.50000000E-01  7.20000000E-01
  8.50000000E-01  7.20000000E-01  7.20000000E-01  8.50000000E-01  7.20000000E-01
  8.50000000E-01  8.50000000E-01  7.20000000E-01  7.20000000E-01  7.20000000E-01
  7.20000000E-01  8.50000000E-01  7.20000000E-01  7.20000000E-01  7.20000000E-01
  7.20000000E-01  7.20000000E-01  7.20000000E-01  7.20000000E-01  7.20000000E-01
  8.50000000E-01  7.20000000E-01  8.50000000E-01  7.20000000E-01  8.50000000E-01
  7.20000000E-01  8.50000000E-01  7.20000000E-01  7.20000000E-01  8.50000000E-01
  8.50000000E-01  8.50000000E-01  8.50000000E-01  7.90000000E-01  7.90000000E-01
  7.20000000E-01  8.50000000E-01  7.90000000E-01  7.20000000E-01  8.50000000E-01
  7.20000000E-01  7.20000000E-01  7.20000000E-01  7.20000000E-01  8.50000000E-01
  7.20000000E-01  7.20000000E-01  8.50000000E-01  7.20000000E-01  7.20000000E-01
  7.20000000E-01  7.20000000E-01  7.20000000E-01  7.20000000E-01  7.20000000E-01
  7.20000000E-01  7.20000000E-01  7.20000000E-01  7.20000000E-01  7.20000000E-01
  7.20000000E-01  8.50000000E-01  7.20000000E-01  8.50000000E-01  8.50000000E-01
  7.20000000E-01  8.50000000E-01  7.20000000E-01  7.20000000E-01  8.50000000E-01
  7.20000000E-01  8.50000000E-01  7.20000000E-01  8.50000000E-01  7.20000000E-01
  8.50000000E-01  7.20000000E-01  8.50000000E-01  7.20000000E-01  8.50000000E-01
  7.20000000E-01  8.50000000E-01  7.20000000E-01  8.50000000E-01  7.20000000E-01
  8.50000000E-01  8.50000000E-01  7.20000000E-01  8.50000000E-01  8.50000000E-01
  8.50000000E-01  7.20000000E-01  8.50000000E-01  7.20000000E-01  8.50000000E-01
  8.50000000E-01  7.20000000E-01  8.50000000E-01  8.50000000E-01  7.20000000E-01
  8.50000000E-01  8.50000000E-01  8.50000000E-01  8.50000000E-01  8.50000000E-01
  8.50000000E-01  8.50000000E-01  8.50000000E-01  7.20000000E-01  7.20000000E-01
  7.20000000E-01  7.20000000E-01  7.20000000E-01  7.20000000E-01  8.50000000E-01
  8.50000000E-01  8.50000000E-01  8.50000000E-01  8.50000000E-01  8.50000000E-01
  8.50000000E-01  8.50000000E-01  8.50000000E-01  8.50000000E-01  8.50000000E-01
  8.50000000E-01  8.50000000E-01  8.50000000E-01  8.50000000E-01  8.50000000E-01
  8.50000000E-01  8.50000000E-01  8.50000000E-01  7.20000000E-01  7.20000000E-01
  7.20000000E-01  7.20000000E-01  8.50000000E-01  8.50000000E-01  8.50000000E-01
  7.20000000E-01  8.50000000E-01  7.20000000E-01  8.50000000E-01  7.20000000E-01
  8.50000000E-01  8.50000000E-01  7.90000000E-01  7.20000000E-01  7.20000000E-01
  7.20000000E-01  7.20000000E-01  7.20000000E-01  7.20000000E-01  7.20000000E-01
  8.50000000E-01  7.20000000E-01  8.50000000E-01  7.20000000E-01  8.50000000E-01
  7.20000000E-01  8.50000000E-01  7.20000000E-01  7.20000000E-01  8.50000000E-01
  7.20000000E-01  8.50000000E-01  8.50000000E-01  7.20000000E-01  7.20000000E-01
  7.20000000E-01  7.20000000E-01  8.50000000E-01  7.20000000E-01  7.20000000E-01
  7.20000000E-01  7.20000000E-01  7.20000000E-01  7.20000000E-01  7.20000000E-01
  7.20000000E-01  8.50000000E-01  7.20000000E-01  8.50000000E-01  7.20000000E-01
  8.50000000E-01  7.20000000E-01  8.50000000E-01  7.20000000E-01  7.20000000E-01
  8.50000000E-01  8.50000000E-01  8.50000000E-01  8.50000000E-01  7.90000000E-01
  7.90000000E-01  7.20000000E-01  8.50000000E-01  7.90000000E-01  7.20000000E-01
  8.50000000E-01  7.20000000E-01  7.20000000E-01  7.20000000E-01  7.20000000E-01
  8.50000000E-01  7.20000000E-01  7.20000000E-01  8.50000000E-01  7.20000000E-01
  7.20000000E-01  7.20000000E-01  7.20000000E-01  7.20000000E-01  7.20000000E-01
  7.20000000E-01  7.20000000E-01  7.20000000E-01  7.20000000E-01  7.20000000E-01
  7.20000000E-01  7.20000000E-01  8.50000000E-01  7.20000000E-01  8.50000000E-01
  8.50000000E-01  7.20000000E-01  8.50000000E-01  7.20000000E-01  7.20000000E-01
  8.50000000E-01  7.20000000E-01  8.50000000E-01  7.20000000E-01  8.50000000E-01
  7.20000000E-01  8.50000000E-01  7.20000000E-01  8.50000000E-01  7.20000000E-01
  8.50000000E-01  7.20000000E-01  8.50000000E-01  7.20000000E-01  8.50000000E-01
  7.20000000E-01  8.50000000E-01  8.50000000E-01  7.20000000E-01  8.50000000E-01
  8.50000000E-01  8.50000000E-01  7.20000000E-01  8.50000000E-01  7.20000000E-01
  8.50000000E-01  8.50000000E-01  7.20000000E-01  8.50000000E-01  8.50000000E-01
  7.20000000E-01  8.50000000E-01  8.50000000E-01  8.50000000E-01  8.50000000E-01
  8.50000000E-01  8.50000000E-01  8.50000000E-01  8.50000000E-01  7.20000000E-01
  7.20000000E-01  7.20000000E-01  7.20000000E-01  7.20000000E-01  7.20000000E-01
  8.50000000E-01  8.50000000E-01  8.50000000E-01  8.50000000E-01  8.50000000E-01
  8.50000000E-01  8.50000000E-01  8.50000000E-01  8.50000000E-01  8.50000000E-01
  8.50000000E-01  8.50000000E-01  8.50000000E-01  8.50000000E-01  8.50000000E-01
  8.50000000E-01  8.50000000E-01  8.50000000E-01  8.50000000E-01  7.20000000E-01
  7.20000000E-01  7.20000000E-01  7.20000000E-01  8.50000000E-01  8.50000000E-01
  8.50000000E-01  7.20000000E-01  8.50000000E-01  7.20000000E-01  8.50000000E-01
  7.20000000E-01  8.50000000E-01  8.50000000E-01  7.90000000E-01  7.20000000E-01
  7.20000000E-01  7.20000000E-01  7.20000000E-01  7.20000000E-01  7.20000000E-01
  7.20000000E-01  8.50000000E-01  7.20000000E-01  8.50000000E-01  7.20000000E-01
  8.50000000E-01  7.20000000E-01  8.50000000E-01  7.20000000E-01  7.20000000E-01
  8.50000000E-01  7.20000000E-01  8.50000000E-01  8.50000000E-01  7.20000000E-01
  7.20000000E-01  7.20000000E-01  7.20000000E-01  8.50000000E-01  7.20000000E-01
  7.20000000E-01  7.20000000E-01  7.20000000E-01  7.20000000E-01  7.20000000E-01
  7.20000000E-01  7.20000000E-01  8.50000000E-01  7.20000000E-01  8.50000000E-01
  7.20000000E-01  8.50000000E-01  7.20000000E-01  8.50000000E-01  7.20000000E-01
  7.20000000E-01  8.50000000E-01  8.50000000E-01  8.50000000E-01  8.50000000E-01
  7.90000000E-01  7.90000000E-01  7.20000000E-01  8.50000000E-01  7.90000000E-01
  7.20000000E-01  8.50000000E-01  7.20000000E-01  7.20000000E-01  7.20000000E-01
  7.20000000E-01  8.50000000E-01  7.20000000E-01  7.20000000E-01  8.50000000E-01
  7.20000000E-01  7.20000000E-01  7.20000000E-01  7.20000000E-01  7.20000000E-01
  7.20000000E-01  7.20000000E-01  7.20000000E-01  7.20000000E-01  7.20000000E-01
  7.20000000E-01  7.20000000E-01  7.20000000E-01  8.50000000E-01  7.20000000E-01
  8.50000000E-01  8.50000000E-01  7.20000000E-01  8.50000000E-01  7.20000000E-01
  7.20000000E-01  8.50000000E-01  7.20000000E-01  8.50000000E-01  7.20000000E-01
  8.50000000E-01  7.20000000E-01  8.50000000E-01  7.20000000E-01  8.50000000E-01
  7.20000000E-01  8.50000000E-01  7.20000000E-01  8.50000000E-01  7.20000000E-01
  8.50000000E-01  7.20000000E-01  8.50000000E-01  8.50000000E-01  7.20000000E-01
  8.50000000E-01  8.50000000E-01  8.50000000E-01  7.20000000E-01  8.50000000E-01
  7.20000000E-01  8.50000000E-01  8.50000000E-01  7.20000000E-01  8.50000000E-01
  8.50000000E-01  7.20000000E-01  8.50000000E-01  8.50000000E-01  8.50000000E-01
  8.50000000E-01  8.50000000E-01  8.50000000E-01  8.50000000E-01  8.50000000E-01
  7.20000000E-01  7.20000000E-01  7.20000000E-01  7.20000000E-01  7.20000000E-01
  7.20000000E-01  8.50000000E-01  8.50000000E-01  8.50000000E-01  8.50000000E-01
  8.50000000E-01  8.50000000E-01  8.50000000E-01  8.50000000E-01  8.50000000E-01
  8.50000000E-01  8.50000000E-01  8.50000000E-01  8.50000000E-01  8.50000000E-01
  8.50000000E-01  8.50000000E-01  8.50000000E-01  8.50000000E-01  8.50000000E-01
  7.20000000E-01  7.20000000E-01  7.20000000E-01  7.20000000E-01  8.50000000E-01
  8.50000000E-01  8.50000000E-01  7.20000000E-01  8.50000000E-01  7.20000000E-01
  8.50000000E-01  7.20000000E-01  8.50000000E-01  8.50000000E-01  7.90000000E-01
  7.20000000E-01  7.20000000E-01  7.20000000E-01  7.20000000E-01  7.20000000E-01
  7.20000000E-01  7.20000000E-01  8.50000000E-01  7.20000000E-01  8.50000000E-01
  7.20000000E-01  8.50000000E-01  7.20000000E-01  8.50000000E-01  7.20000000E-01
  7.20000000E-01  8.50000000E-01  7.20000000E-01  8.50000000E-01  8.50000000E-01
  7.20000000E-01  7.20000000E-01  7.20000000E-01  7.20000000E-01  8.50000000E-01
  7.20000000E-01  7.20000000E-01  7.20000000E-01  7.20000000E-01  7.20000000E-01
  7.20000000E-01  7.20000000E-01  7.20000000E-01  8.50000000E-01  7.20000000E-01
  8.50000000E-01  7.20000000E-01  8.50000000E-01  7.20000000E-01  8.50000000E-01
  7.20000000E-01  7.20000000E-01  8.50000000E-01  8.50000000E-01  8.50000000E-01
  8.50000000E-01  7.90000000E-01  7.90000000E-01  7.20000000E-01  8.50000000E-01
  7.90000000E-01  7.20000000E-01  8.50000000E-01  7.20000000E-01  7.20000000E-01
  7.20000000E-01  7.20000000E-01  8.50000000E-01  7.20000000E-01  7.20000000E-01
  8.50000000E-01  7.20000000E-01  7.20000000E-01  7.20000000E-01  7.20000000E-01
  7.20000000E-01  7.20000000E-01  7.20000000E-01  7.20000000E-01  7.20000000E-01
  7.20000000E-01  7.20000000E-01  7.20000000E-01  7.20000000E-01  8.50000000E-01
  7.20000000E-01  8.50000000E-01  8.50000000E-01  7.20000000E-01  8.50000000E-01
  7.20000000E-01  7.20000000E-01  8.50000000E-01  7.20000000E-01  8.50000000E-01
  7.20000000E-01  8.50000000E-01  7.20000000E-01  8.50000000E-01  7.20000000E-01
  8.50000000E-01  7.20000000E-01  8.50000000E-01  7.20000000E-01  8.50000000E-01
  7.20000000E-01  8.50000000E-01  7.20000000E-01  8.50000000E-01  8.50000000E-01
  7.20000000E-01  8.50000000E-01  8.50000000E-01  8.50000000E-01  7.20000000E-01
  8.50000000E-01  7.20000000E-01  8.50000000E-01  8.50000000E-01  7.20000000E-01
  8.50000000E-01  8.50000000E-01  7.20000000E-01  8.50000000E-01  8.50000000E-01
  8.50000000E-01  8.50000000E-01  8.50000000E-01  8.50000000E-01  8.50000000E-01
  8.50000000E-01  7.20000000E-01  7.20000000E-01  7.20000000E-01  7.20000000E-01
  7.20000000E-01  7.20000000E-01  8.50000000E-01  8.50000000E-01  8.50000000E-01
  8.50000000E-01  8.50000000E-01  8.50000000E-01  8.50000000E-01  8.50000000E-01
  8.50000000E-01  8.50000000E-01  8.50000000E-01  8.50000000E-01  8.50000000E-01
  8.50000000E-01  8.50000000E-01  8.50000000E-01  8.50000000E-01  8.50000000E-01
  8.50000000E-01  7.20000000E-01  7.20000000E-01  7.20000000E-01  7.20000000E-01
  8.50000000E-01  8.50000000E-01  8.50000000E-01  7.20000000E-01  8.50000000E-01
  7.20000000E-01  8.50000000E-01  7.20000000E-01  8.50000000E-01  8.50000000E-01
  7.90000000E-01  7.20000000E-01  7.20000000E-01  7.20000000E-01  7.20000000E-01
  7.20000000E-01  7.20000000E-01  7.20000000E-01  8.50000000E-01  7.20000000E-01
  8.50000000E-01  7.20000000E-01  8.50000000E-01  7.20000000E-01  8.50000000E-01
  7.20000000E-01  7.20000000E-01  8.50000000E-01  7.20000000E-01  8.50000000E-01
  8.50000000E-01  7.20000000E-01  7.20000000E-01  7.20000000E-01  7.20000000E-01
  8.50000000E-01  7.20000000E-01  7.20000000E-01  7.20000000E-01  7.20000000E-01
  7.20000000E-01  7.20000000E-01  7.20000000E-01  7.20000000E-01  8.50000000E-01
  7.20000000E-01  8.50000000E-01  7.20000000E-01  8.50000000E-01  7.20000000E-01
  8.50000000E-01  7.20000000E-01  7.20000000E-01  8.50000000E-01  8.50000000E-01
  8.50000000E-01  8.50000000E-01  7.90000000E-01  7.90000000E-01  7.20000000E-01
  8.50000000E-01  7.90000000E-01  7.20000000E-01  8.50000000E-01  7.20000000E-01
  7.20000000E-01  7.20000000E-01  7.20000000E-01  8.50000000E-01  7.20000000E-01
  7.20000000E-01  8.50000000E-01  7.20000000E-01  7.20000000E-01  7.20000000E-01
  7.20000000E-01  7.20000000E-01  7.20000000E-01  7.20000000E-01  7.20000000E-01
  7.20000000E-01  7.20000000E-01  7.20000000E-01  7.20000000E-01  7.20000000E-01
  8.50000000E-01  7.20000000E-01  8.50000000E-01  8.50000000E-01  7.20000000E-01
  8.50000000E-01  7.20000000E-01  7.20000000E-01  8.50000000E-01  7.20000000E-01
  8.50000000E-01  7.20000000E-01  8.50000000E-01  7.20000000E-01  8.50000000E-01
  7.20000000E-01  8.50000000E-01  7.20000000E-01  8.50000000E-01  7.20000000E-01
  8.50000000E-01  7.20000000E-01  8.50000000E-01  7.20000000E-01  8.50000000E-01
  8.50000000E-01  7.20000000E-01  8.50000000E-01  8.50000000E-01  8.50000000E-01
  7.20000000E-01  8.50000000E-01  7.20000000E-01  8.50000000E-01  8.50000000E-01
  7.20000000E-01  8.50000000E-01  8.50000000E-01  7.20000000E-01  8.50000000E-01
  8.50000000E-01  8.50000000E-01  8.50000000E-01  8.50000000E-01  8.50000000E-01
  8.50000000E-01  8.50000000E-01  7.20000000E-01  7.20000000E-01  7.20000000E-01
  7.20000000E-01  7.20000000E-01  7.20000000E-01  8.50000000E-01  8.50000000E-01
  8.50000000E-01  8.50000000E-01  8.50000000E-01  8.50000000E-01  8.50000000E-01
  8.50000000E-01  8.50000000E-01  8.50000000E-01  8.50000000E-01  8.50000000E-01
  8.50000000E-01  8.50000000E-01  8.50000000E-01  8.50000000E-01  8.50000000E-01
  8.50000000E-01  8.50000000E-01  7.20000000E-01  7.20000000E-01  7.20000000E-01
  7.20000000E-01  8.50000000E-01  8.50000000E-01  8.50000000E-01  7.20000000E-01
  8.50000000E-01  7.20000000E-01  8.50000000E-01  7.20000000E-01  8.50000000E-01
  8.50000000E-01  7.90000000E-01  7.20000000E-01  7.20000000E-01  7.20000000E-01
  7.20000000E-01  7.20000000E-01  7.20000000E-01  7.20000000E-01  8.50000000E-01
  7.20000000E-01  8.50000000E-01  7.20000000E-01  8.50000000E-01  7.20000000E-01
  8.50000000E-01  7.20000000E-01  7.20000000E-01  8.50000000E-01  7.20000000E-01
  8.50000000E-01  8.50000000E-01  7.20000000E-01  7.20000000E-01  7.20000000E-01
  7.20000000E-01  8.50000000E-01  7.20000000E-01  7.20000000E-01  7.20000000E-01
  7.20000000E-01  7.20000000E-01  7.20000000E-01  7.20000000E-01  7.20000000E-01
  8.50000000E-01  7.20000000E-01  8.50000000E-01  7.20000000E-01  8.50000000E-01
  7.20000000E-01  8.50000000E-01  7.20000000E-01  7.20000000E-01  8.50000000E-01
  8.50000000E-01  8.50000000E-01  8.50000000E-01  7.90000000E-01  7.90000000E-01
  7.20000000E-01  8.50000000E-01  7.90000000E-01  7.20000000E-01  8.50000000E-01
  7.20000000E-01  7.20000000E-01  7.20000000E-01  7.20000000E-01  8.50000000E-01
  7.20000000E-01  7.20000000E-01  8.50000000E-01  7.20000000E-01  7.20000000E-01
  7.20000000E-01  7.20000000E-01  7.20000000E-01  7.20000000E-01  7.20000000E-01
  7.20000000E-01  7.20000000E-01  7.20000000E-01  7.20000000E-01  7.20000000E-01
  7.20000000E-01  8.50000000E-01  7.20000000E-01  8.50000000E-01  8.50000000E-01
  7.20000000E-01  8.50000000E-01  7.20000000E-01  7.20000000E-01  8.50000000E-01
  7.20000000E-01  8.50000000E-01  7.20000000E-01  8.50000000E-01  7.20000000E-01
  8.50000000E-01  7.20000000E-01  8.50000000E-01  7.20000000E-01  8.50000000E-01
  7.20000000E-01  8.50000000E-01  7.20000000E-01  8.50000000E-01  7.20000000E-01
  8.50000000E-01  8.50000000E-01  7.20000000E-01  8.50000000E-01  8.50000000E-01
  8.50000000E-01  7.20000000E-01  8.50000000E-01  7.20000000E-01  8.50000000E-01
  8.50000000E-01  7.20000000E-01  8.50000000E-01  8.50000000E-01  7.20000000E-01
  8.50000000E-01  8.50000000E-01  8.50000000E-01  8.50000000E-01  8.50000000E-01
  8.50000000E-01  8.50000000E-01  8.50000000E-01  7.20000000E-01  7.20000000E-01
  7.20000000E-01  7.20000000E-01  7.20000000E-01  7.20000000E-01  8.50000000E-01
  8.50000000E-01  8.50000000E-01  8.50000000E-01  8.50000000E-01  8.50000000E-01
  8.50000000E-01  8.50000000E-01  8.50000000E-01  8.50000000E-01  8.50000000E-01
  8.50000000E-01  8.50000000E-01  8.50000000E-01  8.50000000E-01  8.50000000E-01
  8.50000000E-01  8.50000000E-01  8.50000000E-01  7.20000000E-01  7.20000000E-01
  7.20000000E-01  7.20000000E-01  8.50000000E-01  8.50000000E-01  8.50000000E-01
  7.20000000E-01  8.50000000E-01  7.20000000E-01  8.50000000E-01  7.20000000E-01
  8.50000000E-01  8.50000000E-01  7.90000000E-01  7.20000000E-01  7.20000000E-01
  7.20000000E-01  7.20000000E-01  7.20000000E-01  7.20000000E-01  7.20000000E-01
  8.50000000E-01  7.20000000E-01  8.50000000E-01  7.20000000E-01  8.50000000E-01
  7.20000000E-01  8.50000000E-01  7.20000000E-01  7.20000000E-01  8.50000000E-01
  7.20000000E-01  8.50000000E-01  8.50000000E-01  7.20000000E-01  7.20000000E-01
  7.20000000E-01  7.20000000E-01  8.50000000E-01  7.20000000E-01  7.20000000E-01
  7.20000000E-01  7.20000000E-01  7.20000000E-01  7.20000000E-01  7.20000000E-01
  7.20000000E-01  8.50000000E-01  7.20000000E-01  8.50000000E-01  7.20000000E-01
  8.50000000E-01  7.20000000E-01  8.50000000E-01  7.20000000E-01  7.20000000E-01
  8.50000000E-01  8.50000000E-01  8.50000000E-01  8.50000000E-01  7.90000000E-01
  7.90000000E-01  7.20000000E-01  8.50000000E-01  7.90000000E-01  7.20000000E-01
  8.50000000E-01  7.20000000E-01  7.20000000E-01  7.20000000E-01  7.20000000E-01
  8.50000000E-01  7.20000000E-01  7.20000000E-01  8.50000000E-01  7.20000000E-01
  7.20000000E-01  7.20000000E-01  7.20000000E-01  7.20000000E-01  7.20000000E-01
  7.20000000E-01  7.20000000E-01  7.20000000E-01  7.20000000E-01  7.20000000E-01
  7.20000000E-01  7.20000000E-01  8.50000000E-01  7.20000000E-01  8.50000000E-01
  8.50000000E-01  7.20000000E-01  8.50000000E-01  7.20000000E-01  7.20000000E-01
  8.50000000E-01  7.20000000E-01  8.50000000E-01  7.20000000E-01  8.50000000E-01
  7.20000000E-01  8.50000000E-01  7.20000000E-01  8.50000000E-01  7.20000000E-01
  8.50000000E-01  7.20000000E-01  8.50000000E-01  7.20000000E-01  8.50000000E-01
  7.20000000E-01  8.50000000E-01  8.50000000E-01  7.20000000E-01  8.50000000E-01
  8.50000000E-01  8.50000000E-01  7.20000000E-01  8.50000000E-01  7.20000000E-01
  8.50000000E-01  8.50000000E-01  7.20000000E-01  8.50000000E-01  8.50000000E-01
  7.20000000E-01  8.50000000E-01  8.50000000E-01  8.50000000E-01  8.50000000E-01
  8.50000000E-01  8.50000000E-01  8.50000000E-01  8.50000000E-01  7.20000000E-01
  7.20000000E-01  7.20000000E-01  7.20000000E-01  7.20000000E-01  7.20000000E-01
  8.50000000E-01  8.50000000E-01  8.50000000E-01  8.50000000E-01  8.50000000E-01
  8.50000000E-01  8.50000000E-01  8.50000000E-01  8.50000000E-01  8.50000000E-01
  8.50000000E-01  8.50000000E-01  8.50000000E-01  8.50000000E-01  8.50000000E-01
  8.50000000E-01  8.50000000E-01  8.50000000E-01  8.50000000E-01  7.20000000E-01
  7.20000000E-01  7.20000000E-01  7.20000000E-01  8.50000000E-01  8.50000000E-01
  8.50000000E-01  7.20000000E-01  8.50000000E-01  7.20000000E-01  8.50000000E-01
  7.20000000E-01  8.50000000E-01  8.50000000E-01  7.90000000E-01  7.20000000E-01
  7.20000000E-01  7.20000000E-01  7.20000000E-01  7.20000000E-01  7.20000000E-01
  7.20000000E-01  8.50000000E-01  7.20000000E-01  8.50000000E-01  7.20000000E-01
  8.50000000E-01  7.20000000E-01  8.50000000E-01  7.20000000E-01  7.20000000E-01
  8.50000000E-01  7.20000000E-01  8.50000000E-01  8.50000000E-01  7.20000000E-01
  7.20000000E-01  7.20000000E-01  7.20000000E-01  8.50000000E-01  7.20000000E-01
  7.20000000E-01  7.20000000E-01  7.20000000E-01  7.20000000E-01  7.20000000E-01
  7.20000000E-01  7.20000000E-01  8.50000000E-01  7.20000000E-01  8.50000000E-01
  7.20000000E-01  8.50000000E-01  7.20000000E-01  8.50000000E-01  7.20000000E-01
  7.20000000E-01  8.50000000E-01  8.50000000E-01  8.50000000E-01  8.50000000E-01
  7.90000000E-01  7.90000000E-01  7.20000000E-01  8.50000000E-01  7.90000000E-01
  7.20000000E-01  8.50000000E-01  7.20000000E-01  7.20000000E-01  7.20000000E-01
  7.20000000E-01  8.50000000E-01  7.20000000E-01  7.20000000E-01  8.50000000E-01
  7.20000000E-01  7.20000000E-01  7.20000000E-01  7.20000000E-01  7.20000000E-01
  7.20000000E-01  7.20000000E-01  7.20000000E-01  7.20000000E-01  7.20000000E-01
  7.20000000E-01  7.20000000E-01  7.20000000E-01  8.50000000E-01  7.20000000E-01
  8.50000000E-01  8.50000000E-01  7.20000000E-01  8.50000000E-01  7.20000000E-01
  7.20000000E-01  8.50000000E-01  7.20000000E-01  8.50000000E-01  7.20000000E-01
  8.50000000E-01  7.20000000E-01  8.50000000E-01  7.20000000E-01  8.50000000E-01
  7.20000000E-01  8.50000000E-01  7.20000000E-01  8.50000000E-01  7.20000000E-01
  8.50000000E-01  7.20000000E-01  8.50000000E-01  8.50000000E-01  7.20000000E-01
  8.50000000E-01  8.50000000E-01  8.50000000E-01  7.20000000E-01  8.50000000E-01
  7.20000000E-01  8.50000000E-01  8.50000000E-01  7.20000000E-01  8.50000000E-01
  8.50000000E-01  7.20000000E-01  8.50000000E-01  8.50000000E-01  8.50000000E-01
  8.50000000E-01  8.50000000E-01  8.50000000E-01  8.50000000E-01  8.50000000E-01
  7.20000000E-01  7.20000000E-01  7.20000000E-01  7.20000000E-01  7.20000000E-01
  7.20000000E-01  8.50000000E-01  8.50000000E-01  8.50000000E-01  8.50000000E-01
  8.50000000E-01  8.50000000E-01  8.50000000E-01  8.50000000E-01  8.50000000E-01
  8.50000000E-01  8.50000000E-01  8.50000000E-01  8.50000000E-01  8.50000000E-01
  8.50000000E-01  8.50000000E-01  8.50000000E-01  8.50000000E-01  8.50000000E-01
  7.20000000E-01  7.20000000E-01  7.20000000E-01  7.20000000E-01  8.50000000E-01
  8.50000000E-01  8.50000000E-01  7.20000000E-01  8.50000000E-01  7.20000000E-01
  8.50000000E-01  7.20000000E-01  8.50000000E-01  8.50000000E-01  7.90000000E-01
  7.20000000E-01  7.20000000E-01  7.20000000E-01  7.20000000E-01  7.20000000E-01
  7.20000000E-01  7.20000000E-01  8.50000000E-01  7.20000000E-01  8.50000000E-01
  7.20000000E-01  8.50000000E-01  7.20000000E-01  8.50000000E-01  7.20000000E-01
  7.20000000E-01  8.50000000E-01  7.20000000E-01  8.50000000E-01  8.50000000E-01
  7.20000000E-01  7.20000000E-01  7.20000000E-01  7.20000000E-01  8.50000000E-01
  7.20000000E-01  7.20000000E-01  7.20000000E-01  7.20000000E-01  7.20000000E-01
  7.20000000E-01  7.20000000E-01  7.20000000E-01  8.50000000E-01  7.20000000E-01
  8.50000000E-01  7.20000000E-01  8.50000000E-01  7.20000000E-01  8.50000000E-01
  7.20000000E-01  7.20000000E-01  8.50000000E-01  8.50000000E-01  8.50000000E-01
  8.50000000E-01  7.90000000E-01  7.90000000E-01  7.20000000E-01  8.50000000E-01
  7.90000000E-01  7.20000000E-01  8.50000000E-01  7.20000000E-01  7.20000000E-01
  7.20000000E-01  7.20000000E-01  8.50000000E-01  7.20000000E-01  7.20000000E-01
  8.50000000E-01  7.20000000E-01  7.20000000E-01  7.20000000E-01  7.20000000E-01
  7.20000000E-01  7.20000000E-01  7.20000000E-01  7.20000000E-01  7.20000000E-01
  7.20000000E-01  7.20000000E-01  7.20000000E-01  7.20000000E-01  8.50000000E-01
  7.20000000E-01  8.50000000E-01  8.50000000E-01  7.20000000E-01  8.50000000E-01
  7.20000000E-01  7.20000000E-01  8.50000000E-01  7.20000000E-01  8.50000000E-01
  7.20000000E-01  8.50000000E-01  7.20000000E-01  8.50000000E-01  7.20000000E-01
  8.50000000E-01  7.20000000E-01  8.50000000E-01  7.20000000E-01  8.50000000E-01
  7.20000000E-01  8.50000000E-01  7.20000000E-01  8.50000000E-01  8.50000000E-01
  7.20000000E-01  8.50000000E-01  8.50000000E-01  8.50000000E-01  7.20000000E-01
  8.50000000E-01  7.20000000E-01  8.50000000E-01  8.50000000E-01  7.20000000E-01
  8.50000000E-01  8.50000000E-01  7.20000000E-01  8.50000000E-01  8.50000000E-01
  8.50000000E-01  8.50000000E-01  8.50000000E-01  8.50000000E-01  8.50000000E-01
  8.50000000E-01  7.20000000E-01  7.20000000E-01  7.20000000E-01  7.20000000E-01
  7.20000000E-01  7.20000000E-01  8.50000000E-01  8.50000000E-01  8.50000000E-01
  8.50000000E-01  8.50000000E-01  8.50000000E-01  8.50000000E-01  8.50000000E-01
  8.50000000E-01  8.50000000E-01  8.50000000E-01  8.50000000E-01  8.50000000E-01
  8.50000000E-01  8.50000000E-01  8.50000000E-01  8.50000000E-01  8.50000000E-01
  8.50000000E-01  7.20000000E-01  7.20000000E-01  7.20000000E-01  7.20000000E-01
  8.50000000E-01  8.50000000E-01  8.50000000E-01  7.20000000E-01  8.50000000E-01
  7.20000000E-01  8.50000000E-01  7.20000000E-01  8.50000000E-01  8.50000000E-01
  7.90000000E-01  7.20000000E-01  7.20000000E-01  7.20000000E-01  7.20000000E-01
  7.20000000E-01  7.20000000E-01  7.20000000E-01  8.50000000E-01  7.20000000E-01
  8.50000000E-01  7.20000000E-01  8.50000000E-01  7.20000000E-01  8.50000000E-01
  7.20000000E-01  7.20000000E-01  8.50000000E-01  7.20000000E-01  8.50000000E-01
  8.50000000E-01  7.20000000E-01  7.20000000E-01  7.20000000E-01  7.20000000E-01
  8.50000000E-01  7.20000000E-01  7.20000000E-01  7.20000000E-01  7.20000000E-01
  7.20000000E-01  7.20000000E-01  7.20000000E-01  7.20000000E-01  8.50000000E-01
  7.20000000E-01  8.50000000E-01  7.20000000E-01  8.50000000E-01  7.20000000E-01
  8.50000000E-01  7.20000000E-01  7.20000000E-01  8.50000000E-01  8.50000000E-01
  8.50000000E-01  8.50000000E-01  7.90000000E-01  7.90000000E-01  7.20000000E-01
  8.50000000E-01  7.90000000E-01  7.20000000E-01  8.50000000E-01  7.20000000E-01
  7.20000000E-01  7.20000000E-01  7.20000000E-01  8.50000000E-01  7.20000000E-01
  7.20000000E-01  8.50000000E-01  7.20000000E-01  7.20000000E-01  7.20000000E-01
  7.20000000E-01  7.20000000E-01  7.20000000E-01  7.20000000E-01  7.20000000E-01
  7.20000000E-01  7.20000000E-01  7.20000000E-01  7.20000000E-01  7.20000000E-01
  8.50000000E-01  7.20000000E-01  8.50000000E-01  8.50000000E-01  7.20000000E-01
  8.50000000E-01  7.20000000E-01  7.20000000E-01  8.50000000E-01  7.20000000E-01
  8.50000000E-01  7.20000000E-01  8.50000000E-01  7.20000000E-01  8.50000000E-01
  7.20000000E-01  8.50000000E-01  7.20000000E-01  8.50000000E-01  7.20000000E-01
  8.50000000E-01  7.20000000E-01  8.50000000E-01  7.20000000E-01  8.50000000E-01
  8.50000000E-01  7.20000000E-01  8.50000000E-01  8.50000000E-01  8.50000000E-01
  7.20000000E-01  8.50000000E-01  7.20000000E-01  8.50000000E-01  8.50000000E-01
  7.20000000E-01  8.50000000E-01  8.50000000E-01  7.20000000E-01  8.50000000E-01
  8.50000000E-01  8.50000000E-01  8.50000000E-01  8.50000000E-01  8.50000000E-01
  8.50000000E-01  8.50000000E-01  7.20000000E-01  7.20000000E-01  7.20000000E-01
  7.20000000E-01  7.20000000E-01  7.20000000E-01  8.50000000E-01  8.50000000E-01
  8.50000000E-01  8.50000000E-01  8.50000000E-01  8.50000000E-01  8.50000000E-01
  8.50000000E-01  8.50000000E-01  8.50000000E-01  8.50000000E-01  8.50000000E-01
  8.50000000E-01  8.50000000E-01  8.50000000E-01  8.50000000E-01  8.50000000E-01
  8.50000000E-01  8.50000000E-01  7.20000000E-01  7.20000000E-01  7.20000000E-01
  7.20000000E-01  8.50000000E-01  8.50000000E-01  8.50000000E-01  7.20000000E-01
  8.50000000E-01  7.20000000E-01  8.50000000E-01  7.20000000E-01  8.50000000E-01
  8.50000000E-01  7.90000000E-01  7.20000000E-01  7.20000000E-01  7.20000000E-01
  7.20000000E-01  7.20000000E-01  7.20000000E-01  7.20000000E-01  8.50000000E-01
  7.20000000E-01  8.50000000E-01  7.20000000E-01  8.50000000E-01  7.20000000E-01
  8.50000000E-01  7.20000000E-01  7.20000000E-01  8.50000000E-01  7.20000000E-01
  8.50000000E-01  8.50000000E-01  7.20000000E-01  7.20000000E-01  7.20000000E-01
  7.20000000E-01  8.50000000E-01  7.20000000E-01  7.20000000E-01  7.20000000E-01
  7.20000000E-01  7.20000000E-01  7.20000000E-01  7.20000000E-01  7.20000000E-01
  8.50000000E-01  7.20000000E-01  8.50000000E-01  7.20000000E-01  8.50000000E-01
  7.20000000E-01  8.50000000E-01  7.20000000E-01  7.20000000E-01  8.50000000E-01
  8.50000000E-01  8.50000000E-01  8.50000000E-01  7.90000000E-01  7.90000000E-01
  7.20000000E-01  8.50000000E-01  7.90000000E-01  7.20000000E-01  8.50000000E-01
  7.20000000E-01  7.20000000E-01  7.20000000E-01  7.20000000E-01  8.50000000E-01
  7.20000000E-01  7.20000000E-01  8.50000000E-01  7.20000000E-01  7.20000000E-01
  7.20000000E-01  7.20000000E-01  7.20000000E-01  7.20000000E-01  7.20000000E-01
  7.20000000E-01  7.20000000E-01  7.20000000E-01  7.20000000E-01  7.20000000E-01
  7.20000000E-01  8.50000000E-01  7.20000000E-01  8.50000000E-01  8.50000000E-01
  7.20000000E-01  8.50000000E-01  7.20000000E-01  7.20000000E-01  8.50000000E-01
  7.20000000E-01  8.50000000E-01  7.20000000E-01  8.50000000E-01  7.20000000E-01
  8.50000000E-01  7.20000000E-01  8.50000000E-01  7.20000000E-01  8.50000000E-01
  7.20000000E-01  8.50000000E-01  7.20000000E-01  8.50000000E-01  7.20000000E-01
  8.50000000E-01  8.50000000E-01  7.20000000E-01  8.50000000E-01  8.50000000E-01
  8.50000000E-01  7.20000000E-01  8.50000000E-01  7.20000000E-01  8.50000000E-01
  8.50000000E-01  7.20000000E-01  8.50000000E-01  8.50000000E-01  7.20000000E-01
  8.50000000E-01  8.50000000E-01  8.50000000E-01  8.50000000E-01  8.50000000E-01
  8.50000000E-01  8.50000000E-01  8.50000000E-01  7.20000000E-01  7.20000000E-01
  7.20000000E-01  7.20000000E-01  7.20000000E-01  7.20000000E-01  8.50000000E-01
  8.50000000E-01  8.50000000E-01  8.50000000E-01  8.50000000E-01  8.50000000E-01
  8.50000000E-01  8.50000000E-01  8.50000000E-01  8.50000000E-01  8.50000000E-01
  8.50000000E-01  8.50000000E-01  8.50000000E-01  8.50000000E-01  8.50000000E-01
  8.50000000E-01  8.50000000E-01  8.50000000E-01  7.20000000E-01  7.20000000E-01
  7.20000000E-01  7.20000000E-01  8.50000000E-01  8.50000000E-01  8.50000000E-01
  7.20000000E-01  8.50000000E-01  7.20000000E-01  8.50000000E-01  7.20000000E-01
  8.50000000E-01  8.50000000E-01  7.90000000E-01  7.20000000E-01  7.20000000E-01
  7.20000000E-01  7.20000000E-01  7.20000000E-01  7.20000000E-01  7.20000000E-01
  8.50000000E-01  7.20000000E-01  8.50000000E-01  7.20000000E-01  8.50000000E-01
  7.20000000E-01  8.50000000E-01  7.20000000E-01  7.20000000E-01  8.50000000E-01
  7.20000000E-01  8.50000000E-01  8.50000000E-01  7.20000000E-01  7.20000000E-01
  7.20000000E-01  7.20000000E-01  8.50000000E-01  7.20000000E-01  7.20000000E-01
  7.20000000E-01  7.20000000E-01  7.20000000E-01  7.20000000E-01  7.20000000E-01
  7.20000000E-01  8.50000000E-01  7.20000000E-01  8.50000000E-01  7.20000000E-01
  8.50000000E-01  7.20000000E-01  8.50000000E-01  7.20000000E-01  7.20000000E-01
  8.50000000E-01  8.50000000E-01  8.50000000E-01  8.50000000E-01  7.90000000E-01
  7.90000000E-01  7.20000000E-01  8.50000000E-01  7.90000000E-01  7.20000000E-01
  8.50000000E-01  7.20000000E-01  7.20000000E-01  7.20000000E-01  7.20000000E-01
  8.50000000E-01  7.20000000E-01  7.20000000E-01  8.50000000E-01  7.20000000E-01
  7.20000000E-01  7.20000000E-01  7.20000000E-01  7.20000000E-01  7.20000000E-01
  7.20000000E-01  7.20000000E-01  7.20000000E-01  7.20000000E-01  7.20000000E-01
  7.20000000E-01  7.20000000E-01  8.50000000E-01  7.20000000E-01  8.50000000E-01
  8.50000000E-01  7.20000000E-01  8.50000000E-01  7.20000000E-01  7.20000000E-01
  8.50000000E-01  7.20000000E-01  8.50000000E-01  7.20000000E-01  8.50000000E-01
  7.20000000E-01  8.50000000E-01  7.20000000E-01  8.50000000E-01  7.20000000E-01
  8.50000000E-01  7.20000000E-01  8.50000000E-01  7.20000000E-01  8.50000000E-01
  7.20000000E-01  8.50000000E-01  8.50000000E-01  7.20000000E-01  8.50000000E-01
  8.50000000E-01  8.50000000E-01  7.20000000E-01  8.50000000E-01  7.20000000E-01
  8.50000000E-01  8.50000000E-01  7.20000000E-01  8.50000000E-01  8.50000000E-01
  7.20000000E-01  8.50000000E-01  8.50000000E-01  8.50000000E-01  8.50000000E-01
  8.50000000E-01  8.50000000E-01  8.50000000E-01  8.50000000E-01  7.20000000E-01
  7.20000000E-01  7.20000000E-01  7.20000000E-01  7.20000000E-01  7.20000000E-01
  8.50000000E-01  8.50000000E-01  8.50000000E-01  8.50000000E-01  8.50000000E-01
  8.50000000E-01  8.50000000E-01  8.50000000E-01  8.50000000E-01  8.50000000E-01
  8.50000000E-01  8.50000000E-01  8.50000000E-01  8.50000000E-01  8.50000000E-01
  8.50000000E-01  8.50000000E-01  8.50000000E-01  8.50000000E-01  7.20000000E-01
  7.20000000E-01  7.20000000E-01  7.20000000E-01  8.50000000E-01  8.50000000E-01
  8.50000000E-01  7.20000000E-01  8.50000000E-01  7.20000000E-01  8.50000000E-01
  7.20000000E-01  8.50000000E-01  8.50000000E-01  7.90000000E-01  7.20000000E-01
  7.20000000E-01  7.20000000E-01  7.20000000E-01  7.20000000E-01  7.20000000E-01
  7.20000000E-01  8.50000000E-01  7.20000000E-01  8.50000000E-01  7.20000000E-01
  8.50000000E-01  7.20000000E-01  8.50000000E-01  7.20000000E-01  7.20000000E-01
  8.50000000E-01  7.20000000E-01  8.50000000E-01  8.50000000E-01  7.20000000E-01
  7.20000000E-01  7.20000000E-01  7.20000000E-01  8.50000000E-01  7.20000000E-01
  7.20000000E-01  7.20000000E-01  7.20000000E-01  7.20000000E-01  7.20000000E-01
  7.20000000E-01  7.20000000E-01  8.50000000E-01  7.20000000E-01  8.50000000E-01
  7.20000000E-01  8.50000000E-01  7.20000000E-01  8.50000000E-01  7.20000000E-01
  7.20000000E-01  8.50000000E-01  8.50000000E-01  8.50000000E-01  8.50000000E-01
  7.90000000E-01  7.90000000E-01  7.20000000E-01  8.50000000E-01  7.90000000E-01
  7.20000000E-01  8.50000000E-01  7.20000000E-01  7.20000000E-01  7.20000000E-01
  7.20000000E-01  8.50000000E-01  7.20000000E-01  7.20000000E-01  8.50000000E-01
  7.20000000E-01  7.20000000E-01  7.20000000E-01  7.20000000E-01  7.20000000E-01
  7.20000000E-01  7.20000000E-01  7.20000000E-01  7.20000000E-01  7.20000000E-01
  7.20000000E-01  7.20000000E-01  7.20000000E-01  8.50000000E-01  7.20000000E-01
  8.50000000E-01  8.50000000E-01  7.20000000E-01  8.50000000E-01  7.20000000E-01
  7.20000000E-01  8.50000000E-01  7.20000000E-01  8.50000000E-01  7.20000000E-01
  8.50000000E-01  7.20000000E-01  8.50000000E-01  7.20000000E-01  8.50000000E-01
  7.20000000E-01  8.50000000E-01  7.20000000E-01  8.50000000E-01  7.20000000E-01
  8.50000000E-01  7.20000000E-01  8.50000000E-01  8.50000000E-01  7.20000000E-01
  8.50000000E-01  8.50000000E-01  8.50000000E-01  7.20000000E-01  8.50000000E-01
  7.20000000E-01  8.50000000E-01  8.50000000E-01  7.20000000E-01  8.50000000E-01
  8.50000000E-01  7.20000000E-01  8.50000000E-01  8.50000000E-01  8.50000000E-01
  8.50000000E-01  8.50000000E-01  8.50000000E-01  8.50000000E-01  8.50000000E-01
  7.20000000E-01  7.20000000E-01  7.20000000E-01  7.20000000E-01  7.20000000E-01
  7.20000000E-01  8.50000000E-01  8.50000000E-01  8.50000000E-01  8.50000000E-01
  8.50000000E-01  8.50000000E-01  8.50000000E-01  8.50000000E-01  8.50000000E-01
  8.50000000E-01  8.50000000E-01  8.50000000E-01  8.50000000E-01  8.50000000E-01
  8.50000000E-01  8.50000000E-01  8.50000000E-01  8.50000000E-01  8.50000000E-01
  7.20000000E-01  7.20000000E-01  7.20000000E-01  7.20000000E-01  8.50000000E-01
  8.50000000E-01  8.50000000E-01  7.20000000E-01  8.50000000E-01  7.20000000E-01
  8.50000000E-01  7.20000000E-01  8.50000000E-01  8.50000000E-01  7.90000000E-01
  7.20000000E-01  7.20000000E-01  7.20000000E-01  7.20000000E-01  7.20000000E-01
  7.20000000E-01  7.20000000E-01  8.50000000E-01  7.20000000E-01  8.50000000E-01
  7.20000000E-01  8.50000000E-01  7.20000000E-01  8.50000000E-01  7.20000000E-01
  7.20000000E-01  8.50000000E-01  7.20000000E-01  8.50000000E-01  8.50000000E-01
  7.20000000E-01  7.20000000E-01  7.20000000E-01  7.20000000E-01  8.50000000E-01
  7.20000000E-01  7.20000000E-01  7.20000000E-01  7.20000000E-01  7.20000000E-01
  7.20000000E-01  7.20000000E-01  7.20000000E-01  8.50000000E-01  7.20000000E-01
  8.50000000E-01  7.20000000E-01  8.50000000E-01  7.20000000E-01  8.50000000E-01
  7.20000000E-01  7.20000000E-01  8.50000000E-01  8.50000000E-01  8.50000000E-01
  8.50000000E-01  7.90000000E-01  7.90000000E-01  7.20000000E-01  8.50000000E-01
  7.90000000E-01  7.20000000E-01  8.50000000E-01  7.20000000E-01  7.20000000E-01
  7.20000000E-01  7.20000000E-01  8.50000000E-01  7.20000000E-01  7.20000000E-01
  8.50000000E-01  7.20000000E-01  7.20000000E-01  7.20000000E-01  7.20000000E-01
  7.20000000E-01  7.20000000E-01  7.20000000E-01  7.20000000E-01  7.20000000E-01
  7.20000000E-01  7.20000000E-01  7.20000000E-01  7.20000000E-01  8.50000000E-01
  7.20000000E-01  8.50000000E-01  8.50000000E-01  7.20000000E-01  8.50000000E-01
  7.20000000E-01  7.20000000E-01  8.50000000E-01  7.20000000E-01  8.50000000E-01
  7.20000000E-01  8.50000000E-01  7.20000000E-01  8.50000000E-01  7.20000000E-01
  8.50000000E-01  7.20000000E-01  8.50000000E-01  7.20000000E-01  8.50000000E-01
  7.20000000E-01  8.50000000E-01  7.20000000E-01  8.50000000E-01  8.50000000E-01
  7.20000000E-01  8.50000000E-01  8.50000000E-01  8.50000000E-01  7.20000000E-01
  8.50000000E-01  7.20000000E-01  8.50000000E-01  8.50000000E-01  7.20000000E-01
  8.50000000E-01  8.50000000E-01  7.20000000E-01  8.50000000E-01  8.50000000E-01
  8.50000000E-01  8.50000000E-01  8.50000000E-01  8.50000000E-01  8.50000000E-01
  8.50000000E-01  7.20000000E-01  7.20000000E-01  7.20000000E-01  7.20000000E-01
  7.20000000E-01  7.20000000E-01  8.50000000E-01  8.50000000E-01  8.50000000E-01
  8.50000000E-01  8.50000000E-01  8.50000000E-01  8.50000000E-01  8.50000000E-01
  8.50000000E-01  8.50000000E-01  8.50000000E-01  8.50000000E-01  8.50000000E-01
  8.50000000E-01  8.50000000E-01  8.50000000E-01  8.50000000E-01  8.50000000E-01
  8.50000000E-01  7.20000000E-01  7.20000000E-01  7.20000000E-01  7.20000000E-01
  8.50000000E-01  8.50000000E-01  8.50000000E-01  7.20000000E-01  8.50000000E-01
  7.20000000E-01  8.50000000E-01  7.20000000E-01  8.50000000E-01  8.50000000E-01
  7.90000000E-01  7.20000000E-01  7.20000000E-01  7.20000000E-01  7.20000000E-01
  7.20000000E-01  7.20000000E-01  7.20000000E-01  8.50000000E-01  7.20000000E-01
  8.50000000E-01  7.20000000E-01  8.50000000E-01  7.20000000E-01  8.50000000E-01
  7.20000000E-01  7.20000000E-01  8.50000000E-01  7.20000000E-01  8.50000000E-01
  8.50000000E-01  7.20000000E-01  7.20000000E-01  7.20000000E-01  7.20000000E-01
  8.50000000E-01  7.20000000E-01  7.20000000E-01  7.20000000E-01  7.20000000E-01
  7.20000000E-01  7.20000000E-01  7.20000000E-01  7.20000000E-01  8.50000000E-01
  7.20000000E-01  8.50000000E-01  7.20000000E-01  8.50000000E-01  7.20000000E-01
  8.50000000E-01  7.20000000E-01  7.20000000E-01  8.50000000E-01  8.50000000E-01
  8.50000000E-01  8.50000000E-01  7.90000000E-01  7.90000000E-01  7.20000000E-01
  8.50000000E-01  7.90000000E-01  7.20000000E-01  8.50000000E-01  7.20000000E-01
  7.20000000E-01  7.20000000E-01  7.20000000E-01  8.50000000E-01  7.20000000E-01
  7.20000000E-01  8.50000000E-01  7.20000000E-01  7.20000000E-01  7.20000000E-01
  7.20000000E-01  7.20000000E-01  7.20000000E-01  7.20000000E-01  7.20000000E-01
  7.20000000E-01  7.20000000E-01  7.20000000E-01  7.20000000E-01  7.20000000E-01
  8.50000000E-01  7.20000000E-01  8.50000000E-01  8.50000000E-01  7.20000000E-01
  8.50000000E-01  7.20000000E-01  7.20000000E-01  8.50000000E-01  7.20000000E-01
  8.50000000E-01  7.20000000E-01  8.50000000E-01  7.20000000E-01  8.50000000E-01
  7.20000000E-01  8.50000000E-01  7.20000000E-01  8.50000000E-01  7.20000000E-01
  8.50000000E-01  7.20000000E-01  8.50000000E-01  7.20000000E-01  8.50000000E-01
  8.50000000E-01  7.20000000E-01  8.50000000E-01  8.50000000E-01  8.50000000E-01
  7.20000000E-01  8.50000000E-01  7.20000000E-01  8.50000000E-01  8.50000000E-01
  7.20000000E-01  8.50000000E-01  8.50000000E-01  7.20000000E-01  8.50000000E-01
  8.50000000E-01  8.50000000E-01  8.50000000E-01  8.50000000E-01  8.50000000E-01
  8.50000000E-01  8.50000000E-01  7.20000000E-01  7.20000000E-01  7.20000000E-01
  7.20000000E-01  7.20000000E-01  7.20000000E-01  8.50000000E-01  8.50000000E-01
  8.50000000E-01  8.50000000E-01  8.50000000E-01  8.50000000E-01  8.50000000E-01
  8.50000000E-01  8.50000000E-01  8.50000000E-01  8.50000000E-01  8.50000000E-01
  8.50000000E-01  8.50000000E-01  8.50000000E-01  8.50000000E-01  8.50000000E-01
  8.50000000E-01  8.50000000E-01  7.20000000E-01  7.20000000E-01  7.20000000E-01
  7.20000000E-01  8.50000000E-01  8.50000000E-01  8.50000000E-01  7.20000000E-01
  8.50000000E-01  7.20000000E-01  8.50000000E-01  7.20000000E-01  8.50000000E-01
  8.50000000E-01  7.90000000E-01  7.20000000E-01  7.20000000E-01  7.20000000E-01
  7.20000000E-01  7.20000000E-01  7.20000000E-01  7.20000000E-01  8.50000000E-01
  7.20000000E-01  8.50000000E-01  7.20000000E-01  8.50000000E-01  7.20000000E-01
  8.50000000E-01  7.20000000E-01  7.20000000E-01  8.50000000E-01  7.20000000E-01
  8.50000000E-01  8.50000000E-01  7.20000000E-01  7.20000000E-01  7.20000000E-01
  7.20000000E-01  8.50000000E-01  7.20000000E-01  7.20000000E-01  7.20000000E-01
  7.20000000E-01  7.20000000E-01  7.20000000E-01  7.20000000E-01  7.20000000E-01
  8.50000000E-01  7.20000000E-01  8.50000000E-01  7.20000000E-01  8.50000000E-01
  7.20000000E-01  8.50000000E-01  7.20000000E-01  7.20000000E-01  8.50000000E-01
  8.50000000E-01  8.50000000E-01  8.50000000E-01  7.90000000E-01  7.90000000E-01
  7.20000000E-01  8.50000000E-01  7.90000000E-01  7.20000000E-01  8.50000000E-01
  7.20000000E-01  7.20000000E-01  7.20000000E-01  7.20000000E-01  8.50000000E-01
  7.20000000E-01  7.20000000E-01  8.50000000E-01  7.20000000E-01  7.20000000E-01
  7.20000000E-01  7.20000000E-01  7.20000000E-01  7.20000000E-01  7.20000000E-01
  7.20000000E-01  7.20000000E-01  7.20000000E-01  7.20000000E-01  7.20000000E-01
  7.20000000E-01  8.50000000E-01  7.20000000E-01  8.50000000E-01  8.50000000E-01
  7.20000000E-01  8.50000000E-01  7.20000000E-01  7.20000000E-01  8.50000000E-01
  7.20000000E-01  8.50000000E-01  7.20000000E-01  8.50000000E-01  7.20000000E-01
  8.50000000E-01  7.20000000E-01  8.50000000E-01  7.20000000E-01  8.50000000E-01
  7.20000000E-01  8.50000000E-01  7.20000000E-01  8.50000000E-01  7.20000000E-01
  8.50000000E-01  8.50000000E-01  7.20000000E-01  8.50000000E-01  8.50000000E-01
  8.50000000E-01  7.20000000E-01  8.50000000E-01  7.20000000E-01  8.50000000E-01
  8.50000000E-01  7.20000000E-01  8.50000000E-01  8.50000000E-01  7.20000000E-01
  8.50000000E-01  8.50000000E-01  8.50000000E-01  8.50000000E-01  8.50000000E-01
  8.50000000E-01  8.50000000E-01  8.50000000E-01  7.20000000E-01  7.20000000E-01
  7.20000000E-01  7.20000000E-01  7.20000000E-01  7.20000000E-01  8.50000000E-01
  8.50000000E-01  8.50000000E-01  8.50000000E-01  8.50000000E-01  8.50000000E-01
  8.50000000E-01  8.50000000E-01  8.50000000E-01  8.50000000E-01  8.50000000E-01
  8.50000000E-01  8.50000000E-01  8.50000000E-01  8.50000000E-01  8.50000000E-01
  8.50000000E-01  8.50000000E-01  8.50000000E-01  7.20000000E-01  7.20000000E-01
  7.20000000E-01  7.20000000E-01  8.50000000E-01  8.50000000E-01  8.50000000E-01
  7.20000000E-01  8.50000000E-01  7.20000000E-01  8.50000000E-01  7.20000000E-01
  8.50000000E-01  8.50000000E-01  7.90000000E-01  7.20000000E-01  7.20000000E-01
  7.20000000E-01  7.20000000E-01  7.20000000E-01  7.20000000E-01  7.20000000E-01
  8.50000000E-01  7.20000000E-01  8.50000000E-01  7.20000000E-01  8.50000000E-01
  7.20000000E-01  8.50000000E-01  7.20000000E-01  7.20000000E-01  8.50000000E-01
  7.20000000E-01  8.50000000E-01  8.50000000E-01  7.20000000E-01  7.20000000E-01
  7.20000000E-01  7.20000000E-01  8.50000000E-01  7.20000000E-01  7.20000000E-01
  7.20000000E-01  7.20000000E-01  7.20000000E-01  7.20000000E-01  7.20000000E-01
  7.20000000E-01  8.50000000E-01  7.20000000E-01  8.50000000E-01  7.20000000E-01
  8.50000000E-01  7.20000000E-01  8.50000000E-01  7.20000000E-01  7.20000000E-01
  8.50000000E-01  8.50000000E-01  8.50000000E-01  8.50000000E-01  7.90000000E-01
  7.90000000E-01  7.20000000E-01  8.50000000E-01  7.90000000E-01  7.20000000E-01
  8.50000000E-01  7.20000000E-01  7.20000000E-01  7.20000000E-01  7.20000000E-01
  8.50000000E-01  7.20000000E-01  7.20000000E-01  8.50000000E-01  7.20000000E-01
  7.20000000E-01  7.20000000E-01  7.20000000E-01  7.20000000E-01  7.20000000E-01
  7.20000000E-01  7.20000000E-01  7.20000000E-01  7.20000000E-01  7.20000000E-01
  7.20000000E-01  7.20000000E-01  8.50000000E-01  7.20000000E-01  8.50000000E-01
  8.50000000E-01  7.20000000E-01  8.50000000E-01  7.20000000E-01  7.20000000E-01
  8.50000000E-01  7.20000000E-01  8.50000000E-01  7.20000000E-01  8.50000000E-01
  7.20000000E-01  8.50000000E-01  7.20000000E-01  8.50000000E-01  7.20000000E-01
  8.50000000E-01  7.20000000E-01  8.50000000E-01  7.20000000E-01  8.50000000E-01
  7.20000000E-01  8.50000000E-01  8.50000000E-01  7.20000000E-01  8.50000000E-01
  8.50000000E-01  8.50000000E-01  7.20000000E-01  8.50000000E-01  7.20000000E-01
  8.50000000E-01  8.50000000E-01  7.20000000E-01  8.50000000E-01  8.50000000E-01
  7.20000000E-01  8.50000000E-01  8.50000000E-01  8.50000000E-01  8.50000000E-01
  8.50000000E-01  8.50000000E-01  8.50000000E-01  8.50000000E-01  7.20000000E-01
  7.20000000E-01  7.20000000E-01  7.20000000E-01  7.20000000E-01  7.20000000E-01
  8.50000000E-01  8.50000000E-01  8.50000000E-01  8.50000000E-01  8.50000000E-01
  8.50000000E-01  8.50000000E-01  8.50000000E-01  8.50000000E-01  8.50000000E-01
  8.50000000E-01  8.50000000E-01  8.50000000E-01  8.50000000E-01  8.50000000E-01
  8.50000000E-01  8.50000000E-01  8.50000000E-01  8.50000000E-01  7.20000000E-01
  7.20000000E-01  7.20000000E-01  7.20000000E-01  8.50000000E-01  8.50000000E-01
  8.50000000E-01  7.20000000E-01  8.50000000E-01  7.20000000E-01  8.50000000E-01
  7.20000000E-01  8.50000000E-01  8.50000000E-01  7.90000000E-01  7.20000000E-01
  7.20000000E-01  7.20000000E-01  7.20000000E-01  7.20000000E-01  7.20000000E-01
  7.20000000E-01  8.50000000E-01  7.20000000E-01  8.50000000E-01  7.20000000E-01
  8.50000000E-01  7.20000000E-01  8.50000000E-01  7.20000000E-01  7.20000000E-01
  8.50000000E-01  7.20000000E-01  8.50000000E-01  8.50000000E-01  7.20000000E-01
  7.20000000E-01  7.20000000E-01  7.20000000E-01  8.50000000E-01  7.20000000E-01
  7.20000000E-01  7.20000000E-01  7.20000000E-01  7.20000000E-01  7.20000000E-01
  7.20000000E-01  7.20000000E-01  8.50000000E-01  7.20000000E-01  8.50000000E-01
  7.20000000E-01  8.50000000E-01  7.20000000E-01  8.50000000E-01  7.20000000E-01
  7.20000000E-01  8.50000000E-01  8.50000000E-01  8.50000000E-01  8.50000000E-01
  7.90000000E-01  7.90000000E-01  7.20000000E-01  8.50000000E-01  7.90000000E-01
  7.20000000E-01  8.50000000E-01  7.20000000E-01  7.20000000E-01  7.20000000E-01
  7.20000000E-01  8.50000000E-01  7.20000000E-01  7.20000000E-01  8.50000000E-01
  7.20000000E-01  7.20000000E-01  7.20000000E-01  7.20000000E-01  7.20000000E-01
  7.20000000E-01  7.20000000E-01  7.20000000E-01  7.20000000E-01  7.20000000E-01
  7.20000000E-01  7.20000000E-01  7.20000000E-01  8.50000000E-01  7.20000000E-01
  8.50000000E-01  8.50000000E-01  7.20000000E-01  8.50000000E-01  7.20000000E-01
  7.20000000E-01  8.50000000E-01  7.20000000E-01  8.50000000E-01  7.20000000E-01
  8.50000000E-01  7.20000000E-01  8.50000000E-01  7.20000000E-01  8.50000000E-01
  7.20000000E-01  8.50000000E-01  7.20000000E-01  8.50000000E-01  7.20000000E-01
  8.50000000E-01  7.20000000E-01  8.50000000E-01  8.50000000E-01  7.20000000E-01
  8.50000000E-01  8.50000000E-01  8.50000000E-01  7.20000000E-01  8.50000000E-01
  7.20000000E-01  8.50000000E-01  8.50000000E-01  7.20000000E-01  8.50000000E-01
  8.50000000E-01  7.20000000E-01  8.50000000E-01  8.50000000E-01  8.50000000E-01
  8.50000000E-01  8.50000000E-01  8.50000000E-01  8.50000000E-01  8.50000000E-01
  7.20000000E-01  7.20000000E-01  7.20000000E-01  7.20000000E-01  7.20000000E-01
  7.20000000E-01  8.50000000E-01  8.50000000E-01  8.50000000E-01  8.50000000E-01
  8.50000000E-01  8.50000000E-01  8.50000000E-01  8.50000000E-01  8.50000000E-01
  8.50000000E-01  8.50000000E-01  8.50000000E-01  8.50000000E-01  8.50000000E-01
  8.50000000E-01  8.50000000E-01  8.50000000E-01  8.50000000E-01  8.50000000E-01
  7.20000000E-01  7.20000000E-01  7.20000000E-01  7.20000000E-01  8.50000000E-01
  8.50000000E-01  8.50000000E-01  7.20000000E-01  8.50000000E-01  7.20000000E-01
  8.50000000E-01  7.20000000E-01  8.50000000E-01  8.50000000E-01  7.90000000E-01
  7.20000000E-01  7.20000000E-01  7.20000000E-01  7.20000000E-01  7.20000000E-01
  7.20000000E-01  7.20000000E-01  8.50000000E-01  7.20000000E-01  8.50000000E-01
  7.20000000E-01  8.50000000E-01  7.20000000E-01  8.50000000E-01  7.20000000E-01
  7.20000000E-01  8.50000000E-01  7.20000000E-01  8.50000000E-01  8.50000000E-01
  7.20000000E-01  7.20000000E-01  7.20000000E-01  7.20000000E-01  8.50000000E-01
  7.20000000E-01  7.20000000E-01  7.20000000E-01  7.20000000E-01  7.20000000E-01
  7.20000000E-01  7.20000000E-01  7.20000000E-01  8.50000000E-01  7.20000000E-01
  8.50000000E-01  7.20000000E-01  8.50000000E-01  7.20000000E-01  8.50000000E-01
  7.20000000E-01  7.20000000E-01  8.50000000E-01  8.50000000E-01  8.50000000E-01
  8.50000000E-01  7.90000000E-01  7.90000000E-01  7.20000000E-01  8.50000000E-01
  7.90000000E-01  7.20000000E-01  8.50000000E-01  7.20000000E-01  7.20000000E-01
  7.20000000E-01  7.20000000E-01  8.50000000E-01  7.20000000E-01  7.20000000E-01
  8.50000000E-01  7.20000000E-01  7.20000000E-01  7.20000000E-01  7.20000000E-01
  7.20000000E-01  7.20000000E-01  7.20000000E-01  7.20000000E-01  7.20000000E-01
  7.20000000E-01  7.20000000E-01  7.20000000E-01  7.20000000E-01  8.50000000E-01
  7.20000000E-01  8.50000000E-01  8.50000000E-01  7.20000000E-01  8.50000000E-01
  7.20000000E-01  7.20000000E-01  8.50000000E-01  7.20000000E-01  8.50000000E-01
  7.20000000E-01  8.50000000E-01  7.20000000E-01  8.50000000E-01  7.20000000E-01
  8.50000000E-01  7.20000000E-01  8.50000000E-01  7.20000000E-01  8.50000000E-01
  7.20000000E-01  8.50000000E-01  7.20000000E-01  8.50000000E-01  8.50000000E-01
  7.20000000E-01  8.50000000E-01  8.50000000E-01  8.50000000E-01  7.20000000E-01
  8.50000000E-01  7.20000000E-01  8.50000000E-01  8.50000000E-01  7.20000000E-01
  8.50000000E-01  8.50000000E-01  7.20000000E-01  8.50000000E-01  8.50000000E-01
  8.50000000E-01  8.50000000E-01  8.50000000E-01  8.50000000E-01  8.50000000E-01
  8.50000000E-01  7.20000000E-01  7.20000000E-01  7.20000000E-01  7.20000000E-01
  7.20000000E-01  7.20000000E-01  8.50000000E-01  8.50000000E-01  8.50000000E-01
  8.50000000E-01  8.50000000E-01  8.50000000E-01  8.50000000E-01  8.50000000E-01
  8.50000000E-01  8.50000000E-01  8.50000000E-01  8.50000000E-01  8.50000000E-01
  8.50000000E-01  8.50000000E-01  8.50000000E-01  8.50000000E-01  8.50000000E-01
  8.50000000E-01  7.20000000E-01  7.20000000E-01  7.20000000E-01  7.20000000E-01
  8.50000000E-01  8.50000000E-01  8.50000000E-01  7.20000000E-01  8.50000000E-01
  7.20000000E-01  8.50000000E-01  7.20000000E-01  8.50000000E-01  8.50000000E-01
  7.90000000E-01  7.20000000E-01  7.20000000E-01  7.20000000E-01  7.20000000E-01
  7.20000000E-01  7.20000000E-01  7.20000000E-01  8.50000000E-01  7.20000000E-01
  8.50000000E-01  7.20000000E-01  8.50000000E-01  7.20000000E-01  8.50000000E-01
  7.20000000E-01  7.20000000E-01  8.50000000E-01  7.20000000E-01  8.50000000E-01
  8.50000000E-01  7.20000000E-01  7.20000000E-01  7.20000000E-01  7.20000000E-01
  8.50000000E-01  7.20000000E-01  7.20000000E-01  7.20000000E-01  7.20000000E-01
  7.20000000E-01  7.20000000E-01  7.20000000E-01  7.20000000E-01  8.50000000E-01
  7.20000000E-01  8.50000000E-01  7.20000000E-01  8.50000000E-01  7.20000000E-01
  8.50000000E-01  7.20000000E-01  7.20000000E-01  8.50000000E-01  8.50000000E-01
  8.50000000E-01  8.50000000E-01  7.90000000E-01  7.90000000E-01  7.20000000E-01
  8.50000000E-01  7.90000000E-01  7.20000000E-01  8.50000000E-01  7.20000000E-01
  7.20000000E-01  7.20000000E-01  7.20000000E-01  8.50000000E-01  7.20000000E-01
  7.20000000E-01  8.50000000E-01  7.20000000E-01  7.20000000E-01  7.20000000E-01
  7.20000000E-01  7.20000000E-01  7.20000000E-01  7.20000000E-01  7.20000000E-01
  7.20000000E-01  7.20000000E-01  7.20000000E-01  7.20000000E-01  7.20000000E-01
  8.50000000E-01  7.20000000E-01  8.50000000E-01  8.50000000E-01  7.20000000E-01
  8.50000000E-01  7.20000000E-01  7.20000000E-01  8.50000000E-01  7.20000000E-01
  8.50000000E-01  7.20000000E-01  8.50000000E-01  7.20000000E-01  8.50000000E-01
  7.20000000E-01  8.50000000E-01  7.20000000E-01  8.50000000E-01  7.20000000E-01
  8.50000000E-01  7.20000000E-01  8.50000000E-01  7.20000000E-01  8.50000000E-01
  8.50000000E-01  7.20000000E-01  8.50000000E-01  8.50000000E-01  8.50000000E-01
  7.20000000E-01  8.50000000E-01  7.20000000E-01  8.50000000E-01  8.50000000E-01
  7.20000000E-01  8.50000000E-01  8.50000000E-01  7.20000000E-01  8.50000000E-01
  8.50000000E-01  8.50000000E-01  8.50000000E-01  8.50000000E-01  8.50000000E-01
  8.50000000E-01  8.50000000E-01  7.20000000E-01  7.20000000E-01  7.20000000E-01
  7.20000000E-01  7.20000000E-01  7.20000000E-01  8.50000000E-01  8.50000000E-01
  8.50000000E-01  8.50000000E-01  8.50000000E-01  8.50000000E-01  8.50000000E-01
  8.50000000E-01  8.50000000E-01  8.50000000E-01  8.50000000E-01  8.50000000E-01
  8.50000000E-01  8.50000000E-01  8.50000000E-01  8.50000000E-01  8.50000000E-01
  8.50000000E-01  8.50000000E-01  7.20000000E-01  7.20000000E-01  7.20000000E-01
  7.20000000E-01  8.50000000E-01  8.50000000E-01  8.50000000E-01  7.20000000E-01
  8.50000000E-01  7.20000000E-01  8.50000000E-01  7.20000000E-01  8.50000000E-01
  8.50000000E-01  7.90000000E-01  7.20000000E-01  7.20000000E-01  7.20000000E-01
  7.20000000E-01  7.20000000E-01  7.20000000E-01  7.20000000E-01  8.50000000E-01
  7.20000000E-01  8.50000000E-01  7.20000000E-01  8.50000000E-01  7.20000000E-01
  8.50000000E-01  7.20000000E-01  7.20000000E-01  8.50000000E-01  7.20000000E-01
  8.50000000E-01  8.50000000E-01  7.20000000E-01  7.20000000E-01  7.20000000E-01
  7.20000000E-01  8.50000000E-01  7.20000000E-01  7.20000000E-01  7.20000000E-01
  7.20000000E-01  7.20000000E-01  7.20000000E-01  7.20000000E-01  7.20000000E-01
  8.50000000E-01  7.20000000E-01  8.50000000E-01  7.20000000E-01  8.50000000E-01
  7.20000000E-01  8.50000000E-01  7.20000000E-01  7.20000000E-01  8.50000000E-01
  8.50000000E-01  8.50000000E-01  8.50000000E-01  7.90000000E-01  7.90000000E-01
  7.20000000E-01  8.50000000E-01  7.90000000E-01  7.20000000E-01  8.50000000E-01
  7.20000000E-01  7.20000000E-01  7.20000000E-01  7.20000000E-01  8.50000000E-01
  7.20000000E-01  7.20000000E-01  8.50000000E-01  7.20000000E-01  7.20000000E-01
  7.20000000E-01  7.20000000E-01  7.20000000E-01  7.20000000E-01  7.20000000E-01
  7.20000000E-01  7.20000000E-01  7.20000000E-01  7.20000000E-01  7.20000000E-01
  7.20000000E-01  8.50000000E-01  7.20000000E-01  8.50000000E-01  8.50000000E-01
  7.20000000E-01  8.50000000E-01  7.20000000E-01  7.20000000E-01  8.50000000E-01
  7.20000000E-01  8.50000000E-01  7.20000000E-01  8.50000000E-01  7.20000000E-01
  8.50000000E-01  7.20000000E-01  8.50000000E-01  7.20000000E-01  8.50000000E-01
  7.20000000E-01  8.50000000E-01  7.20000000E-01  8.50000000E-01  7.20000000E-01
  8.50000000E-01  8.50000000E-01  7.20000000E-01  8.50000000E-01  8.50000000E-01
  8.50000000E-01  7.20000000E-01  8.50000000E-01  7.20000000E-01  8.50000000E-01
  8.50000000E-01  7.20000000E-01  8.50000000E-01  8.50000000E-01  7.20000000E-01
  8.50000000E-01  8.50000000E-01  8.50000000E-01  8.50000000E-01  8.50000000E-01
  8.50000000E-01  8.50000000E-01  8.50000000E-01  7.20000000E-01  7.20000000E-01
  7.20000000E-01  7.20000000E-01  7.20000000E-01  7.20000000E-01  8.50000000E-01
  8.50000000E-01  8.50000000E-01  8.50000000E-01  8.50000000E-01  8.50000000E-01
  8.50000000E-01  8.50000000E-01  8.50000000E-01  8.50000000E-01  8.50000000E-01
  8.50000000E-01  8.50000000E-01  8.50000000E-01  8.50000000E-01  8.50000000E-01
  8.50000000E-01  8.50000000E-01  8.50000000E-01  7.20000000E-01  7.20000000E-01
  7.20000000E-01  7.20000000E-01  8.50000000E-01  8.50000000E-01  8.50000000E-01
  7.20000000E-01  8.50000000E-01  7.20000000E-01  8.50000000E-01  7.20000000E-01
  8.50000000E-01  8.50000000E-01  7.90000000E-01  7.20000000E-01  7.20000000E-01
  7.20000000E-01  7.20000000E-01  7.20000000E-01  7.20000000E-01  7.20000000E-01
  8.50000000E-01  7.20000000E-01  8.50000000E-01  7.20000000E-01  8.50000000E-01
  7.20000000E-01  8.50000000E-01  7.20000000E-01  7.20000000E-01  8.50000000E-01
  7.20000000E-01  8.50000000E-01  8.50000000E-01  7.20000000E-01  7.20000000E-01
  7.20000000E-01  7.20000000E-01  8.50000000E-01  7.20000000E-01  7.20000000E-01
  7.20000000E-01  7.20000000E-01  7.20000000E-01  7.20000000E-01  7.20000000E-01
  7.20000000E-01  8.50000000E-01  7.20000000E-01  8.50000000E-01  7.20000000E-01
  8.50000000E-01  7.20000000E-01  8.50000000E-01  7.20000000E-01  7.20000000E-01
  8.50000000E-01  8.50000000E-01  8.50000000E-01  8.50000000E-01  7.90000000E-01
  7.90000000E-01  7.20000000E-01  8.50000000E-01  7.90000000E-01  7.20000000E-01
  8.50000000E-01  7.20000000E-01  7.20000000E-01  7.20000000E-01  7.20000000E-01
  8.50000000E-01  7.20000000E-01  7.20000000E-01  8.50000000E-01  7.20000000E-01
  7.20000000E-01  7.20000000E-01  7.20000000E-01  7.20000000E-01  7.20000000E-01
  7.20000000E-01  7.20000000E-01  7.20000000E-01  7.20000000E-01  7.20000000E-01
  7.20000000E-01  7.20000000E-01  8.50000000E-01  7.20000000E-01  8.50000000E-01
  8.50000000E-01  7.20000000E-01  8.50000000E-01  7.20000000E-01  7.20000000E-01
  8.50000000E-01  7.20000000E-01  8.50000000E-01  7.20000000E-01  8.50000000E-01
  7.20000000E-01  8.50000000E-01  7.20000000E-01  8.50000000E-01  7.20000000E-01
  8.50000000E-01  7.20000000E-01  8.50000000E-01  7.20000000E-01  8.50000000E-01
  7.20000000E-01  8.50000000E-01  8.50000000E-01  7.20000000E-01  8.50000000E-01
  8.50000000E-01  8.50000000E-01  7.20000000E-01  8.50000000E-01  7.20000000E-01
  8.50000000E-01  8.50000000E-01  7.20000000E-01  8.50000000E-01  8.50000000E-01
  7.20000000E-01  8.50000000E-01  8.50000000E-01  8.50000000E-01  8.50000000E-01
  8.50000000E-01  8.50000000E-01  8.50000000E-01  8.50000000E-01  7.20000000E-01
  7.20000000E-01  7.20000000E-01  7.20000000E-01  7.20000000E-01  7.20000000E-01
  8.50000000E-01  8.50000000E-01  8.50000000E-01  8.50000000E-01  8.50000000E-01
  8.50000000E-01  8.50000000E-01  8.50000000E-01  8.50000000E-01  8.50000000E-01
  8.50000000E-01  8.50000000E-01  8.50000000E-01  8.50000000E-01  8.50000000E-01
  8.50000000E-01  8.50000000E-01  8.50000000E-01  8.50000000E-01  7.20000000E-01
  7.20000000E-01  7.20000000E-01  7.20000000E-01  8.50000000E-01  8.50000000E-01
  8.50000000E-01  7.20000000E-01  8.50000000E-01  7.20000000E-01  8.50000000E-01
  7.20000000E-01  8.50000000E-01  8.50000000E-01  7.90000000E-01  7.20000000E-01
  7.20000000E-01  7.20000000E-01  7.20000000E-01  7.20000000E-01  7.20000000E-01
  7.20000000E-01  8.50000000E-01  7.20000000E-01  8.50000000E-01  7.20000000E-01
  8.50000000E-01  7.20000000E-01  8.50000000E-01  7.20000000E-01  7.20000000E-01
  8.50000000E-01  7.20000000E-01  8.50000000E-01  8.50000000E-01  7.20000000E-01
  7.20000000E-01  7.20000000E-01  7.20000000E-01  8.50000000E-01  7.20000000E-01
  7.20000000E-01  7.20000000E-01  7.20000000E-01  7.20000000E-01  7.20000000E-01
  7.20000000E-01  7.20000000E-01  8.50000000E-01  7.20000000E-01  8.50000000E-01
  7.20000000E-01  8.50000000E-01  7.20000000E-01  8.50000000E-01  7.20000000E-01
  7.20000000E-01  8.50000000E-01  8.50000000E-01  8.50000000E-01  8.50000000E-01
  7.90000000E-01  7.90000000E-01  7.20000000E-01  8.50000000E-01  7.90000000E-01
  7.20000000E-01  8.50000000E-01  7.20000000E-01  7.20000000E-01  7.20000000E-01
  7.20000000E-01  8.50000000E-01  7.20000000E-01  7.20000000E-01  8.50000000E-01
  7.20000000E-01  7.20000000E-01  7.20000000E-01  7.20000000E-01  7.20000000E-01
  7.20000000E-01  7.20000000E-01  7.20000000E-01  7.20000000E-01  7.20000000E-01
  7.20000000E-01  7.20000000E-01  7.20000000E-01  8.50000000E-01  7.20000000E-01
  8.50000000E-01  8.50000000E-01  7.20000000E-01  8.50000000E-01  7.20000000E-01
  7.20000000E-01  8.50000000E-01  7.20000000E-01  8.50000000E-01  7.20000000E-01
  8.50000000E-01  7.20000000E-01  8.50000000E-01  7.20000000E-01  8.50000000E-01
  7.20000000E-01  8.50000000E-01  7.20000000E-01  8.50000000E-01  7.20000000E-01
  8.50000000E-01  7.20000000E-01  8.50000000E-01  8.50000000E-01  7.20000000E-01
  8.50000000E-01  8.50000000E-01  8.50000000E-01  7.20000000E-01  8.50000000E-01
  7.20000000E-01  8.50000000E-01  8.50000000E-01  7.20000000E-01  8.50000000E-01
  8.50000000E-01  7.20000000E-01  8.50000000E-01  8.50000000E-01  8.50000000E-01
  8.50000000E-01  8.50000000E-01  8.50000000E-01  8.50000000E-01  8.50000000E-01
  7.20000000E-01  7.20000000E-01  7.20000000E-01  7.20000000E-01  7.20000000E-01
  7.20000000E-01  8.50000000E-01  8.50000000E-01  8.50000000E-01  8.50000000E-01
  8.50000000E-01  8.50000000E-01  8.50000000E-01  8.50000000E-01  8.50000000E-01
  8.50000000E-01  8.50000000E-01  8.50000000E-01  8.50000000E-01  8.50000000E-01
  8.50000000E-01  8.50000000E-01  8.50000000E-01  8.50000000E-01  8.50000000E-01
  7.20000000E-01  7.20000000E-01  7.20000000E-01  7.20000000E-01  8.50000000E-01
  8.50000000E-01  8.50000000E-01  7.20000000E-01  8.50000000E-01  7.20000000E-01
  8.50000000E-01  7.20000000E-01  8.50000000E-01  8.50000000E-01  7.90000000E-01
  7.20000000E-01  7.20000000E-01  7.20000000E-01  7.20000000E-01  7.20000000E-01
  7.20000000E-01  7.20000000E-01  8.50000000E-01  7.20000000E-01  8.50000000E-01
  7.20000000E-01  8.50000000E-01  7.20000000E-01  8.50000000E-01  7.20000000E-01
  7.20000000E-01  8.50000000E-01  7.20000000E-01  8.50000000E-01  8.50000000E-01
  7.20000000E-01  7.20000000E-01  7.20000000E-01  7.20000000E-01  8.50000000E-01
  7.20000000E-01  7.20000000E-01  7.20000000E-01  7.20000000E-01  7.20000000E-01
  7.20000000E-01  7.20000000E-01  7.20000000E-01  8.50000000E-01  7.20000000E-01
  8.50000000E-01  7.20000000E-01  8.50000000E-01  7.20000000E-01  8.50000000E-01
  7.20000000E-01  7.20000000E-01  8.50000000E-01  8.50000000E-01  8.50000000E-01
  8.50000000E-01  7.90000000E-01  7.90000000E-01  7.20000000E-01  8.50000000E-01
  7.90000000E-01  7.20000000E-01  8.50000000E-01  7.20000000E-01  7.20000000E-01
  7.20000000E-01  7.20000000E-01  8.50000000E-01  7.20000000E-01  7.20000000E-01
  8.50000000E-01  7.20000000E-01  7.20000000E-01  7.20000000E-01  7.20000000E-01
  7.20000000E-01  7.20000000E-01  7.20000000E-01  7.20000000E-01  7.20000000E-01
  7.20000000E-01  7.20000000E-01  7.20000000E-01  7.20000000E-01  8.50000000E-01
  7.20000000E-01  8.50000000E-01  8.50000000E-01  7.20000000E-01  8.50000000E-01
  7.20000000E-01  7.20000000E-01  8.50000000E-01  7.20000000E-01  8.50000000E-01
  7.20000000E-01  8.50000000E-01  7.20000000E-01  8.50000000E-01  7.20000000E-01
  8.50000000E-01  7.20000000E-01  8.50000000E-01  7.20000000E-01  8.50000000E-01
  7.20000000E-01  8.50000000E-01  7.20000000E-01  8.50000000E-01  8.50000000E-01
  7.20000000E-01  8.50000000E-01  8.50000000E-01  8.50000000E-01  7.20000000E-01
  8.50000000E-01  7.20000000E-01  8.50000000E-01  8.50000000E-01  7.20000000E-01
  8.50000000E-01  8.50000000E-01  7.20000000E-01  8.50000000E-01  8.50000000E-01
  8.50000000E-01  8.50000000E-01  8.50000000E-01  8.50000000E-01  8.50000000E-01
  8.50000000E-01  7.20000000E-01  7.20000000E-01  7.20000000E-01  7.20000000E-01
  7.20000000E-01  7.20000000E-01  8.50000000E-01  8.50000000E-01  8.50000000E-01
  8.50000000E-01  8.50000000E-01  8.50000000E-01  8.50000000E-01  8.50000000E-01
  8.50000000E-01  8.50000000E-01  8.50000000E-01  8.50000000E-01  8.50000000E-01
  8.50000000E-01  8.50000000E-01  8.50000000E-01  8.50000000E-01  8.50000000E-01
  8.50000000E-01  7.20000000E-01  7.20000000E-01  7.20000000E-01  7.20000000E-01
  8.50000000E-01  8.50000000E-01  8.50000000E-01  7.20000000E-01  8.50000000E-01
  7.20000000E-01  8.50000000E-01  7.20000000E-01  8.50000000E-01  8.50000000E-01
  7.90000000E-01  7.20000000E-01  7.20000000E-01  7.20000000E-01  7.20000000E-01
  7.20000000E-01  7.20000000E-01  7.20000000E-01  8.50000000E-01  7.20000000E-01
  8.50000000E-01  7.20000000E-01  8.50000000E-01  7.20000000E-01  8.50000000E-01
  7.20000000E-01  7.20000000E-01  8.50000000E-01  7.20000000E-01  8.50000000E-01
  8.50000000E-01  7.20000000E-01  7.20000000E-01  7.20000000E-01  7.20000000E-01
  8.50000000E-01  7.20000000E-01  7.20000000E-01  7.20000000E-01  7.20000000E-01
  7.20000000E-01  7.20000000E-01  7.20000000E-01  7.20000000E-01  8.50000000E-01
  7.20000000E-01  8.50000000E-01  7.20000000E-01  8.50000000E-01  7.20000000E-01
  8.50000000E-01  7.20000000E-01  7.20000000E-01  8.50000000E-01  8.50000000E-01
  8.50000000E-01  8.50000000E-01  7.90000000E-01  7.90000000E-01  7.20000000E-01
  8.50000000E-01  7.90000000E-01  7.20000000E-01  8.50000000E-01  7.20000000E-01
  7.20000000E-01  7.20000000E-01  7.20000000E-01  8.50000000E-01  7.20000000E-01
  7.20000000E-01  8.50000000E-01  7.20000000E-01  7.20000000E-01  7.20000000E-01
  7.20000000E-01  7.20000000E-01  7.20000000E-01  7.20000000E-01  7.20000000E-01
  7.20000000E-01  7.20000000E-01  7.20000000E-01  7.20000000E-01  7.20000000E-01
  8.50000000E-01  7.20000000E-01  8.50000000E-01  8.50000000E-01  7.20000000E-01
  8.50000000E-01  7.20000000E-01  7.20000000E-01  8.50000000E-01  7.20000000E-01
  8.50000000E-01  7.20000000E-01  8.50000000E-01  7.20000000E-01  8.50000000E-01
  7.20000000E-01  8.50000000E-01  7.20000000E-01  8.50000000E-01  7.20000000E-01
  8.50000000E-01  7.20000000E-01  8.50000000E-01  7.20000000E-01  8.50000000E-01
  8.50000000E-01  7.20000000E-01  8.50000000E-01  8.50000000E-01  8.50000000E-01
  7.20000000E-01  8.50000000E-01  7.20000000E-01  8.50000000E-01  8.50000000E-01
  7.20000000E-01  8.50000000E-01  8.50000000E-01  7.20000000E-01  8.50000000E-01
  8.50000000E-01  8.50000000E-01  8.50000000E-01  8.50000000E-01  8.50000000E-01
  8.50000000E-01  8.50000000E-01  7.20000000E-01  7.20000000E-01  7.20000000E-01
  7.20000000E-01  7.20000000E-01  7.20000000E-01  8.50000000E-01  8.50000000E-01
  8.50000000E-01  8.50000000E-01  8.50000000E-01  8.50000000E-01  8.50000000E-01
  8.50000000E-01  8.50000000E-01  8.50000000E-01  8.50000000E-01  8.50000000E-01
  8.50000000E-01  8.50000000E-01  8.50000000E-01  8.50000000E-01  8.50000000E-01
  8.50000000E-01  8.50000000E-01  7.20000000E-01  7.20000000E-01  7.20000000E-01
  7.20000000E-01  8.50000000E-01  8.50000000E-01  8.50000000E-01  7.20000000E-01
  8.50000000E-01  7.20000000E-01  8.50000000E-01  7.20000000E-01  8.50000000E-01
  8.50000000E-01  7.90000000E-01  7.20000000E-01  7.20000000E-01  7.20000000E-01
  7.20000000E-01  7.20000000E-01  7.20000000E-01  7.20000000E-01  8.50000000E-01
  7.20000000E-01  8.50000000E-01  7.20000000E-01  8.50000000E-01  7.20000000E-01
  8.50000000E-01  7.20000000E-01  7.20000000E-01  8.50000000E-01  7.20000000E-01
  8.50000000E-01  8.50000000E-01  7.20000000E-01  7.20000000E-01  7.20000000E-01
  7.20000000E-01  8.50000000E-01  7.20000000E-01  7.20000000E-01  7.20000000E-01
  7.20000000E-01  7.20000000E-01  7.20000000E-01  7.20000000E-01  7.20000000E-01
  8.50000000E-01  7.20000000E-01  8.50000000E-01  7.20000000E-01  8.50000000E-01
  7.20000000E-01  8.50000000E-01  7.20000000E-01  7.20000000E-01  8.50000000E-01
  8.50000000E-01  8.50000000E-01  8.50000000E-01  7.90000000E-01  7.90000000E-01
  7.20000000E-01  8.50000000E-01  7.90000000E-01  7.20000000E-01  8.50000000E-01
  7.20000000E-01  7.20000000E-01  7.20000000E-01  7.20000000E-01  8.50000000E-01
  7.20000000E-01  7.20000000E-01  8.50000000E-01  7.20000000E-01  7.20000000E-01
  7.20000000E-01  7.20000000E-01  7.20000000E-01  7.20000000E-01  7.20000000E-01
  7.20000000E-01  7.20000000E-01  7.20000000E-01  7.20000000E-01  7.20000000E-01
  7.20000000E-01  8.50000000E-01  7.20000000E-01  8.50000000E-01  8.50000000E-01
  7.20000000E-01  8.50000000E-01  7.20000000E-01  7.20000000E-01  8.50000000E-01
  7.20000000E-01  8.50000000E-01  7.20000000E-01  8.50000000E-01  7.20000000E-01
  8.50000000E-01  7.20000000E-01  8.50000000E-01  7.20000000E-01  8.50000000E-01
  7.20000000E-01  8.50000000E-01  7.20000000E-01  8.50000000E-01  7.20000000E-01
  8.50000000E-01  8.50000000E-01  7.20000000E-01  8.50000000E-01  8.50000000E-01
  8.50000000E-01  7.20000000E-01  8.50000000E-01  7.20000000E-01  8.50000000E-01
  8.50000000E-01  7.20000000E-01  8.50000000E-01  8.50000000E-01  7.20000000E-01
  8.50000000E-01  8.50000000E-01  8.50000000E-01  8.50000000E-01  8.50000000E-01
  8.50000000E-01  8.50000000E-01  8.50000000E-01  7.20000000E-01  7.20000000E-01
  7.20000000E-01  7.20000000E-01  7.20000000E-01  7.20000000E-01  8.50000000E-01
  8.50000000E-01  8.50000000E-01  8.50000000E-01  8.50000000E-01  8.50000000E-01
  8.50000000E-01  8.50000000E-01  8.50000000E-01  8.50000000E-01  8.50000000E-01
  8.50000000E-01  8.50000000E-01  8.50000000E-01  8.50000000E-01  8.50000000E-01
  8.50000000E-01  8.50000000E-01  8.50000000E-01  7.20000000E-01  7.20000000E-01
  7.20000000E-01  7.20000000E-01  8.50000000E-01  8.50000000E-01  8.50000000E-01
  7.20000000E-01  8.50000000E-01  7.20000000E-01  8.50000000E-01  7.20000000E-01
  8.50000000E-01  8.50000000E-01  7.90000000E-01  7.20000000E-01  7.20000000E-01
  7.20000000E-01  7.20000000E-01  7.20000000E-01  7.20000000E-01  7.20000000E-01
  8.50000000E-01  7.20000000E-01  8.50000000E-01  7.20000000E-01  8.50000000E-01
  7.20000000E-01  8.50000000E-01  7.20000000E-01  7.20000000E-01  8.50000000E-01
  7.20000000E-01  8.50000000E-01  8.50000000E-01  7.20000000E-01  7.20000000E-01
  7.20000000E-01  7.20000000E-01  8.50000000E-01  7.20000000E-01  7.20000000E-01
  7.20000000E-01  7.20000000E-01  7.20000000E-01  7.20000000E-01  7.20000000E-01
  7.20000000E-01  8.50000000E-01  7.20000000E-01  8.50000000E-01  7.20000000E-01
  8.50000000E-01  7.20000000E-01  8.50000000E-01  7.20000000E-01  7.20000000E-01
  8.50000000E-01  8.50000000E-01  8.50000000E-01  8.50000000E-01  7.90000000E-01
  7.90000000E-01  7.20000000E-01  8.50000000E-01  7.90000000E-01  7.20000000E-01
  8.50000000E-01  7.20000000E-01  7.20000000E-01  7.20000000E-01  7.20000000E-01
  8.50000000E-01  7.20000000E-01  7.20000000E-01  8.50000000E-01  7.20000000E-01
  7.20000000E-01  7.20000000E-01  7.20000000E-01  7.20000000E-01  7.20000000E-01
  7.20000000E-01  7.20000000E-01  7.20000000E-01  7.20000000E-01  7.20000000E-01
  7.20000000E-01  7.20000000E-01  8.50000000E-01  7.20000000E-01  8.50000000E-01
  8.50000000E-01  7.20000000E-01  8.50000000E-01  7.20000000E-01  7.20000000E-01
  8.50000000E-01  7.20000000E-01  8.50000000E-01  7.20000000E-01  8.50000000E-01
  7.20000000E-01  8.50000000E-01  7.20000000E-01  8.50000000E-01  7.20000000E-01
  8.50000000E-01  7.20000000E-01  8.50000000E-01  7.20000000E-01  8.50000000E-01
  7.20000000E-01  8.50000000E-01  8.50000000E-01  7.20000000E-01  8.50000000E-01
  8.50000000E-01  8.50000000E-01  7.20000000E-01  8.50000000E-01  7.20000000E-01
  8.50000000E-01  8.50000000E-01  7.20000000E-01  8.50000000E-01  8.50000000E-01
  7.20000000E-01  8.50000000E-01  8.50000000E-01  8.50000000E-01  8.50000000E-01
  8.50000000E-01  8.50000000E-01  8.50000000E-01  8.50000000E-01  7.20000000E-01
  7.20000000E-01  7.20000000E-01  7.20000000E-01  7.20000000E-01  7.20000000E-01
  8.50000000E-01  8.50000000E-01  8.50000000E-01  8.50000000E-01  8.50000000E-01
  8.50000000E-01  8.50000000E-01  8.50000000E-01  8.50000000E-01  8.50000000E-01
  8.50000000E-01  8.50000000E-01  8.50000000E-01  8.50000000E-01  8.50000000E-01
  8.50000000E-01  8.50000000E-01  8.50000000E-01  8.50000000E-01  7.20000000E-01
  7.20000000E-01  7.20000000E-01  7.20000000E-01  8.50000000E-01  8.50000000E-01
  8.50000000E-01  7.20000000E-01  8.50000000E-01  7.20000000E-01  8.50000000E-01
  7.20000000E-01  8.50000000E-01  8.50000000E-01  7.90000000E-01  7.20000000E-01
  7.20000000E-01  7.20000000E-01  7.20000000E-01  7.20000000E-01  7.20000000E-01
  7.20000000E-01  8.50000000E-01  7.20000000E-01  8.50000000E-01  7.20000000E-01
  8.50000000E-01  7.20000000E-01  8.50000000E-01  7.20000000E-01  7.20000000E-01
  8.50000000E-01  7.20000000E-01  8.50000000E-01  8.50000000E-01  7.20000000E-01
  7.20000000E-01  7.20000000E-01  7.20000000E-01  8.50000000E-01  7.20000000E-01
  7.20000000E-01  7.20000000E-01  7.20000000E-01  7.20000000E-01  7.20000000E-01
  7.20000000E-01  7.20000000E-01  8.50000000E-01  7.20000000E-01  8.50000000E-01
  7.20000000E-01  8.50000000E-01  7.20000000E-01  8.50000000E-01  7.20000000E-01
  7.20000000E-01  8.50000000E-01  8.50000000E-01  8.50000000E-01  8.50000000E-01
  7.90000000E-01  7.90000000E-01  7.20000000E-01  8.50000000E-01  7.90000000E-01
  7.20000000E-01  8.50000000E-01  7.20000000E-01  7.20000000E-01  7.20000000E-01
  7.20000000E-01  8.50000000E-01  7.20000000E-01  7.20000000E-01  8.50000000E-01
  7.20000000E-01  7.20000000E-01  7.20000000E-01  7.20000000E-01  7.20000000E-01
  7.20000000E-01  7.20000000E-01  7.20000000E-01  7.20000000E-01  7.20000000E-01
  7.20000000E-01  7.20000000E-01  7.20000000E-01  8.50000000E-01  7.20000000E-01
  8.50000000E-01  8.50000000E-01  7.20000000E-01  8.50000000E-01  7.20000000E-01
  7.20000000E-01  8.50000000E-01  7.20000000E-01  8.50000000E-01  7.20000000E-01
  8.50000000E-01  7.20000000E-01  8.50000000E-01  7.20000000E-01  8.50000000E-01
  7.20000000E-01  8.50000000E-01  7.20000000E-01  8.50000000E-01  7.20000000E-01
  8.50000000E-01  7.20000000E-01  8.50000000E-01  8.50000000E-01  7.20000000E-01
  8.50000000E-01  8.50000000E-01  8.50000000E-01  7.20000000E-01  8.50000000E-01
  7.20000000E-01  8.50000000E-01  8.50000000E-01  7.20000000E-01  8.50000000E-01
  8.50000000E-01  7.20000000E-01  8.50000000E-01  8.50000000E-01  8.50000000E-01
  8.50000000E-01  8.50000000E-01  8.50000000E-01  8.50000000E-01  8.50000000E-01
  7.20000000E-01  7.20000000E-01  7.20000000E-01  7.20000000E-01  7.20000000E-01
  7.20000000E-01  8.50000000E-01  8.50000000E-01  8.50000000E-01  8.50000000E-01
  8.50000000E-01  8.50000000E-01  8.50000000E-01  8.50000000E-01  8.50000000E-01
  8.50000000E-01  8.50000000E-01  8.50000000E-01  8.50000000E-01  8.50000000E-01
  8.50000000E-01  8.50000000E-01  8.50000000E-01  8.50000000E-01  8.50000000E-01
  7.20000000E-01  7.20000000E-01  7.20000000E-01  7.20000000E-01  8.50000000E-01
  8.50000000E-01  8.50000000E-01  7.20000000E-01  8.50000000E-01  7.20000000E-01
  8.50000000E-01  7.20000000E-01  8.50000000E-01  8.50000000E-01  7.90000000E-01
  7.20000000E-01  7.20000000E-01  7.20000000E-01  7.20000000E-01  7.20000000E-01
  7.20000000E-01  7.20000000E-01  8.50000000E-01  7.20000000E-01  8.50000000E-01
  7.20000000E-01  8.50000000E-01  7.20000000E-01  8.50000000E-01  7.20000000E-01
  7.20000000E-01  8.50000000E-01  7.20000000E-01  8.50000000E-01  8.50000000E-01
  7.20000000E-01  7.20000000E-01  7.20000000E-01  7.20000000E-01  8.50000000E-01
  7.20000000E-01  7.20000000E-01  7.20000000E-01  7.20000000E-01  7.20000000E-01
  7.20000000E-01  7.20000000E-01  7.20000000E-01  8.50000000E-01  7.20000000E-01
  8.50000000E-01  7.20000000E-01  8.50000000E-01  7.20000000E-01  8.50000000E-01
  7.20000000E-01  7.20000000E-01  8.50000000E-01  8.50000000E-01  8.50000000E-01
  8.50000000E-01  7.90000000E-01  7.90000000E-01  7.20000000E-01  8.50000000E-01
  7.90000000E-01  7.20000000E-01  8.50000000E-01  7.20000000E-01  7.20000000E-01
  7.20000000E-01  7.20000000E-01  8.50000000E-01  7.20000000E-01  7.20000000E-01
  8.50000000E-01  7.20000000E-01  7.20000000E-01  7.20000000E-01  7.20000000E-01
  7.20000000E-01  7.20000000E-01  7.20000000E-01  7.20000000E-01  7.20000000E-01
  7.20000000E-01  7.20000000E-01  7.20000000E-01  7.20000000E-01  8.50000000E-01
  7.20000000E-01  8.50000000E-01  8.50000000E-01  7.20000000E-01  8.50000000E-01
  7.20000000E-01  7.20000000E-01  8.50000000E-01  7.20000000E-01  8.50000000E-01
  7.20000000E-01  8.50000000E-01  7.20000000E-01  8.50000000E-01  7.20000000E-01
  8.50000000E-01  7.20000000E-01  8.50000000E-01  7.20000000E-01  8.50000000E-01
  7.20000000E-01  8.50000000E-01  7.20000000E-01  8.50000000E-01  8.50000000E-01
  7.20000000E-01  8.50000000E-01  8.50000000E-01  8.50000000E-01  7.20000000E-01
  8.50000000E-01  7.20000000E-01  8.50000000E-01  8.50000000E-01  7.20000000E-01
  8.50000000E-01  8.50000000E-01  7.20000000E-01  8.50000000E-01  8.50000000E-01
  8.50000000E-01  8.50000000E-01  8.50000000E-01  8.50000000E-01  8.50000000E-01
  8.50000000E-01  7.20000000E-01  7.20000000E-01  7.20000000E-01  7.20000000E-01
  7.20000000E-01  7.20000000E-01  8.50000000E-01  8.50000000E-01  8.50000000E-01
  8.50000000E-01  8.50000000E-01  8.50000000E-01  8.50000000E-01  8.50000000E-01
  8.50000000E-01  8.50000000E-01  8.50000000E-01  8.50000000E-01  8.50000000E-01
  8.50000000E-01  8.50000000E-01  8.50000000E-01  8.50000000E-01  8.50000000E-01
  8.50000000E-01  7.20000000E-01  7.20000000E-01  7.20000000E-01  7.20000000E-01
  8.50000000E-01  8.50000000E-01  8.50000000E-01  7.20000000E-01  8.50000000E-01
  7.20000000E-01  8.50000000E-01  7.20000000E-01  8.50000000E-01  8.50000000E-01
  7.90000000E-01  7.20000000E-01  7.20000000E-01  7.20000000E-01  7.20000000E-01
  7.20000000E-01  7.20000000E-01  7.20000000E-01  8.50000000E-01  7.20000000E-01
  8.50000000E-01  7.20000000E-01  8.50000000E-01  7.20000000E-01  8.50000000E-01
  7.20000000E-01  7.20000000E-01  8.50000000E-01  7.20000000E-01  8.50000000E-01
  8.50000000E-01  7.20000000E-01  7.20000000E-01  7.20000000E-01  7.20000000E-01
  8.50000000E-01  7.20000000E-01  7.20000000E-01  7.20000000E-01  7.20000000E-01
  7.20000000E-01  7.20000000E-01  7.20000000E-01  7.20000000E-01  8.50000000E-01
  7.20000000E-01  8.50000000E-01  7.20000000E-01  8.50000000E-01  7.20000000E-01
  8.50000000E-01  7.20000000E-01  7.20000000E-01  8.50000000E-01  8.50000000E-01
  8.50000000E-01  8.50000000E-01  7.90000000E-01  7.90000000E-01  7.20000000E-01
  8.50000000E-01  7.90000000E-01  7.20000000E-01  8.50000000E-01  7.20000000E-01
  7.20000000E-01  7.20000000E-01  7.20000000E-01  8.50000000E-01  7.20000000E-01
  7.20000000E-01  8.50000000E-01  7.20000000E-01  7.20000000E-01  7.20000000E-01
  7.20000000E-01  7.20000000E-01  7.20000000E-01  7.20000000E-01  7.20000000E-01
  7.20000000E-01  7.20000000E-01  7.20000000E-01  7.20000000E-01  7.20000000E-01
  8.50000000E-01  7.20000000E-01  8.50000000E-01  8.50000000E-01  7.20000000E-01
  8.50000000E-01  7.20000000E-01  7.20000000E-01  8.50000000E-01  7.20000000E-01
  8.50000000E-01  7.20000000E-01  8.50000000E-01  7.20000000E-01  8.50000000E-01
  7.20000000E-01  8.50000000E-01  7.20000000E-01  8.50000000E-01  7.20000000E-01
  8.50000000E-01  7.20000000E-01  8.50000000E-01  7.20000000E-01  8.50000000E-01
  8.50000000E-01  7.20000000E-01  8.50000000E-01  8.50000000E-01  8.50000000E-01
  7.20000000E-01  8.50000000E-01  7.20000000E-01  8.50000000E-01  8.50000000E-01
  7.20000000E-01  8.50000000E-01  8.50000000E-01  7.20000000E-01  8.50000000E-01
  8.50000000E-01  8.50000000E-01  8.50000000E-01  8.50000000E-01  8.50000000E-01
  8.50000000E-01  8.50000000E-01  7.20000000E-01  7.20000000E-01  7.20000000E-01
  7.20000000E-01  7.20000000E-01  7.20000000E-01  8.50000000E-01  8.50000000E-01
  8.50000000E-01  8.50000000E-01  8.50000000E-01  8.50000000E-01  8.50000000E-01
  8.50000000E-01  8.50000000E-01  8.50000000E-01  8.50000000E-01  8.50000000E-01
  8.50000000E-01  8.50000000E-01  8.50000000E-01  8.50000000E-01  8.50000000E-01
  8.50000000E-01  8.50000000E-01  7.20000000E-01  7.20000000E-01  7.20000000E-01
  7.20000000E-01  8.50000000E-01  8.50000000E-01  8.50000000E-01  7.20000000E-01
  8.50000000E-01  7.20000000E-01  8.50000000E-01  7.20000000E-01  8.50000000E-01
  8.50000000E-01  7.90000000E-01  7.20000000E-01  7.20000000E-01  7.20000000E-01
  7.20000000E-01  7.20000000E-01  7.20000000E-01  7.20000000E-01  8.50000000E-01
  7.20000000E-01  8.50000000E-01  7.20000000E-01  8.50000000E-01  7.20000000E-01
  8.50000000E-01  7.20000000E-01  7.20000000E-01  8.50000000E-01  7.20000000E-01
  8.50000000E-01  8.50000000E-01  7.20000000E-01  7.20000000E-01  7.20000000E-01
  7.20000000E-01  8.50000000E-01  7.20000000E-01  7.20000000E-01  7.20000000E-01
  7.20000000E-01  7.20000000E-01  7.20000000E-01  7.20000000E-01  7.20000000E-01
  8.50000000E-01  7.20000000E-01  8.50000000E-01  7.20000000E-01  8.50000000E-01
  7.20000000E-01  8.50000000E-01  7.20000000E-01  7.20000000E-01  8.50000000E-01
  8.50000000E-01  8.50000000E-01  8.50000000E-01  7.90000000E-01  7.90000000E-01
  7.20000000E-01  8.50000000E-01  7.90000000E-01  7.20000000E-01  8.50000000E-01
  7.20000000E-01  7.20000000E-01  7.20000000E-01  7.20000000E-01  8.50000000E-01
  7.20000000E-01  7.20000000E-01  8.50000000E-01  7.20000000E-01  7.20000000E-01
  7.20000000E-01  7.20000000E-01  7.20000000E-01  7.20000000E-01  7.20000000E-01
  7.20000000E-01  7.20000000E-01  7.20000000E-01  7.20000000E-01  7.20000000E-01
  7.20000000E-01  8.50000000E-01  7.20000000E-01  8.50000000E-01  8.50000000E-01
  7.20000000E-01  8.50000000E-01  7.20000000E-01  7.20000000E-01  8.50000000E-01
  7.20000000E-01  8.50000000E-01  7.20000000E-01  8.50000000E-01  7.20000000E-01
  8.50000000E-01  7.20000000E-01  8.50000000E-01  7.20000000E-01  8.50000000E-01
  7.20000000E-01  8.50000000E-01  7.20000000E-01  8.50000000E-01  7.20000000E-01
  8.50000000E-01  8.50000000E-01  7.20000000E-01  8.50000000E-01  8.50000000E-01
  8.50000000E-01  7.20000000E-01  8.50000000E-01  7.20000000E-01  8.50000000E-01
  8.50000000E-01  7.20000000E-01  8.50000000E-01  8.50000000E-01  7.20000000E-01
  8.50000000E-01  8.50000000E-01  8.50000000E-01  8.50000000E-01  8.50000000E-01
  8.50000000E-01  8.50000000E-01  8.50000000E-01  7.20000000E-01  7.20000000E-01
  7.20000000E-01  7.20000000E-01  7.20000000E-01  7.20000000E-01  8.50000000E-01
  8.50000000E-01  8.50000000E-01  8.50000000E-01  8.50000000E-01  8.50000000E-01
  8.50000000E-01  8.50000000E-01  8.50000000E-01  8.50000000E-01  8.50000000E-01
  8.50000000E-01  8.50000000E-01  8.50000000E-01  8.50000000E-01  8.50000000E-01
  8.50000000E-01  8.50000000E-01  8.50000000E-01  7.20000000E-01  7.20000000E-01
  7.20000000E-01  7.20000000E-01  8.50000000E-01  8.50000000E-01  8.50000000E-01
  7.20000000E-01  8.50000000E-01  7.20000000E-01  8.50000000E-01  7.20000000E-01
  8.50000000E-01  8.50000000E-01  7.90000000E-01  7.20000000E-01  7.20000000E-01
  7.20000000E-01  7.20000000E-01  7.20000000E-01  7.20000000E-01  7.20000000E-01
  8.50000000E-01  7.20000000E-01  8.50000000E-01  7.20000000E-01  8.50000000E-01
  7.20000000E-01  8.50000000E-01  7.20000000E-01  7.20000000E-01  8.50000000E-01
  7.20000000E-01  8.50000000E-01  8.50000000E-01  7.20000000E-01  7.20000000E-01
  7.20000000E-01  7.20000000E-01  8.50000000E-01  7.20000000E-01  7.20000000E-01
  7.20000000E-01  7.20000000E-01  7.20000000E-01  7.20000000E-01  7.20000000E-01
  7.20000000E-01  8.50000000E-01  7.20000000E-01  8.50000000E-01  7.20000000E-01
  8.50000000E-01  7.20000000E-01  8.50000000E-01  7.20000000E-01  7.20000000E-01
  8.50000000E-01  8.50000000E-01  8.50000000E-01  8.50000000E-01  7.90000000E-01
  7.90000000E-01  7.20000000E-01  8.50000000E-01  7.90000000E-01  7.20000000E-01
  8.50000000E-01  7.20000000E-01  7.20000000E-01  7.20000000E-01  7.20000000E-01
  8.50000000E-01  7.20000000E-01  7.20000000E-01  8.50000000E-01  7.20000000E-01
  7.20000000E-01  7.20000000E-01  7.20000000E-01  7.20000000E-01  7.20000000E-01
  7.20000000E-01  7.20000000E-01  7.20000000E-01  7.20000000E-01  7.20000000E-01
  7.20000000E-01  7.20000000E-01  8.50000000E-01  7.20000000E-01  8.50000000E-01
  8.50000000E-01  7.20000000E-01  8.50000000E-01  7.20000000E-01  7.20000000E-01
  8.50000000E-01  7.20000000E-01  8.50000000E-01  7.20000000E-01  8.50000000E-01
  7.20000000E-01  8.50000000E-01  7.20000000E-01  8.50000000E-01  7.20000000E-01
  8.50000000E-01  7.20000000E-01  8.50000000E-01  7.20000000E-01  8.50000000E-01
  7.20000000E-01  8.50000000E-01  8.50000000E-01  7.20000000E-01  8.50000000E-01
  8.50000000E-01  8.50000000E-01  7.20000000E-01  8.50000000E-01  7.20000000E-01
  8.50000000E-01  8.50000000E-01  7.20000000E-01  8.50000000E-01  8.50000000E-01
  7.20000000E-01  8.50000000E-01  8.50000000E-01  8.50000000E-01  8.50000000E-01
  8.50000000E-01  8.50000000E-01  8.50000000E-01  8.50000000E-01  7.20000000E-01
  7.20000000E-01  7.20000000E-01  7.20000000E-01  7.20000000E-01  7.20000000E-01
  8.50000000E-01  8.50000000E-01  8.50000000E-01  8.50000000E-01  8.50000000E-01
  8.50000000E-01  8.50000000E-01  8.50000000E-01  8.50000000E-01  8.50000000E-01
  8.50000000E-01  8.50000000E-01  8.50000000E-01  8.50000000E-01  8.50000000E-01
  8.50000000E-01  8.50000000E-01  8.50000000E-01  8.50000000E-01  7.20000000E-01
  7.20000000E-01  7.20000000E-01  7.20000000E-01  8.50000000E-01  8.50000000E-01
  8.50000000E-01  7.20000000E-01  8.50000000E-01  7.20000000E-01  8.50000000E-01
  7.20000000E-01  8.50000000E-01  8.50000000E-01  7.90000000E-01  7.20000000E-01
  7.20000000E-01  7.20000000E-01  7.20000000E-01  7.20000000E-01  7.20000000E-01
  7.20000000E-01  8.50000000E-01  7.20000000E-01  8.50000000E-01  7.20000000E-01
  8.50000000E-01  7.20000000E-01  8.50000000E-01  7.20000000E-01  7.20000000E-01
  8.50000000E-01  7.20000000E-01  8.50000000E-01  8.50000000E-01  7.20000000E-01
  7.20000000E-01  7.20000000E-01  7.20000000E-01  8.50000000E-01  7.20000000E-01
  7.20000000E-01  7.20000000E-01  7.20000000E-01  7.20000000E-01  7.20000000E-01
  7.20000000E-01  7.20000000E-01  8.50000000E-01  7.20000000E-01  8.50000000E-01
  7.20000000E-01  8.50000000E-01  7.20000000E-01  8.50000000E-01  7.20000000E-01
  7.20000000E-01  8.50000000E-01  8.50000000E-01  8.50000000E-01  8.50000000E-01
  7.90000000E-01  7.90000000E-01  7.20000000E-01  8.50000000E-01  7.90000000E-01
  7.20000000E-01  8.50000000E-01  7.20000000E-01  7.20000000E-01  7.20000000E-01
  7.20000000E-01  8.50000000E-01  7.20000000E-01  7.20000000E-01  8.50000000E-01
  7.20000000E-01  7.20000000E-01  7.20000000E-01  7.20000000E-01  7.20000000E-01
  7.20000000E-01  7.20000000E-01  7.20000000E-01  7.20000000E-01  7.20000000E-01
  7.20000000E-01  7.20000000E-01  7.20000000E-01  8.50000000E-01  7.20000000E-01
  8.50000000E-01  8.50000000E-01  7.20000000E-01  8.50000000E-01  7.20000000E-01
  7.20000000E-01  8.50000000E-01  7.20000000E-01  8.50000000E-01  7.20000000E-01
  8.50000000E-01  7.20000000E-01  8.50000000E-01  7.20000000E-01  8.50000000E-01
  7.20000000E-01  8.50000000E-01  7.20000000E-01  8.50000000E-01  7.20000000E-01
  8.50000000E-01  7.20000000E-01  8.50000000E-01  8.50000000E-01  7.20000000E-01
  8.50000000E-01  8.50000000E-01  8.50000000E-01  7.20000000E-01  8.50000000E-01
  7.20000000E-01  8.50000000E-01  8.50000000E-01  7.20000000E-01  8.50000000E-01
  8.50000000E-01  7.20000000E-01  8.50000000E-01  8.50000000E-01  8.50000000E-01
  8.50000000E-01  8.50000000E-01  8.50000000E-01  8.50000000E-01  8.50000000E-01
  7.20000000E-01  7.20000000E-01  7.20000000E-01  7.20000000E-01  7.20000000E-01
  7.20000000E-01  8.50000000E-01  8.50000000E-01  8.50000000E-01  8.50000000E-01
  8.50000000E-01  8.50000000E-01  8.50000000E-01  8.50000000E-01  8.50000000E-01
  8.50000000E-01  8.50000000E-01  8.50000000E-01  8.50000000E-01  8.50000000E-01
  8.50000000E-01  8.50000000E-01  8.50000000E-01  8.50000000E-01  8.50000000E-01
  7.20000000E-01  7.20000000E-01  7.20000000E-01  7.20000000E-01  8.50000000E-01
  8.50000000E-01  8.50000000E-01  7.20000000E-01  8.50000000E-01  7.20000000E-01
  8.50000000E-01  7.20000000E-01  8.50000000E-01  8.50000000E-01  7.90000000E-01
  7.20000000E-01  7.20000000E-01  7.20000000E-01  7.20000000E-01  7.20000000E-01
  7.20000000E-01  7.20000000E-01  8.50000000E-01  7.20000000E-01  8.50000000E-01
  7.20000000E-01  8.50000000E-01  7.20000000E-01  8.50000000E-01  7.20000000E-01
  7.20000000E-01  8.50000000E-01  7.20000000E-01  8.50000000E-01  8.50000000E-01
  7.20000000E-01  7.20000000E-01  7.20000000E-01  7.20000000E-01  8.50000000E-01
  7.20000000E-01  7.20000000E-01  7.20000000E-01  7.20000000E-01  7.20000000E-01
  7.20000000E-01  7.20000000E-01  7.20000000E-01  8.50000000E-01  7.20000000E-01
  8.50000000E-01  7.20000000E-01  8.50000000E-01  7.20000000E-01  8.50000000E-01
  7.20000000E-01  7.20000000E-01  8.50000000E-01  8.50000000E-01  8.50000000E-01
  8.50000000E-01  7.90000000E-01  7.90000000E-01  7.20000000E-01  8.50000000E-01
  7.90000000E-01  7.20000000E-01  8.50000000E-01  7.20000000E-01  7.20000000E-01
  7.20000000E-01  7.20000000E-01  8.50000000E-01  7.20000000E-01  7.20000000E-01
  8.50000000E-01  7.20000000E-01  7.20000000E-01  7.20000000E-01  7.20000000E-01
  7.20000000E-01  7.20000000E-01  7.20000000E-01  7.20000000E-01  7.20000000E-01
  7.20000000E-01  7.20000000E-01  7.20000000E-01  7.20000000E-01  8.50000000E-01
  7.20000000E-01  8.50000000E-01  8.50000000E-01  7.20000000E-01  8.50000000E-01
  7.20000000E-01  7.20000000E-01  8.50000000E-01  7.20000000E-01  8.50000000E-01
  7.20000000E-01  8.50000000E-01  7.20000000E-01  8.50000000E-01  7.20000000E-01
  8.50000000E-01  7.20000000E-01  8.50000000E-01  7.20000000E-01  8.50000000E-01
  7.20000000E-01  8.50000000E-01  7.20000000E-01  8.50000000E-01  8.50000000E-01
  7.20000000E-01  8.50000000E-01  8.50000000E-01  8.50000000E-01  7.20000000E-01
  8.50000000E-01  7.20000000E-01  8.50000000E-01  8.50000000E-01  7.20000000E-01
  8.50000000E-01  8.50000000E-01  7.20000000E-01  8.50000000E-01  8.50000000E-01
  8.50000000E-01  8.50000000E-01  8.50000000E-01  8.50000000E-01  8.50000000E-01
  8.50000000E-01  7.20000000E-01  7.20000000E-01  7.20000000E-01  7.20000000E-01
  7.20000000E-01  7.20000000E-01  8.50000000E-01  8.50000000E-01  8.50000000E-01
  8.50000000E-01  8.50000000E-01  8.50000000E-01  8.50000000E-01  8.50000000E-01
  8.50000000E-01  8.50000000E-01  8.50000000E-01  8.50000000E-01  8.50000000E-01
  8.50000000E-01  8.50000000E-01  8.50000000E-01  8.50000000E-01  8.50000000E-01
  8.50000000E-01  7.20000000E-01  7.20000000E-01  7.20000000E-01  7.20000000E-01
  8.50000000E-01  8.50000000E-01  8.50000000E-01  7.20000000E-01  8.50000000E-01
  7.20000000E-01  8.50000000E-01  7.20000000E-01  8.50000000E-01  8.50000000E-01
  7.90000000E-01  7.20000000E-01  7.20000000E-01  7.20000000E-01  7.20000000E-01
  7.20000000E-01  7.20000000E-01  7.20000000E-01  8.50000000E-01  7.20000000E-01
  8.50000000E-01  7.20000000E-01  8.50000000E-01  7.20000000E-01  8.50000000E-01
  7.20000000E-01  7.20000000E-01  8.50000000E-01  7.20000000E-01  8.50000000E-01
  8.50000000E-01  7.20000000E-01  7.20000000E-01  7.20000000E-01  7.20000000E-01
  8.50000000E-01  7.20000000E-01  7.20000000E-01  7.20000000E-01  7.20000000E-01
  7.20000000E-01  7.20000000E-01  7.20000000E-01  7.20000000E-01  8.50000000E-01
  7.20000000E-01  8.50000000E-01  7.20000000E-01  8.50000000E-01  7.20000000E-01
  8.50000000E-01  7.20000000E-01  7.20000000E-01  8.50000000E-01  8.50000000E-01
  8.50000000E-01  8.50000000E-01  7.90000000E-01  7.90000000E-01  7.20000000E-01
  8.50000000E-01  7.90000000E-01  7.20000000E-01  8.50000000E-01  7.20000000E-01
  7.20000000E-01  7.20000000E-01  7.20000000E-01  8.50000000E-01  7.20000000E-01
  7.20000000E-01  8.50000000E-01  7.20000000E-01  7.20000000E-01  7.20000000E-01
  7.20000000E-01  7.20000000E-01  7.20000000E-01  7.20000000E-01  7.20000000E-01
  7.20000000E-01  7.20000000E-01  7.20000000E-01  7.20000000E-01  7.20000000E-01
  8.50000000E-01  7.20000000E-01  8.50000000E-01  8.50000000E-01  7.20000000E-01
  8.50000000E-01  7.20000000E-01  7.20000000E-01  8.50000000E-01  7.20000000E-01
  8.50000000E-01  7.20000000E-01  8.50000000E-01  7.20000000E-01  8.50000000E-01
  7.20000000E-01  8.50000000E-01  7.20000000E-01  8.50000000E-01  7.20000000E-01
  8.50000000E-01  7.20000000E-01  8.50000000E-01  7.20000000E-01  8.50000000E-01
  8.50000000E-01  7.20000000E-01  8.50000000E-01  8.50000000E-01  8.50000000E-01
  7.20000000E-01  8.50000000E-01  7.20000000E-01  8.50000000E-01  8.50000000E-01
  7.20000000E-01  8.50000000E-01  8.50000000E-01  7.20000000E-01  8.50000000E-01
  8.50000000E-01  8.50000000E-01  8.50000000E-01  8.50000000E-01  8.50000000E-01
  8.50000000E-01  8.50000000E-01  7.20000000E-01  7.20000000E-01  7.20000000E-01
  7.20000000E-01  7.20000000E-01  7.20000000E-01  8.50000000E-01  8.50000000E-01
  8.50000000E-01  8.50000000E-01  8.50000000E-01  8.50000000E-01  8.50000000E-01
  8.50000000E-01  8.50000000E-01  8.50000000E-01  8.50000000E-01  8.50000000E-01
  8.50000000E-01  8.50000000E-01  8.50000000E-01  8.50000000E-01  8.50000000E-01
  8.50000000E-01  8.50000000E-01  7.20000000E-01  7.20000000E-01  7.20000000E-01
  7.20000000E-01  8.50000000E-01  8.50000000E-01  8.50000000E-01  7.20000000E-01
  8.50000000E-01  7.20000000E-01  8.50000000E-01  7.20000000E-01  8.50000000E-01
  8.50000000E-01  7.90000000E-01  7.20000000E-01  7.20000000E-01  7.20000000E-01
  7.20000000E-01  7.20000000E-01  7.20000000E-01  7.20000000E-01  8.50000000E-01
  7.20000000E-01  8.50000000E-01  7.20000000E-01  8.50000000E-01  7.20000000E-01
  8.50000000E-01  7.20000000E-01  7.20000000E-01  8.50000000E-01  7.20000000E-01
  8.50000000E-01  8.50000000E-01  7.20000000E-01  7.20000000E-01  7.20000000E-01
  7.20000000E-01  8.50000000E-01  7.20000000E-01  7.20000000E-01  7.20000000E-01
  7.20000000E-01  7.20000000E-01  7.20000000E-01  7.20000000E-01  7.20000000E-01
  8.50000000E-01  7.20000000E-01  8.50000000E-01  7.20000000E-01  8.50000000E-01
  7.20000000E-01  8.50000000E-01  7.20000000E-01  7.20000000E-01  8.50000000E-01
  8.50000000E-01  8.50000000E-01  8.50000000E-01  7.90000000E-01  7.90000000E-01
  7.20000000E-01  8.50000000E-01  7.90000000E-01  7.20000000E-01  8.50000000E-01
  7.20000000E-01  7.20000000E-01  7.20000000E-01  7.20000000E-01  8.50000000E-01
  7.20000000E-01  7.20000000E-01  8.50000000E-01  7.20000000E-01  7.20000000E-01
  7.20000000E-01  7.20000000E-01  7.20000000E-01  7.20000000E-01  7.20000000E-01
  7.20000000E-01  7.20000000E-01  7.20000000E-01  7.20000000E-01  7.20000000E-01
  7.20000000E-01  8.50000000E-01  7.20000000E-01  8.50000000E-01  8.50000000E-01
  7.20000000E-01  8.50000000E-01  7.20000000E-01  7.20000000E-01  8.50000000E-01
  7.20000000E-01  8.50000000E-01  7.20000000E-01  8.50000000E-01  7.20000000E-01
  8.50000000E-01  7.20000000E-01  8.50000000E-01  7.20000000E-01  8.50000000E-01
  7.20000000E-01  8.50000000E-01  7.20000000E-01  8.50000000E-01  7.20000000E-01
  8.50000000E-01  8.50000000E-01  7.20000000E-01  8.50000000E-01  8.50000000E-01
  8.50000000E-01  7.20000000E-01  8.50000000E-01  7.20000000E-01  8.50000000E-01
  8.50000000E-01  7.20000000E-01  8.50000000E-01  8.50000000E-01  7.20000000E-01
  8.50000000E-01  8.50000000E-01  8.50000000E-01  8.50000000E-01  8.50000000E-01
  8.50000000E-01  8.50000000E-01  8.50000000E-01  7.20000000E-01  7.20000000E-01
  7.20000000E-01  7.20000000E-01  7.20000000E-01  7.20000000E-01  8.50000000E-01
  8.50000000E-01  8.50000000E-01  8.50000000E-01  8.50000000E-01  8.50000000E-01
  8.50000000E-01  8.50000000E-01  8.50000000E-01  8.50000000E-01  8.50000000E-01
  8.50000000E-01  8.50000000E-01  8.50000000E-01  8.50000000E-01  8.50000000E-01
  8.50000000E-01  8.50000000E-01  8.50000000E-01  7.20000000E-01  7.20000000E-01
  7.20000000E-01  7.20000000E-01  8.50000000E-01  8.50000000E-01  8.50000000E-01
  7.20000000E-01  8.50000000E-01  7.20000000E-01  8.50000000E-01  7.20000000E-01
  8.50000000E-01  8.50000000E-01  7.90000000E-01  7.20000000E-01  7.20000000E-01
  7.20000000E-01  7.20000000E-01  7.20000000E-01  7.20000000E-01  7.20000000E-01
  8.50000000E-01  7.20000000E-01  8.50000000E-01  7.20000000E-01  8.50000000E-01
  7.20000000E-01  8.50000000E-01  7.20000000E-01  7.20000000E-01  8.50000000E-01
  7.20000000E-01  8.50000000E-01  8.50000000E-01  7.20000000E-01  7.20000000E-01
  7.20000000E-01  7.20000000E-01  8.50000000E-01  7.20000000E-01  7.20000000E-01
  7.20000000E-01  7.20000000E-01  7.20000000E-01  7.20000000E-01  7.20000000E-01
  7.20000000E-01  8.50000000E-01  7.20000000E-01  8.50000000E-01  7.20000000E-01
  8.50000000E-01  7.20000000E-01  8.50000000E-01  7.20000000E-01  7.20000000E-01
  8.50000000E-01  8.50000000E-01  8.50000000E-01  8.50000000E-01  7.90000000E-01
  7.90000000E-01  7.20000000E-01  8.50000000E-01  7.90000000E-01  7.20000000E-01
  8.50000000E-01  7.20000000E-01  7.20000000E-01  7.20000000E-01  7.20000000E-01
  8.50000000E-01  7.20000000E-01  7.20000000E-01  8.50000000E-01  7.20000000E-01
  7.20000000E-01  7.20000000E-01  7.20000000E-01  7.20000000E-01  7.20000000E-01
  7.20000000E-01  7.20000000E-01  7.20000000E-01  7.20000000E-01  7.20000000E-01
  7.20000000E-01  7.20000000E-01  8.50000000E-01  7.20000000E-01  8.50000000E-01
  8.50000000E-01  7.20000000E-01  8.50000000E-01  7.20000000E-01  7.20000000E-01
  8.50000000E-01  7.20000000E-01  8.50000000E-01  7.20000000E-01  8.50000000E-01
  7.20000000E-01  8.50000000E-01  7.20000000E-01  8.50000000E-01  7.20000000E-01
  8.50000000E-01  7.20000000E-01  8.50000000E-01  7.20000000E-01  8.50000000E-01
  7.20000000E-01  8.50000000E-01  8.50000000E-01  7.20000000E-01  8.50000000E-01
  8.50000000E-01  8.50000000E-01  7.20000000E-01  8.50000000E-01  7.20000000E-01
  8.50000000E-01  8.50000000E-01  7.20000000E-01  8.50000000E-01  8.50000000E-01
  7.20000000E-01  8.50000000E-01  8.50000000E-01  8.50000000E-01  8.50000000E-01
  8.50000000E-01  8.50000000E-01  8.50000000E-01  8.50000000E-01  7.20000000E-01
  7.20000000E-01  7.20000000E-01  7.20000000E-01  7.20000000E-01  7.20000000E-01
  8.50000000E-01  8.50000000E-01  8.50000000E-01  8.50000000E-01  8.50000000E-01
  8.50000000E-01  8.50000000E-01  8.50000000E-01  8.50000000E-01  8.50000000E-01
  8.50000000E-01  8.50000000E-01  8.50000000E-01  8.50000000E-01  8.50000000E-01
  8.50000000E-01  8.50000000E-01  8.50000000E-01  8.50000000E-01  7.20000000E-01
  7.20000000E-01  7.20000000E-01  7.20000000E-01  8.50000000E-01  8.50000000E-01
  8.50000000E-01  7.20000000E-01  8.50000000E-01  7.20000000E-01  8.50000000E-01
  7.20000000E-01  8.50000000E-01  8.50000000E-01  7.90000000E-01  7.20000000E-01
  7.20000000E-01  7.20000000E-01  7.20000000E-01  7.20000000E-01  7.20000000E-01
  7.20000000E-01  8.50000000E-01  7.20000000E-01  8.50000000E-01  7.20000000E-01
  8.50000000E-01  7.20000000E-01  8.50000000E-01  7.20000000E-01  7.20000000E-01
  8.50000000E-01  7.20000000E-01  8.50000000E-01  8.50000000E-01  7.20000000E-01
  7.20000000E-01  7.20000000E-01  7.20000000E-01  8.50000000E-01  7.20000000E-01
  7.20000000E-01  7.20000000E-01  7.20000000E-01  7.20000000E-01  7.20000000E-01
  7.20000000E-01  7.20000000E-01  8.50000000E-01  7.20000000E-01  8.50000000E-01
  7.20000000E-01  8.50000000E-01  7.20000000E-01  8.50000000E-01  7.20000000E-01
  7.20000000E-01  8.50000000E-01  8.50000000E-01  8.50000000E-01  8.50000000E-01
  7.90000000E-01  7.90000000E-01  7.20000000E-01  8.50000000E-01  7.90000000E-01
  7.20000000E-01  8.50000000E-01  7.20000000E-01  7.20000000E-01  7.20000000E-01
  7.20000000E-01  8.50000000E-01  7.20000000E-01  7.20000000E-01  8.50000000E-01
  7.20000000E-01  7.20000000E-01  7.20000000E-01  7.20000000E-01  7.20000000E-01
  7.20000000E-01  7.20000000E-01  7.20000000E-01  7.20000000E-01  7.20000000E-01
  7.20000000E-01  7.20000000E-01  7.20000000E-01  8.50000000E-01  7.20000000E-01
  8.50000000E-01  8.50000000E-01  7.20000000E-01  8.50000000E-01  7.20000000E-01
  7.20000000E-01  8.50000000E-01  7.20000000E-01  8.50000000E-01  7.20000000E-01
  8.50000000E-01  7.20000000E-01  8.50000000E-01  7.20000000E-01  8.50000000E-01
  7.20000000E-01  8.50000000E-01  7.20000000E-01  8.50000000E-01  7.20000000E-01
  8.50000000E-01  7.20000000E-01  8.50000000E-01  8.50000000E-01  7.20000000E-01
  8.50000000E-01  8.50000000E-01  8.50000000E-01  7.20000000E-01  8.50000000E-01
  7.20000000E-01  8.50000000E-01  8.50000000E-01  7.20000000E-01  8.50000000E-01
  8.50000000E-01  7.20000000E-01  8.50000000E-01  8.50000000E-01  8.50000000E-01
  8.50000000E-01  8.50000000E-01  8.50000000E-01  8.50000000E-01  8.50000000E-01
  7.20000000E-01  7.20000000E-01  7.20000000E-01  7.20000000E-01  7.20000000E-01
  7.20000000E-01  8.50000000E-01  8.50000000E-01  8.50000000E-01  8.50000000E-01
  8.50000000E-01  8.50000000E-01  8.50000000E-01  8.50000000E-01  8.50000000E-01
  8.50000000E-01  8.50000000E-01  8.50000000E-01  8.50000000E-01  8.50000000E-01
  8.50000000E-01  8.50000000E-01  8.50000000E-01  8.50000000E-01  8.50000000E-01
  7.20000000E-01  7.20000000E-01  7.20000000E-01  7.20000000E-01  8.50000000E-01
  8.50000000E-01  8.50000000E-01  7.20000000E-01  8.50000000E-01  7.20000000E-01
  8.50000000E-01  7.20000000E-01  8.50000000E-01  8.50000000E-01  7.90000000E-01
  7.20000000E-01  7.20000000E-01  7.20000000E-01  7.20000000E-01  7.20000000E-01
  7.20000000E-01  7.20000000E-01  8.50000000E-01  7.20000000E-01  8.50000000E-01
  7.20000000E-01  8.50000000E-01  7.20000000E-01  8.50000000E-01  7.20000000E-01
  7.20000000E-01  8.50000000E-01  7.20000000E-01  8.50000000E-01  8.50000000E-01
  7.20000000E-01  7.20000000E-01  7.20000000E-01  7.20000000E-01  8.50000000E-01
  7.20000000E-01  7.20000000E-01  7.20000000E-01  7.20000000E-01  7.20000000E-01
  7.20000000E-01  7.20000000E-01  7.20000000E-01  8.50000000E-01  7.20000000E-01
  8.50000000E-01  7.20000000E-01  8.50000000E-01  7.20000000E-01  8.50000000E-01
  7.20000000E-01  7.20000000E-01  8.50000000E-01  8.50000000E-01  8.50000000E-01
  8.50000000E-01  7.90000000E-01  7.90000000E-01  7.20000000E-01  8.50000000E-01
  7.90000000E-01  7.20000000E-01  8.50000000E-01  7.20000000E-01  7.20000000E-01
  7.20000000E-01  7.20000000E-01  8.50000000E-01  7.20000000E-01  7.20000000E-01
  8.50000000E-01  7.20000000E-01  7.20000000E-01  7.20000000E-01  7.20000000E-01
  7.20000000E-01  7.20000000E-01  7.20000000E-01  7.20000000E-01  7.20000000E-01
  7.20000000E-01  7.20000000E-01  7.20000000E-01  7.20000000E-01  8.50000000E-01
  7.20000000E-01  8.50000000E-01  8.50000000E-01  7.20000000E-01  8.50000000E-01
  7.20000000E-01  7.20000000E-01  8.50000000E-01  7.20000000E-01  8.50000000E-01
  7.20000000E-01  8.50000000E-01  7.20000000E-01  8.50000000E-01  7.20000000E-01
  8.50000000E-01  7.20000000E-01  8.50000000E-01  7.20000000E-01  8.50000000E-01
  7.20000000E-01  8.50000000E-01  7.20000000E-01  8.50000000E-01  8.50000000E-01
  7.20000000E-01  8.50000000E-01  8.50000000E-01  8.50000000E-01  7.20000000E-01
  8.50000000E-01  7.20000000E-01  8.50000000E-01  8.50000000E-01  7.20000000E-01
  8.50000000E-01  8.50000000E-01  7.20000000E-01  8.50000000E-01  8.50000000E-01
  8.50000000E-01  8.50000000E-01  8.50000000E-01  8.50000000E-01  8.50000000E-01
  8.50000000E-01  7.20000000E-01  7.20000000E-01  7.20000000E-01  7.20000000E-01
  7.20000000E-01  7.20000000E-01  8.50000000E-01  8.50000000E-01  8.50000000E-01
  8.50000000E-01  8.50000000E-01  8.50000000E-01  8.50000000E-01  8.50000000E-01
  8.50000000E-01  8.50000000E-01  8.50000000E-01  8.50000000E-01  8.50000000E-01
  8.50000000E-01  8.50000000E-01  8.50000000E-01  8.50000000E-01  8.50000000E-01
  8.50000000E-01  7.20000000E-01  7.20000000E-01  7.20000000E-01  7.20000000E-01
  8.50000000E-01  8.50000000E-01  8.50000000E-01  7.20000000E-01  8.50000000E-01
  7.20000000E-01  8.50000000E-01  7.20000000E-01  8.50000000E-01  8.50000000E-01
  7.90000000E-01  7.20000000E-01  7.20000000E-01  7.20000000E-01  7.20000000E-01
  7.20000000E-01  7.20000000E-01  7.20000000E-01  8.50000000E-01  7.20000000E-01
  8.50000000E-01  7.20000000E-01  8.50000000E-01  7.20000000E-01  8.50000000E-01
  7.20000000E-01  7.20000000E-01  8.50000000E-01  7.20000000E-01  8.50000000E-01
  8.50000000E-01  7.20000000E-01  7.20000000E-01  7.20000000E-01  7.20000000E-01
  8.50000000E-01  7.20000000E-01  7.20000000E-01  7.20000000E-01  7.20000000E-01
  7.20000000E-01  7.20000000E-01  7.20000000E-01  7.20000000E-01  8.50000000E-01
  7.20000000E-01  8.50000000E-01  7.20000000E-01  8.50000000E-01  7.20000000E-01
  8.50000000E-01  7.20000000E-01  7.20000000E-01  8.50000000E-01  8.50000000E-01
  8.50000000E-01  8.50000000E-01  7.90000000E-01  7.90000000E-01  7.20000000E-01
  8.50000000E-01  7.90000000E-01  7.20000000E-01  8.50000000E-01  7.20000000E-01
  7.20000000E-01  7.20000000E-01  7.20000000E-01  8.50000000E-01  7.20000000E-01
  7.20000000E-01  8.50000000E-01  7.20000000E-01  7.20000000E-01  7.20000000E-01
  7.20000000E-01  7.20000000E-01  7.20000000E-01  7.20000000E-01  7.20000000E-01
  7.20000000E-01  7.20000000E-01  7.20000000E-01  7.20000000E-01  7.20000000E-01
  8.50000000E-01  7.20000000E-01  8.50000000E-01  8.50000000E-01  7.20000000E-01
  8.50000000E-01  7.20000000E-01  7.20000000E-01  8.50000000E-01  7.20000000E-01
  8.50000000E-01  7.20000000E-01  8.50000000E-01  7.20000000E-01  8.50000000E-01
  7.20000000E-01  8.50000000E-01  7.20000000E-01  8.50000000E-01  7.20000000E-01
  8.50000000E-01  7.20000000E-01  8.50000000E-01  7.20000000E-01  8.50000000E-01
  8.50000000E-01  7.20000000E-01  8.50000000E-01  8.50000000E-01  8.50000000E-01
  7.20000000E-01  8.50000000E-01  7.20000000E-01  8.50000000E-01  8.50000000E-01
  7.20000000E-01  8.50000000E-01  8.50000000E-01  7.20000000E-01  8.50000000E-01
  8.50000000E-01  8.50000000E-01  8.50000000E-01  8.50000000E-01  8.50000000E-01
  8.50000000E-01  8.50000000E-01  7.20000000E-01  7.20000000E-01  7.20000000E-01
  7.20000000E-01  7.20000000E-01  7.20000000E-01  8.50000000E-01  8.50000000E-01
  8.50000000E-01  8.50000000E-01  8.50000000E-01  8.50000000E-01  8.50000000E-01
  8.50000000E-01  8.50000000E-01  8.50000000E-01  8.50000000E-01  8.50000000E-01
  8.50000000E-01  8.50000000E-01  8.50000000E-01  8.50000000E-01  8.50000000E-01
  8.50000000E-01  8.50000000E-01  7.20000000E-01  7.20000000E-01  7.20000000E-01
  7.20000000E-01  8.50000000E-01  8.50000000E-01  8.50000000E-01  7.20000000E-01
  8.50000000E-01  7.20000000E-01  8.50000000E-01  7.20000000E-01  8.50000000E-01
  8.50000000E-01  7.90000000E-01  7.20000000E-01  7.20000000E-01  7.20000000E-01
  7.20000000E-01  7.20000000E-01  7.20000000E-01  7.20000000E-01  8.50000000E-01
  7.20000000E-01  8.50000000E-01  7.20000000E-01  8.50000000E-01  7.20000000E-01
  8.50000000E-01  7.20000000E-01  7.20000000E-01  8.50000000E-01  7.20000000E-01
  8.50000000E-01  8.50000000E-01  7.20000000E-01  7.20000000E-01  7.20000000E-01
  7.20000000E-01  8.50000000E-01  7.20000000E-01  7.20000000E-01  7.20000000E-01
  7.20000000E-01  7.20000000E-01  7.20000000E-01  7.20000000E-01  7.20000000E-01
  8.50000000E-01  7.20000000E-01  8.50000000E-01  7.20000000E-01  8.50000000E-01
  7.20000000E-01  8.50000000E-01  7.20000000E-01  7.20000000E-01  8.50000000E-01
  8.50000000E-01  8.50000000E-01  8.50000000E-01  7.90000000E-01  7.90000000E-01
  7.20000000E-01  8.50000000E-01  7.90000000E-01  7.20000000E-01  8.50000000E-01
  7.20000000E-01  7.20000000E-01  7.20000000E-01  7.20000000E-01  8.50000000E-01
  7.20000000E-01  7.20000000E-01  8.50000000E-01  7.20000000E-01  7.20000000E-01
  7.20000000E-01  7.20000000E-01  7.20000000E-01  7.20000000E-01  7.20000000E-01
  7.20000000E-01  7.20000000E-01  7.20000000E-01  7.20000000E-01  7.20000000E-01
  7.20000000E-01  8.50000000E-01  7.20000000E-01  8.50000000E-01  8.50000000E-01
  7.20000000E-01  8.50000000E-01  7.20000000E-01  7.20000000E-01  8.50000000E-01
  7.20000000E-01  8.50000000E-01  7.20000000E-01  8.50000000E-01  7.20000000E-01
  8.50000000E-01  7.20000000E-01  8.50000000E-01  7.20000000E-01  8.50000000E-01
  7.20000000E-01  8.50000000E-01  7.20000000E-01  8.50000000E-01  7.20000000E-01
  8.50000000E-01  8.50000000E-01  7.20000000E-01  8.50000000E-01  8.50000000E-01
  8.50000000E-01  7.20000000E-01  8.50000000E-01  7.20000000E-01  8.50000000E-01
  8.50000000E-01  7.20000000E-01  8.50000000E-01  8.50000000E-01  7.20000000E-01
  8.50000000E-01  8.50000000E-01  8.50000000E-01  8.50000000E-01  8.50000000E-01
  8.50000000E-01  8.50000000E-01  8.50000000E-01  7.20000000E-01  7.20000000E-01
  7.20000000E-01  7.20000000E-01  7.20000000E-01  7.20000000E-01  8.50000000E-01
  8.50000000E-01  8.50000000E-01  8.50000000E-01  8.50000000E-01  8.50000000E-01
  8.50000000E-01  8.50000000E-01  8.50000000E-01  8.50000000E-01  8.50000000E-01
  8.50000000E-01  8.50000000E-01  8.50000000E-01  8.50000000E-01  8.50000000E-01
  8.50000000E-01  8.50000000E-01  8.50000000E-01  7.20000000E-01  7.20000000E-01
  7.20000000E-01  7.20000000E-01  8.50000000E-01  8.50000000E-01  8.50000000E-01
  7.20000000E-01  8.50000000E-01  7.20000000E-01  8.50000000E-01  7.20000000E-01
  8.50000000E-01  8.50000000E-01  7.90000000E-01  7.20000000E-01  7.20000000E-01
  7.20000000E-01  7.20000000E-01  7.20000000E-01  7.20000000E-01  7.20000000E-01
  8.50000000E-01  7.20000000E-01  8.50000000E-01  7.20000000E-01  8.50000000E-01
  7.20000000E-01  8.50000000E-01  7.20000000E-01  7.20000000E-01  8.50000000E-01
  7.20000000E-01  8.50000000E-01  8.50000000E-01  7.20000000E-01  7.20000000E-01
  7.20000000E-01  7.20000000E-01  8.50000000E-01  7.20000000E-01  7.20000000E-01
  7.20000000E-01  7.20000000E-01  7.20000000E-01  7.20000000E-01  7.20000000E-01
  7.20000000E-01  8.50000000E-01  7.20000000E-01  8.50000000E-01  7.20000000E-01
  8.50000000E-01  7.20000000E-01  8.50000000E-01  7.20000000E-01  7.20000000E-01
  8.50000000E-01  8.50000000E-01  8.50000000E-01  8.50000000E-01  7.90000000E-01
  7.90000000E-01  7.20000000E-01  8.50000000E-01  7.90000000E-01  7.20000000E-01
  8.50000000E-01  7.20000000E-01  7.20000000E-01  7.20000000E-01  7.20000000E-01
  8.50000000E-01  7.20000000E-01  7.20000000E-01  8.50000000E-01  7.20000000E-01
  7.20000000E-01  7.20000000E-01  7.20000000E-01  7.20000000E-01  7.20000000E-01
  7.20000000E-01  7.20000000E-01  7.20000000E-01  7.20000000E-01  7.20000000E-01
  7.20000000E-01  7.20000000E-01  8.50000000E-01  7.20000000E-01  8.50000000E-01
  8.50000000E-01  7.20000000E-01  8.50000000E-01  7.20000000E-01  7.20000000E-01
  8.50000000E-01  7.20000000E-01  8.50000000E-01  7.20000000E-01  8.50000000E-01
  7.20000000E-01  8.50000000E-01  7.20000000E-01  8.50000000E-01  7.20000000E-01
  8.50000000E-01  7.20000000E-01  8.50000000E-01  7.20000000E-01  8.50000000E-01
  7.20000000E-01  8.50000000E-01  8.50000000E-01  7.20000000E-01  8.50000000E-01
  8.50000000E-01  8.50000000E-01  7.20000000E-01  8.50000000E-01  7.20000000E-01
  8.50000000E-01  8.50000000E-01  7.20000000E-01  8.50000000E-01  8.50000000E-01
  7.20000000E-01  8.50000000E-01  8.50000000E-01  8.50000000E-01  8.50000000E-01
  8.50000000E-01  8.50000000E-01  8.50000000E-01  8.50000000E-01  7.20000000E-01
  7.20000000E-01  7.20000000E-01  7.20000000E-01  7.20000000E-01  7.20000000E-01
  8.50000000E-01  8.50000000E-01  8.50000000E-01  8.50000000E-01  8.50000000E-01
  8.50000000E-01  8.50000000E-01  8.50000000E-01  8.50000000E-01  8.50000000E-01
  8.50000000E-01  8.50000000E-01  8.50000000E-01  8.50000000E-01  8.50000000E-01
  8.50000000E-01  8.50000000E-01  8.50000000E-01  8.50000000E-01  7.20000000E-01
  7.20000000E-01  7.20000000E-01  7.20000000E-01  8.50000000E-01  8.50000000E-01
  8.50000000E-01  7.20000000E-01  8.50000000E-01  7.20000000E-01  8.50000000E-01
  7.20000000E-01  8.50000000E-01  8.50000000E-01  7.90000000E-01  7.20000000E-01
  7.20000000E-01  7.20000000E-01  7.20000000E-01  7.20000000E-01  7.20000000E-01
  7.20000000E-01  8.50000000E-01  7.20000000E-01  8.50000000E-01  7.20000000E-01
  8.50000000E-01  7.20000000E-01  8.50000000E-01  7.20000000E-01  7.20000000E-01
  8.50000000E-01  7.20000000E-01  8.50000000E-01  8.50000000E-01  7.20000000E-01
  7.20000000E-01  7.20000000E-01  7.20000000E-01  8.50000000E-01  7.20000000E-01
  7.20000000E-01  7.20000000E-01  7.20000000E-01  7.20000000E-01  7.20000000E-01
  7.20000000E-01  7.20000000E-01  8.50000000E-01  7.20000000E-01  8.50000000E-01
  7.20000000E-01  8.50000000E-01  7.20000000E-01  8.50000000E-01  7.20000000E-01
  7.20000000E-01  8.50000000E-01  8.50000000E-01  8.50000000E-01  8.50000000E-01
  7.90000000E-01  7.90000000E-01  7.20000000E-01  8.50000000E-01  7.90000000E-01
  7.20000000E-01  8.50000000E-01  7.20000000E-01  7.20000000E-01  7.20000000E-01
  7.20000000E-01  8.50000000E-01  7.20000000E-01  7.20000000E-01  8.50000000E-01
  7.20000000E-01  7.20000000E-01  7.20000000E-01  7.20000000E-01  7.20000000E-01
  7.20000000E-01  7.20000000E-01  7.20000000E-01  7.20000000E-01  7.20000000E-01
  7.20000000E-01  7.20000000E-01  7.20000000E-01  8.50000000E-01  7.20000000E-01
  8.50000000E-01  8.50000000E-01  7.20000000E-01  8.50000000E-01  7.20000000E-01
  7.20000000E-01  8.50000000E-01  7.20000000E-01  8.50000000E-01  7.20000000E-01
  8.50000000E-01  7.20000000E-01  8.50000000E-01  7.20000000E-01  8.50000000E-01
  7.20000000E-01  8.50000000E-01  7.20000000E-01  8.50000000E-01  7.20000000E-01
  8.50000000E-01  7.20000000E-01  8.50000000E-01  8.50000000E-01  7.20000000E-01
  8.50000000E-01  8.50000000E-01  8.50000000E-01  7.20000000E-01  8.50000000E-01
  7.20000000E-01  8.50000000E-01  8.50000000E-01  7.20000000E-01  8.50000000E-01
  8.50000000E-01  7.20000000E-01  8.50000000E-01  8.50000000E-01  8.50000000E-01
  8.50000000E-01  8.50000000E-01  8.50000000E-01  8.50000000E-01  8.50000000E-01
  7.20000000E-01  7.20000000E-01  7.20000000E-01  7.20000000E-01  7.20000000E-01
  7.20000000E-01  8.50000000E-01  8.50000000E-01  8.50000000E-01  8.50000000E-01
  8.50000000E-01  8.50000000E-01  8.50000000E-01  8.50000000E-01  8.50000000E-01
  8.50000000E-01  8.50000000E-01  8.50000000E-01  8.50000000E-01  8.50000000E-01
  8.50000000E-01  8.50000000E-01  8.50000000E-01  8.50000000E-01  8.50000000E-01
  7.20000000E-01  7.20000000E-01  7.20000000E-01  7.20000000E-01  8.50000000E-01
  8.50000000E-01  8.50000000E-01  7.20000000E-01  8.50000000E-01  7.20000000E-01
  8.50000000E-01  7.20000000E-01  8.50000000E-01  8.50000000E-01  7.90000000E-01
  7.20000000E-01  7.20000000E-01  7.20000000E-01  7.20000000E-01  7.20000000E-01
  7.20000000E-01  7.20000000E-01  8.50000000E-01  7.20000000E-01  8.50000000E-01
  7.20000000E-01  8.50000000E-01  7.20000000E-01  8.50000000E-01  7.20000000E-01
  7.20000000E-01  8.50000000E-01  7.20000000E-01  8.50000000E-01  8.50000000E-01
  7.20000000E-01  7.20000000E-01  7.20000000E-01  7.20000000E-01  8.50000000E-01
  7.20000000E-01  7.20000000E-01  7.20000000E-01  7.20000000E-01  7.20000000E-01
  7.20000000E-01  7.20000000E-01  7.20000000E-01  8.50000000E-01  7.20000000E-01
  8.50000000E-01  7.20000000E-01  8.50000000E-01  7.20000000E-01  8.50000000E-01
  7.20000000E-01  7.20000000E-01  8.50000000E-01  8.50000000E-01  8.50000000E-01
  8.50000000E-01  7.90000000E-01  7.90000000E-01  7.20000000E-01  8.50000000E-01
  7.90000000E-01  7.20000000E-01  8.50000000E-01  7.20000000E-01  7.20000000E-01
  7.20000000E-01  7.20000000E-01  8.50000000E-01  7.20000000E-01  7.20000000E-01
  8.50000000E-01  7.20000000E-01  7.20000000E-01  7.20000000E-01  7.20000000E-01
  7.20000000E-01  7.20000000E-01  7.20000000E-01  7.20000000E-01  7.20000000E-01
  7.20000000E-01  7.20000000E-01  7.20000000E-01  7.20000000E-01  8.50000000E-01
  7.20000000E-01  8.50000000E-01  8.50000000E-01  7.20000000E-01  8.50000000E-01
  7.20000000E-01  7.20000000E-01  8.50000000E-01  7.20000000E-01  8.50000000E-01
  7.20000000E-01  8.50000000E-01  7.20000000E-01  8.50000000E-01  7.20000000E-01
  8.50000000E-01  7.20000000E-01  8.50000000E-01  7.20000000E-01  8.50000000E-01
  7.20000000E-01  8.50000000E-01  7.20000000E-01  8.50000000E-01  8.50000000E-01
  7.20000000E-01  8.50000000E-01  8.50000000E-01  8.50000000E-01  7.20000000E-01
  8.50000000E-01  7.20000000E-01  8.50000000E-01  8.50000000E-01  7.20000000E-01
  8.50000000E-01  8.50000000E-01  7.20000000E-01  8.50000000E-01  8.50000000E-01
  8.50000000E-01  8.50000000E-01  8.50000000E-01  8.50000000E-01  8.50000000E-01
  8.50000000E-01  7.20000000E-01  7.20000000E-01  7.20000000E-01  7.20000000E-01
  7.20000000E-01  7.20000000E-01  8.50000000E-01  8.50000000E-01  8.50000000E-01
  8.50000000E-01  8.50000000E-01  8.50000000E-01  8.50000000E-01  8.50000000E-01
  8.50000000E-01  8.50000000E-01  8.50000000E-01  8.50000000E-01  8.50000000E-01
  8.50000000E-01  8.50000000E-01  8.50000000E-01  8.50000000E-01  8.50000000E-01
  8.50000000E-01  7.20000000E-01  7.20000000E-01  7.20000000E-01  7.20000000E-01
  8.50000000E-01  8.50000000E-01  8.50000000E-01  7.20000000E-01  8.50000000E-01
  7.20000000E-01  8.50000000E-01  7.20000000E-01  8.50000000E-01  8.50000000E-01
  7.90000000E-01  7.20000000E-01  7.20000000E-01  7.20000000E-01  7.20000000E-01
  7.20000000E-01  7.20000000E-01  7.20000000E-01  8.50000000E-01  7.20000000E-01
  8.50000000E-01  7.20000000E-01  8.50000000E-01  7.20000000E-01  8.50000000E-01
  7.20000000E-01  7.20000000E-01  8.50000000E-01  7.20000000E-01  8.50000000E-01
  8.50000000E-01  7.20000000E-01  7.20000000E-01  7.20000000E-01  7.20000000E-01
  8.50000000E-01  7.20000000E-01  7.20000000E-01  7.20000000E-01  7.20000000E-01
  7.20000000E-01  7.20000000E-01  7.20000000E-01  7.20000000E-01  8.50000000E-01
  7.20000000E-01  8.50000000E-01  7.20000000E-01  8.50000000E-01  7.20000000E-01
  8.50000000E-01  7.20000000E-01  7.20000000E-01  8.50000000E-01  8.50000000E-01
  8.50000000E-01  8.50000000E-01  7.90000000E-01  7.90000000E-01  7.20000000E-01
  8.50000000E-01  7.90000000E-01  7.20000000E-01  8.50000000E-01  7.20000000E-01
  7.20000000E-01  7.20000000E-01  7.20000000E-01  8.50000000E-01  7.20000000E-01
  7.20000000E-01  8.50000000E-01  7.20000000E-01  7.20000000E-01  7.20000000E-01
  7.20000000E-01  7.20000000E-01  7.20000000E-01  7.20000000E-01  7.20000000E-01
  7.20000000E-01  7.20000000E-01  7.20000000E-01  7.20000000E-01  7.20000000E-01
  8.50000000E-01  7.20000000E-01  8.50000000E-01  8.50000000E-01  7.20000000E-01
  8.50000000E-01  7.20000000E-01  7.20000000E-01  8.50000000E-01  7.20000000E-01
  8.50000000E-01  7.20000000E-01  8.50000000E-01  7.20000000E-01  8.50000000E-01
  7.20000000E-01  8.50000000E-01  7.20000000E-01  8.50000000E-01  7.20000000E-01
  8.50000000E-01  7.20000000E-01  8.50000000E-01  7.20000000E-01  8.50000000E-01
  8.50000000E-01  7.20000000E-01  8.50000000E-01  8.50000000E-01  8.50000000E-01
  7.20000000E-01  8.50000000E-01  7.20000000E-01  8.50000000E-01  8.50000000E-01
  7.20000000E-01  8.50000000E-01  8.50000000E-01  7.20000000E-01  8.50000000E-01
  8.50000000E-01  8.50000000E-01  8.50000000E-01  8.50000000E-01  8.50000000E-01
  8.50000000E-01  8.50000000E-01  7.20000000E-01  7.20000000E-01  7.20000000E-01
  7.20000000E-01  7.20000000E-01  7.20000000E-01  8.50000000E-01  8.50000000E-01
  8.50000000E-01  8.50000000E-01  8.50000000E-01  8.50000000E-01  8.50000000E-01
  8.50000000E-01  8.50000000E-01  8.50000000E-01  8.50000000E-01  8.50000000E-01
  8.50000000E-01  8.50000000E-01  8.50000000E-01  8.50000000E-01  8.50000000E-01
  8.50000000E-01  8.50000000E-01  7.20000000E-01  7.20000000E-01  7.20000000E-01
  7.20000000E-01  8.50000000E-01  8.50000000E-01  8.50000000E-01  7.20000000E-01
  8.50000000E-01  7.20000000E-01  8.50000000E-01  7.20000000E-01  8.50000000E-01
  8.50000000E-01  7.90000000E-01  7.20000000E-01  7.20000000E-01  7.20000000E-01
  7.20000000E-01  7.20000000E-01  7.20000000E-01  7.20000000E-01  8.50000000E-01
  7.20000000E-01  8.50000000E-01  7.20000000E-01  8.50000000E-01  7.20000000E-01
  8.50000000E-01  7.20000000E-01  7.20000000E-01  8.50000000E-01  7.20000000E-01
  8.50000000E-01  8.50000000E-01  7.20000000E-01  7.20000000E-01  7.20000000E-01
  7.20000000E-01  8.50000000E-01  7.20000000E-01  7.20000000E-01  7.20000000E-01
  7.20000000E-01  7.20000000E-01  7.20000000E-01  7.20000000E-01  7.20000000E-01
  8.50000000E-01  7.20000000E-01  8.50000000E-01  7.20000000E-01  8.50000000E-01
  7.20000000E-01  8.50000000E-01  7.20000000E-01  7.20000000E-01  8.50000000E-01
  8.50000000E-01  8.50000000E-01  8.50000000E-01  7.90000000E-01  7.90000000E-01
  7.20000000E-01  8.50000000E-01  7.90000000E-01  7.20000000E-01  8.50000000E-01
  7.20000000E-01  7.20000000E-01  7.20000000E-01  7.20000000E-01  8.50000000E-01
  7.20000000E-01  7.20000000E-01  8.50000000E-01  7.20000000E-01  7.20000000E-01
  7.20000000E-01  7.20000000E-01  7.20000000E-01  7.20000000E-01  7.20000000E-01
  7.20000000E-01  7.20000000E-01  7.20000000E-01  7.20000000E-01  7.20000000E-01
  7.20000000E-01  8.50000000E-01  7.20000000E-01  8.50000000E-01  8.50000000E-01
  7.20000000E-01  8.50000000E-01  7.20000000E-01  7.20000000E-01  8.50000000E-01
  7.20000000E-01  8.50000000E-01  7.20000000E-01  8.50000000E-01  7.20000000E-01
  8.50000000E-01  7.20000000E-01  8.50000000E-01  7.20000000E-01  8.50000000E-01
  7.20000000E-01  8.50000000E-01  7.20000000E-01  8.50000000E-01  7.20000000E-01
  8.50000000E-01  8.50000000E-01  7.20000000E-01  8.50000000E-01  8.50000000E-01
  8.50000000E-01  7.20000000E-01  8.50000000E-01  7.20000000E-01  8.50000000E-01
  8.50000000E-01  7.20000000E-01  8.50000000E-01  8.50000000E-01  7.20000000E-01
  8.50000000E-01  8.50000000E-01  8.50000000E-01  8.50000000E-01  8.50000000E-01
  8.50000000E-01  8.50000000E-01  8.50000000E-01  7.20000000E-01  7.20000000E-01
  7.20000000E-01  7.20000000E-01  7.20000000E-01  7.20000000E-01  8.50000000E-01
  8.50000000E-01  8.50000000E-01  8.50000000E-01  8.50000000E-01  8.50000000E-01
  8.50000000E-01  8.50000000E-01  8.50000000E-01  8.50000000E-01  8.50000000E-01
  8.50000000E-01  8.50000000E-01  8.50000000E-01  8.50000000E-01  8.50000000E-01
  8.50000000E-01  8.50000000E-01  8.50000000E-01  7.20000000E-01  7.20000000E-01
  7.20000000E-01  7.20000000E-01  8.50000000E-01  8.50000000E-01  8.50000000E-01
  7.20000000E-01  8.50000000E-01  7.20000000E-01  8.50000000E-01  7.20000000E-01
  8.50000000E-01  8.50000000E-01  7.90000000E-01  7.20000000E-01  7.20000000E-01
  7.20000000E-01  7.20000000E-01  7.20000000E-01  7.20000000E-01  7.20000000E-01
  8.50000000E-01  7.20000000E-01  8.50000000E-01  7.20000000E-01  8.50000000E-01
  7.20000000E-01  8.50000000E-01  7.20000000E-01  7.20000000E-01  8.50000000E-01
  7.20000000E-01  8.50000000E-01  8.50000000E-01  7.20000000E-01  7.20000000E-01
  7.20000000E-01  7.20000000E-01  8.50000000E-01  7.20000000E-01  7.20000000E-01
  7.20000000E-01  7.20000000E-01  7.20000000E-01  7.20000000E-01  7.20000000E-01
  7.20000000E-01  8.50000000E-01  7.20000000E-01  8.50000000E-01  7.20000000E-01
  8.50000000E-01  7.20000000E-01  8.50000000E-01  7.20000000E-01  7.20000000E-01
  8.50000000E-01  8.50000000E-01  8.50000000E-01  8.50000000E-01  7.90000000E-01
  7.90000000E-01  7.20000000E-01  8.50000000E-01  7.90000000E-01  7.20000000E-01
  8.50000000E-01  7.20000000E-01  7.20000000E-01  7.20000000E-01  7.20000000E-01
  8.50000000E-01  7.20000000E-01  7.20000000E-01  8.50000000E-01  7.20000000E-01
  7.20000000E-01  7.20000000E-01  7.20000000E-01  7.20000000E-01  7.20000000E-01
  7.20000000E-01  7.20000000E-01  7.20000000E-01  7.20000000E-01  7.20000000E-01
  7.20000000E-01  7.20000000E-01  8.50000000E-01  7.20000000E-01  8.50000000E-01
  8.50000000E-01  7.20000000E-01  8.50000000E-01  7.20000000E-01  7.20000000E-01
  8.50000000E-01  7.20000000E-01  8.50000000E-01  7.20000000E-01  8.50000000E-01
  7.20000000E-01  8.50000000E-01  7.20000000E-01  8.50000000E-01  7.20000000E-01
  8.50000000E-01  7.20000000E-01  8.50000000E-01  7.20000000E-01  8.50000000E-01
  7.20000000E-01  8.50000000E-01  8.50000000E-01  7.20000000E-01  8.50000000E-01
  8.50000000E-01  8.50000000E-01  7.20000000E-01  8.50000000E-01  7.20000000E-01
  8.50000000E-01  8.50000000E-01  7.20000000E-01  8.50000000E-01  8.50000000E-01
  7.20000000E-01  8.50000000E-01  8.50000000E-01  8.50000000E-01  8.50000000E-01
  8.50000000E-01  8.50000000E-01  8.50000000E-01  8.50000000E-01  7.20000000E-01
  7.20000000E-01  7.20000000E-01  7.20000000E-01  7.20000000E-01  7.20000000E-01
  8.50000000E-01  8.50000000E-01  8.50000000E-01  8.50000000E-01  8.50000000E-01
  8.50000000E-01  8.50000000E-01  8.50000000E-01  8.50000000E-01  8.50000000E-01
  8.50000000E-01  8.50000000E-01  8.50000000E-01  8.50000000E-01  8.50000000E-01
  8.50000000E-01  8.50000000E-01  8.50000000E-01  8.50000000E-01  7.20000000E-01
  7.20000000E-01  7.20000000E-01  7.20000000E-01  8.50000000E-01  8.50000000E-01
  8.50000000E-01  7.20000000E-01  8.50000000E-01  7.20000000E-01  8.50000000E-01
  7.20000000E-01  8.50000000E-01  8.50000000E-01  7.90000000E-01  7.20000000E-01
  7.20000000E-01  7.20000000E-01  7.20000000E-01  7.20000000E-01  7.20000000E-01
  7.20000000E-01  8.50000000E-01  7.20000000E-01  8.50000000E-01  7.20000000E-01
  8.50000000E-01  7.20000000E-01  8.50000000E-01  7.20000000E-01  7.20000000E-01
  8.50000000E-01  7.20000000E-01  8.50000000E-01  8.50000000E-01  7.20000000E-01
  7.20000000E-01  7.20000000E-01  7.20000000E-01  8.50000000E-01  7.20000000E-01
  7.20000000E-01  7.20000000E-01  7.20000000E-01  7.20000000E-01  7.20000000E-01
  7.20000000E-01  7.20000000E-01  8.50000000E-01  7.20000000E-01  8.50000000E-01
  7.20000000E-01  8.50000000E-01  7.20000000E-01  8.50000000E-01  7.20000000E-01
  7.20000000E-01  8.50000000E-01  8.50000000E-01  8.50000000E-01  8.50000000E-01
  7.90000000E-01  7.90000000E-01  7.20000000E-01  8.50000000E-01  7.90000000E-01
  7.20000000E-01  8.50000000E-01  7.20000000E-01  7.20000000E-01  7.20000000E-01
  7.20000000E-01  8.50000000E-01  7.20000000E-01  7.20000000E-01  8.50000000E-01
  7.20000000E-01  7.20000000E-01  7.20000000E-01  7.20000000E-01  7.20000000E-01
  7.20000000E-01  7.20000000E-01  7.20000000E-01  7.20000000E-01  7.20000000E-01
  7.20000000E-01  7.20000000E-01  7.20000000E-01  8.50000000E-01  7.20000000E-01
  8.50000000E-01  8.50000000E-01  7.20000000E-01  8.50000000E-01  7.20000000E-01
  7.20000000E-01  8.50000000E-01  7.20000000E-01  8.50000000E-01  7.20000000E-01
  8.50000000E-01  7.20000000E-01  8.50000000E-01  7.20000000E-01  8.50000000E-01
  7.20000000E-01  8.50000000E-01  7.20000000E-01  8.50000000E-01  7.20000000E-01
  8.50000000E-01  7.20000000E-01  8.50000000E-01  8.50000000E-01  7.20000000E-01
  8.50000000E-01  8.50000000E-01  8.50000000E-01  7.20000000E-01  8.50000000E-01
  7.20000000E-01  8.50000000E-01  8.50000000E-01  7.20000000E-01  8.50000000E-01
  8.50000000E-01  7.20000000E-01  8.50000000E-01  8.50000000E-01  8.50000000E-01
  8.50000000E-01  8.50000000E-01  8.50000000E-01  8.50000000E-01  8.50000000E-01
  7.20000000E-01  7.20000000E-01  7.20000000E-01  7.20000000E-01  7.20000000E-01
  7.20000000E-01  8.50000000E-01  8.50000000E-01  8.50000000E-01  8.50000000E-01
  8.50000000E-01  8.50000000E-01  8.50000000E-01  8.50000000E-01  8.50000000E-01
  8.50000000E-01  8.50000000E-01  8.50000000E-01  8.50000000E-01  8.50000000E-01
  8.50000000E-01  8.50000000E-01  8.50000000E-01  8.50000000E-01  8.50000000E-01
  7.20000000E-01  7.20000000E-01  7.20000000E-01  7.20000000E-01  8.50000000E-01
  8.50000000E-01  8.50000000E-01  7.20000000E-01  8.50000000E-01  7.20000000E-01
  8.50000000E-01  7.20000000E-01  8.50000000E-01  8.50000000E-01  7.90000000E-01
  7.20000000E-01  7.20000000E-01  7.20000000E-01  7.20000000E-01  7.20000000E-01
  7.20000000E-01  7.20000000E-01  8.50000000E-01  7.20000000E-01  8.50000000E-01
  7.20000000E-01  8.50000000E-01  7.20000000E-01  8.50000000E-01  7.20000000E-01
  7.20000000E-01  8.50000000E-01  7.20000000E-01  8.50000000E-01  8.50000000E-01
  7.20000000E-01  7.20000000E-01  7.20000000E-01  7.20000000E-01  8.50000000E-01
  7.20000000E-01  7.20000000E-01  7.20000000E-01  7.20000000E-01  7.20000000E-01
  7.20000000E-01  7.20000000E-01  7.20000000E-01  8.50000000E-01  7.20000000E-01
  8.50000000E-01  7.20000000E-01  8.50000000E-01  7.20000000E-01  8.50000000E-01
  7.20000000E-01  7.20000000E-01  8.50000000E-01  8.50000000E-01  8.50000000E-01
  8.50000000E-01  7.90000000E-01  7.90000000E-01  7.20000000E-01  8.50000000E-01
  7.90000000E-01  7.20000000E-01  8.50000000E-01  7.20000000E-01  7.20000000E-01
  7.20000000E-01  7.20000000E-01  8.50000000E-01  7.20000000E-01  7.20000000E-01
  8.50000000E-01  7.20000000E-01  7.20000000E-01  7.20000000E-01  7.20000000E-01
  7.20000000E-01  7.20000000E-01  7.20000000E-01  7.20000000E-01  7.20000000E-01
  7.20000000E-01  7.20000000E-01  7.20000000E-01  7.20000000E-01  8.50000000E-01
  7.20000000E-01  8.50000000E-01  8.50000000E-01  7.20000000E-01  8.50000000E-01
  7.20000000E-01  7.20000000E-01  8.50000000E-01  7.20000000E-01  8.50000000E-01
  7.20000000E-01  8.50000000E-01  7.20000000E-01  8.50000000E-01  7.20000000E-01
  8.50000000E-01  7.20000000E-01  8.50000000E-01  7.20000000E-01  8.50000000E-01
  7.20000000E-01  8.50000000E-01  7.20000000E-01  8.50000000E-01  8.50000000E-01
  7.20000000E-01  8.50000000E-01  8.50000000E-01  8.50000000E-01  7.20000000E-01
  8.50000000E-01  7.20000000E-01  8.50000000E-01  8.50000000E-01  7.20000000E-01
  8.50000000E-01  8.50000000E-01  7.20000000E-01  8.50000000E-01  8.50000000E-01
  8.50000000E-01  8.50000000E-01  8.50000000E-01  8.50000000E-01  8.50000000E-01
  8.50000000E-01  7.20000000E-01  7.20000000E-01  7.20000000E-01  7.20000000E-01
  7.20000000E-01  7.20000000E-01  8.50000000E-01  8.50000000E-01  8.50000000E-01
  8.50000000E-01  8.50000000E-01  8.50000000E-01  8.50000000E-01  8.50000000E-01
  8.50000000E-01  8.50000000E-01  8.50000000E-01  8.50000000E-01  8.50000000E-01
  8.50000000E-01  8.50000000E-01  8.50000000E-01  8.50000000E-01  8.50000000E-01
  8.50000000E-01  7.20000000E-01  7.20000000E-01  7.20000000E-01  7.20000000E-01
  8.50000000E-01  8.50000000E-01  8.50000000E-01  7.20000000E-01  8.50000000E-01
  7.20000000E-01  8.50000000E-01  7.20000000E-01  8.50000000E-01  8.50000000E-01
  7.90000000E-01  7.20000000E-01  7.20000000E-01  7.20000000E-01  7.20000000E-01
  7.20000000E-01  7.20000000E-01  7.20000000E-01  8.50000000E-01  7.20000000E-01
  8.50000000E-01  7.20000000E-01  8.50000000E-01  7.20000000E-01  8.50000000E-01
  7.20000000E-01  7.20000000E-01  8.50000000E-01  7.20000000E-01  8.50000000E-01
  8.50000000E-01  7.20000000E-01  7.20000000E-01  7.20000000E-01  7.20000000E-01
  8.50000000E-01  7.20000000E-01  7.20000000E-01  7.20000000E-01  7.20000000E-01
  7.20000000E-01  7.20000000E-01  7.20000000E-01  7.20000000E-01  8.50000000E-01
  7.20000000E-01  8.50000000E-01  7.20000000E-01  8.50000000E-01  7.20000000E-01
  8.50000000E-01  7.20000000E-01  7.20000000E-01  8.50000000E-01  8.50000000E-01
  8.50000000E-01  8.50000000E-01  7.90000000E-01  7.90000000E-01  7.20000000E-01
  8.50000000E-01  7.90000000E-01  7.20000000E-01  8.50000000E-01  7.20000000E-01
  7.20000000E-01  7.20000000E-01  7.20000000E-01  8.50000000E-01  7.20000000E-01
  7.20000000E-01  8.50000000E-01  7.20000000E-01  7.20000000E-01  7.20000000E-01
  7.20000000E-01  7.20000000E-01  7.20000000E-01  7.20000000E-01  7.20000000E-01
  7.20000000E-01  7.20000000E-01  7.20000000E-01  7.20000000E-01  7.20000000E-01
  8.50000000E-01  7.20000000E-01  8.50000000E-01  8.50000000E-01  7.20000000E-01
  8.50000000E-01  7.20000000E-01  7.20000000E-01  8.50000000E-01  7.20000000E-01
  8.50000000E-01  7.20000000E-01  8.50000000E-01  7.20000000E-01  8.50000000E-01
  7.20000000E-01  8.50000000E-01  7.20000000E-01  8.50000000E-01  7.20000000E-01
  8.50000000E-01  7.20000000E-01  8.50000000E-01  7.20000000E-01  8.50000000E-01
  8.50000000E-01  7.20000000E-01  8.50000000E-01  8.50000000E-01  8.50000000E-01
  7.20000000E-01  8.50000000E-01  7.20000000E-01  8.50000000E-01  8.50000000E-01
  7.20000000E-01  8.50000000E-01  8.50000000E-01  7.20000000E-01  8.50000000E-01
  8.50000000E-01  8.50000000E-01  8.50000000E-01  8.50000000E-01  8.50000000E-01
  8.50000000E-01  8.50000000E-01  7.20000000E-01  7.20000000E-01  7.20000000E-01
  7.20000000E-01  7.20000000E-01  7.20000000E-01  8.50000000E-01  8.50000000E-01
  8.50000000E-01  8.50000000E-01  8.50000000E-01  8.50000000E-01  8.50000000E-01
  8.50000000E-01  8.50000000E-01  8.50000000E-01  8.50000000E-01  8.50000000E-01
  8.50000000E-01  8.50000000E-01  8.50000000E-01  8.50000000E-01  8.50000000E-01
  8.50000000E-01  8.50000000E-01  7.20000000E-01  7.20000000E-01  7.20000000E-01
  7.20000000E-01  8.50000000E-01  8.50000000E-01  8.50000000E-01  7.20000000E-01
  8.50000000E-01  7.20000000E-01  8.50000000E-01  7.20000000E-01  8.50000000E-01
  8.50000000E-01  7.90000000E-01  7.20000000E-01  7.20000000E-01  7.20000000E-01
  7.20000000E-01  7.20000000E-01  7.20000000E-01  7.20000000E-01  8.50000000E-01
  7.20000000E-01  8.50000000E-01  7.20000000E-01  8.50000000E-01  7.20000000E-01
  8.50000000E-01  7.20000000E-01  7.20000000E-01  8.50000000E-01  7.20000000E-01
  8.50000000E-01  8.50000000E-01  7.20000000E-01  7.20000000E-01  7.20000000E-01
  7.20000000E-01  8.50000000E-01  7.20000000E-01  7.20000000E-01  7.20000000E-01
  7.20000000E-01  7.20000000E-01  7.20000000E-01  7.20000000E-01  7.20000000E-01
  8.50000000E-01  7.20000000E-01  8.50000000E-01  7.20000000E-01  8.50000000E-01
  7.20000000E-01  8.50000000E-01  7.20000000E-01  7.20000000E-01  8.50000000E-01
  8.50000000E-01  8.50000000E-01  8.50000000E-01  7.90000000E-01  7.90000000E-01
  7.20000000E-01  8.50000000E-01  7.90000000E-01  7.20000000E-01  8.50000000E-01
  7.20000000E-01  7.20000000E-01  7.20000000E-01  7.20000000E-01  8.50000000E-01
  7.20000000E-01  7.20000000E-01  8.50000000E-01  7.20000000E-01  7.20000000E-01
  7.20000000E-01  7.20000000E-01  7.20000000E-01  7.20000000E-01  7.20000000E-01
  7.20000000E-01  7.20000000E-01  7.20000000E-01  7.20000000E-01  7.20000000E-01
  7.20000000E-01  8.50000000E-01  7.20000000E-01  8.50000000E-01  8.50000000E-01
  7.20000000E-01  8.50000000E-01  7.20000000E-01  7.20000000E-01  8.50000000E-01
  7.20000000E-01  8.50000000E-01  7.20000000E-01  8.50000000E-01  7.20000000E-01
  8.50000000E-01  7.20000000E-01  8.50000000E-01  7.20000000E-01  8.50000000E-01
  7.20000000E-01  8.50000000E-01  7.20000000E-01  8.50000000E-01  7.20000000E-01
  8.50000000E-01  8.50000000E-01  7.20000000E-01  8.50000000E-01  8.50000000E-01
  8.50000000E-01  7.20000000E-01  8.50000000E-01  7.20000000E-01  8.50000000E-01
  8.50000000E-01  7.20000000E-01  8.50000000E-01  8.50000000E-01  7.20000000E-01
  8.50000000E-01  8.50000000E-01  8.50000000E-01  8.50000000E-01  8.50000000E-01
  8.50000000E-01  8.50000000E-01  8.50000000E-01  7.20000000E-01  7.20000000E-01
  7.20000000E-01  7.20000000E-01  7.20000000E-01  7.20000000E-01  8.50000000E-01
  8.50000000E-01  8.50000000E-01  8.50000000E-01  8.50000000E-01  8.50000000E-01
  8.50000000E-01  8.50000000E-01  8.50000000E-01  8.50000000E-01  8.50000000E-01
  8.50000000E-01  8.50000000E-01  8.50000000E-01  8.50000000E-01  8.50000000E-01
  8.50000000E-01  8.50000000E-01  8.50000000E-01  7.20000000E-01  7.20000000E-01
  7.20000000E-01  7.20000000E-01  8.50000000E-01  8.50000000E-01  8.50000000E-01
  7.20000000E-01  8.50000000E-01  7.20000000E-01  8.50000000E-01  7.20000000E-01
  8.50000000E-01  8.50000000E-01  7.90000000E-01  7.20000000E-01  7.20000000E-01
  7.20000000E-01  7.20000000E-01  7.20000000E-01  7.20000000E-01  7.20000000E-01
  8.50000000E-01  7.20000000E-01  8.50000000E-01  7.20000000E-01  8.50000000E-01
  7.20000000E-01  8.50000000E-01  7.20000000E-01  7.20000000E-01  8.50000000E-01
  7.20000000E-01  8.50000000E-01  8.50000000E-01  7.20000000E-01  7.20000000E-01
  7.20000000E-01  7.20000000E-01  8.50000000E-01  7.20000000E-01  7.20000000E-01
  7.20000000E-01  7.20000000E-01  7.20000000E-01  7.20000000E-01  7.20000000E-01
  7.20000000E-01  8.50000000E-01  7.20000000E-01  8.50000000E-01  7.20000000E-01
  8.50000000E-01  7.20000000E-01  8.50000000E-01  7.20000000E-01  7.20000000E-01
  8.50000000E-01  8.50000000E-01  8.50000000E-01  8.50000000E-01  7.90000000E-01
  7.90000000E-01  7.20000000E-01  8.50000000E-01  7.90000000E-01  7.20000000E-01
  8.50000000E-01  7.20000000E-01  7.20000000E-01  7.20000000E-01  7.20000000E-01
  8.50000000E-01  7.20000000E-01  7.20000000E-01  8.50000000E-01  7.20000000E-01
  7.20000000E-01  7.20000000E-01  7.20000000E-01  7.20000000E-01  7.20000000E-01
  7.20000000E-01  7.20000000E-01  7.20000000E-01  7.20000000E-01  7.20000000E-01
  7.20000000E-01  7.20000000E-01  8.50000000E-01  7.20000000E-01  8.50000000E-01
  8.50000000E-01  7.20000000E-01  8.50000000E-01  7.20000000E-01  7.20000000E-01
  8.50000000E-01  7.20000000E-01  8.50000000E-01  7.20000000E-01  8.50000000E-01
  7.20000000E-01  8.50000000E-01  7.20000000E-01  8.50000000E-01  7.20000000E-01
  8.50000000E-01  7.20000000E-01  8.50000000E-01  7.20000000E-01  8.50000000E-01
  7.20000000E-01  8.50000000E-01  8.50000000E-01  7.20000000E-01  8.50000000E-01
  8.50000000E-01  8.50000000E-01  7.20000000E-01  8.50000000E-01  7.20000000E-01
  8.50000000E-01  8.50000000E-01  7.20000000E-01  8.50000000E-01  8.50000000E-01
  7.20000000E-01  8.50000000E-01  8.50000000E-01  8.50000000E-01  8.50000000E-01
  8.50000000E-01  8.50000000E-01  8.50000000E-01  8.50000000E-01  7.20000000E-01
  7.20000000E-01  7.20000000E-01  7.20000000E-01  7.20000000E-01  7.20000000E-01
  8.50000000E-01  8.50000000E-01  8.50000000E-01  8.50000000E-01  8.50000000E-01
  8.50000000E-01  8.50000000E-01  8.50000000E-01  8.50000000E-01  8.50000000E-01
  8.50000000E-01  8.50000000E-01  8.50000000E-01  8.50000000E-01  8.50000000E-01
  8.50000000E-01  8.50000000E-01  8.50000000E-01  8.50000000E-01  7.20000000E-01
  7.20000000E-01  7.20000000E-01  7.20000000E-01  8.50000000E-01  8.50000000E-01
  8.50000000E-01  7.20000000E-01  8.50000000E-01  7.20000000E-01  8.50000000E-01
  7.20000000E-01  8.50000000E-01  8.50000000E-01  7.90000000E-01  7.20000000E-01
  7.20000000E-01  7.20000000E-01  7.20000000E-01  7.20000000E-01  7.20000000E-01
  7.20000000E-01  8.50000000E-01  7.20000000E-01  8.50000000E-01  7.20000000E-01
  8.50000000E-01  7.20000000E-01  8.50000000E-01  7.20000000E-01  7.20000000E-01
  8.50000000E-01  7.20000000E-01  8.50000000E-01  8.50000000E-01  7.20000000E-01
  7.20000000E-01  7.20000000E-01  7.20000000E-01  8.50000000E-01  7.20000000E-01
  7.20000000E-01  7.20000000E-01  7.20000000E-01  7.20000000E-01  7.20000000E-01
  7.20000000E-01  7.20000000E-01  8.50000000E-01  7.20000000E-01  8.50000000E-01
  7.20000000E-01  8.50000000E-01  7.20000000E-01  8.50000000E-01  7.20000000E-01
  7.20000000E-01  8.50000000E-01  8.50000000E-01  8.50000000E-01  8.50000000E-01
  7.90000000E-01  7.90000000E-01  7.20000000E-01  8.50000000E-01  7.90000000E-01
  7.20000000E-01  8.50000000E-01  7.20000000E-01  7.20000000E-01  7.20000000E-01
  7.20000000E-01  8.50000000E-01  7.20000000E-01  7.20000000E-01  8.50000000E-01
  7.20000000E-01  7.20000000E-01  7.20000000E-01  7.20000000E-01  7.20000000E-01
  7.20000000E-01  7.20000000E-01  7.20000000E-01  7.20000000E-01  7.20000000E-01
  7.20000000E-01  7.20000000E-01  7.20000000E-01  8.50000000E-01  7.20000000E-01
  8.50000000E-01  8.50000000E-01  7.20000000E-01  8.50000000E-01  7.20000000E-01
  7.20000000E-01  8.50000000E-01  7.20000000E-01  8.50000000E-01  7.20000000E-01
  8.50000000E-01  7.20000000E-01  8.50000000E-01  7.20000000E-01  8.50000000E-01
  7.20000000E-01  8.50000000E-01  7.20000000E-01  8.50000000E-01  7.20000000E-01
  8.50000000E-01  7.20000000E-01  8.50000000E-01  8.50000000E-01  7.20000000E-01
  8.50000000E-01  8.50000000E-01  8.50000000E-01  7.20000000E-01  8.50000000E-01
  7.20000000E-01  8.50000000E-01  8.50000000E-01  7.20000000E-01  8.50000000E-01
  8.50000000E-01  7.20000000E-01  8.50000000E-01  8.50000000E-01  8.50000000E-01
  8.50000000E-01  8.50000000E-01  8.50000000E-01  8.50000000E-01  8.50000000E-01
  7.20000000E-01  7.20000000E-01  7.20000000E-01  7.20000000E-01  7.20000000E-01
  7.20000000E-01  8.50000000E-01  8.50000000E-01  8.50000000E-01  8.50000000E-01
  8.50000000E-01  8.50000000E-01  8.50000000E-01  8.50000000E-01  8.50000000E-01
  8.50000000E-01  8.50000000E-01  8.50000000E-01  8.50000000E-01  8.50000000E-01
  8.50000000E-01  8.50000000E-01  8.50000000E-01  8.50000000E-01  8.50000000E-01
  7.20000000E-01  7.20000000E-01  7.20000000E-01  7.20000000E-01  8.50000000E-01
  8.50000000E-01  8.50000000E-01  7.20000000E-01  8.50000000E-01  7.20000000E-01
  8.50000000E-01  7.20000000E-01  8.50000000E-01  8.50000000E-01  7.90000000E-01
  7.20000000E-01  7.20000000E-01  7.20000000E-01  7.20000000E-01  7.20000000E-01
  7.20000000E-01  7.20000000E-01  8.50000000E-01  7.20000000E-01  8.50000000E-01
  7.20000000E-01  8.50000000E-01  7.20000000E-01  8.50000000E-01  7.20000000E-01
  7.20000000E-01  8.50000000E-01  7.20000000E-01  8.50000000E-01  8.50000000E-01
  7.20000000E-01  7.20000000E-01  7.20000000E-01  7.20000000E-01  8.50000000E-01
  7.20000000E-01  7.20000000E-01  7.20000000E-01  7.20000000E-01  7.20000000E-01
  7.20000000E-01  7.20000000E-01  7.20000000E-01  8.50000000E-01  7.20000000E-01
  8.50000000E-01  7.20000000E-01  8.50000000E-01  7.20000000E-01  8.50000000E-01
  7.20000000E-01  7.20000000E-01  8.50000000E-01  8.50000000E-01  8.50000000E-01
  8.50000000E-01  7.90000000E-01  7.90000000E-01  7.20000000E-01  8.50000000E-01
  7.90000000E-01  7.20000000E-01  8.50000000E-01  7.20000000E-01  7.20000000E-01
  7.20000000E-01  7.20000000E-01  8.50000000E-01  7.20000000E-01  7.20000000E-01
  8.50000000E-01  7.20000000E-01  7.20000000E-01  7.20000000E-01  7.20000000E-01
  7.20000000E-01  7.20000000E-01  7.20000000E-01  7.20000000E-01  7.20000000E-01
  7.20000000E-01  7.20000000E-01  7.20000000E-01  7.20000000E-01  8.50000000E-01
  7.20000000E-01  8.50000000E-01  8.50000000E-01  7.20000000E-01  8.50000000E-01
  7.20000000E-01  7.20000000E-01  8.50000000E-01  7.20000000E-01  8.50000000E-01
  7.20000000E-01  8.50000000E-01  7.20000000E-01  8.50000000E-01  7.20000000E-01
  8.50000000E-01  7.20000000E-01  8.50000000E-01  7.20000000E-01  8.50000000E-01
  7.20000000E-01  8.50000000E-01  7.20000000E-01  8.50000000E-01  8.50000000E-01
  7.20000000E-01  8.50000000E-01  8.50000000E-01  8.50000000E-01  7.20000000E-01
  8.50000000E-01  7.20000000E-01  8.50000000E-01  8.50000000E-01  7.20000000E-01
  8.50000000E-01  8.50000000E-01  7.20000000E-01  8.50000000E-01  8.50000000E-01
  8.50000000E-01  8.50000000E-01  8.50000000E-01  8.50000000E-01  8.50000000E-01
  8.50000000E-01  7.20000000E-01  7.20000000E-01  7.20000000E-01  7.20000000E-01
  7.20000000E-01  7.20000000E-01  8.50000000E-01  8.50000000E-01  8.50000000E-01
  8.50000000E-01  8.50000000E-01  8.50000000E-01  8.50000000E-01  8.50000000E-01
  8.50000000E-01  8.50000000E-01  8.50000000E-01  8.50000000E-01  8.50000000E-01
  8.50000000E-01  8.50000000E-01  8.50000000E-01  8.50000000E-01  8.50000000E-01
  8.50000000E-01  7.20000000E-01  7.20000000E-01  7.20000000E-01  7.20000000E-01
  8.50000000E-01  8.50000000E-01  8.50000000E-01  7.20000000E-01  8.50000000E-01
  7.20000000E-01  8.50000000E-01  7.20000000E-01  8.50000000E-01  8.50000000E-01
  7.90000000E-01  7.20000000E-01  7.20000000E-01  7.20000000E-01  7.20000000E-01
  7.20000000E-01  7.20000000E-01  7.20000000E-01  8.50000000E-01  7.20000000E-01
  8.50000000E-01  7.20000000E-01  8.50000000E-01  7.20000000E-01  8.50000000E-01
  7.20000000E-01  7.20000000E-01  8.50000000E-01  7.20000000E-01  8.50000000E-01
  8.50000000E-01  7.20000000E-01  7.20000000E-01  7.20000000E-01  7.20000000E-01
  8.50000000E-01  7.20000000E-01  7.20000000E-01  7.20000000E-01  7.20000000E-01
  7.20000000E-01  7.20000000E-01  7.20000000E-01  7.20000000E-01  8.50000000E-01
  7.20000000E-01  8.50000000E-01  7.20000000E-01  8.50000000E-01  7.20000000E-01
  8.50000000E-01  7.20000000E-01  7.20000000E-01  8.50000000E-01  8.50000000E-01
  8.50000000E-01  8.50000000E-01  7.90000000E-01  7.90000000E-01  7.20000000E-01
  8.50000000E-01  7.90000000E-01  7.20000000E-01  8.50000000E-01  7.20000000E-01
  7.20000000E-01  7.20000000E-01  7.20000000E-01  8.50000000E-01  7.20000000E-01
  7.20000000E-01  8.50000000E-01  7.20000000E-01  7.20000000E-01  7.20000000E-01
  7.20000000E-01  7.20000000E-01  7.20000000E-01  7.20000000E-01  7.20000000E-01
  7.20000000E-01  7.20000000E-01  7.20000000E-01  7.20000000E-01  7.20000000E-01
  8.50000000E-01  7.20000000E-01  8.50000000E-01  8.50000000E-01  7.20000000E-01
  8.50000000E-01  7.20000000E-01  7.20000000E-01  8.50000000E-01  7.20000000E-01
  8.50000000E-01  7.20000000E-01  8.50000000E-01  7.20000000E-01  8.50000000E-01
  7.20000000E-01  8.50000000E-01  7.20000000E-01  8.50000000E-01  7.20000000E-01
  8.50000000E-01  7.20000000E-01  8.50000000E-01  7.20000000E-01  8.50000000E-01
  8.50000000E-01  7.20000000E-01  8.50000000E-01  8.50000000E-01  8.50000000E-01
  7.20000000E-01  8.50000000E-01  7.20000000E-01  8.50000000E-01  8.50000000E-01
  7.20000000E-01  8.50000000E-01  8.50000000E-01  7.20000000E-01  8.50000000E-01
  8.50000000E-01  8.50000000E-01  8.50000000E-01  8.50000000E-01  8.50000000E-01
  8.50000000E-01  8.50000000E-01  7.20000000E-01  7.20000000E-01  7.20000000E-01
  7.20000000E-01  7.20000000E-01  7.20000000E-01  8.50000000E-01  8.50000000E-01
  8.50000000E-01  8.50000000E-01  8.50000000E-01  8.50000000E-01  8.50000000E-01
  8.50000000E-01  8.50000000E-01  8.50000000E-01  8.50000000E-01  8.50000000E-01
  8.50000000E-01  8.50000000E-01  8.50000000E-01  8.50000000E-01  8.50000000E-01
  8.50000000E-01  8.50000000E-01  7.20000000E-01  7.20000000E-01  7.20000000E-01
  7.20000000E-01  8.50000000E-01  8.50000000E-01  8.50000000E-01  7.20000000E-01
  8.50000000E-01  7.20000000E-01  8.50000000E-01  7.20000000E-01  8.50000000E-01
  8.50000000E-01  7.90000000E-01  7.20000000E-01  7.20000000E-01  7.20000000E-01
  7.20000000E-01  7.20000000E-01  7.20000000E-01  7.20000000E-01  8.50000000E-01
  7.20000000E-01  8.50000000E-01  7.20000000E-01  8.50000000E-01  7.20000000E-01
  8.50000000E-01  7.20000000E-01  7.20000000E-01  8.50000000E-01  7.20000000E-01
  8.50000000E-01  8.50000000E-01  7.20000000E-01  7.20000000E-01  7.20000000E-01
  7.20000000E-01  8.50000000E-01  7.20000000E-01  7.20000000E-01  7.20000000E-01
  7.20000000E-01  7.20000000E-01  7.20000000E-01  7.20000000E-01  7.20000000E-01
  8.50000000E-01  7.20000000E-01  8.50000000E-01  7.20000000E-01  8.50000000E-01
  7.20000000E-01  8.50000000E-01  7.20000000E-01  7.20000000E-01  8.50000000E-01
  8.50000000E-01  8.50000000E-01  8.50000000E-01  7.90000000E-01  7.90000000E-01
  7.20000000E-01  8.50000000E-01  7.90000000E-01  7.20000000E-01  8.50000000E-01
  7.20000000E-01  7.20000000E-01  7.20000000E-01  7.20000000E-01  8.50000000E-01
  7.20000000E-01  7.20000000E-01  8.50000000E-01  7.20000000E-01  7.20000000E-01
  7.20000000E-01  7.20000000E-01  7.20000000E-01  7.20000000E-01  7.20000000E-01
  7.20000000E-01  7.20000000E-01  7.20000000E-01  7.20000000E-01  7.20000000E-01
  7.20000000E-01  8.50000000E-01  7.20000000E-01  8.50000000E-01  8.50000000E-01
  7.20000000E-01  8.50000000E-01  7.20000000E-01  7.20000000E-01  8.50000000E-01
  7.20000000E-01  8.50000000E-01  7.20000000E-01  8.50000000E-01  7.20000000E-01
  8.50000000E-01  7.20000000E-01  8.50000000E-01  7.20000000E-01  8.50000000E-01
  7.20000000E-01  8.50000000E-01  7.20000000E-01  8.50000000E-01  7.20000000E-01
  8.50000000E-01  8.50000000E-01  7.20000000E-01  8.50000000E-01  8.50000000E-01
  8.50000000E-01  7.20000000E-01  8.50000000E-01  7.20000000E-01  8.50000000E-01
  8.50000000E-01  7.20000000E-01  8.50000000E-01  8.50000000E-01  7.20000000E-01
  8.50000000E-01  8.50000000E-01  8.50000000E-01  8.50000000E-01  8.50000000E-01
  8.50000000E-01  8.50000000E-01  8.50000000E-01  7.20000000E-01  7.20000000E-01
  7.20000000E-01  7.20000000E-01  7.20000000E-01  7.20000000E-01  8.50000000E-01
  8.50000000E-01  8.50000000E-01  8.50000000E-01  8.50000000E-01  8.50000000E-01
  8.50000000E-01  8.50000000E-01  8.50000000E-01  8.50000000E-01  8.50000000E-01
  8.50000000E-01  8.50000000E-01  8.50000000E-01  8.50000000E-01  8.50000000E-01
  8.50000000E-01  8.50000000E-01  8.50000000E-01  7.20000000E-01  7.20000000E-01
  7.20000000E-01  7.20000000E-01  8.50000000E-01  8.50000000E-01  8.50000000E-01
  7.20000000E-01  8.50000000E-01  7.20000000E-01  8.50000000E-01  7.20000000E-01
  8.50000000E-01  8.50000000E-01  7.90000000E-01  7.20000000E-01  7.20000000E-01
  7.20000000E-01  7.20000000E-01  7.20000000E-01  7.20000000E-01  7.20000000E-01
  8.50000000E-01  7.20000000E-01  8.50000000E-01  7.20000000E-01  8.50000000E-01
  7.20000000E-01  8.50000000E-01  7.20000000E-01  7.20000000E-01  8.50000000E-01
  7.20000000E-01  8.50000000E-01  8.50000000E-01  7.20000000E-01  7.20000000E-01
  7.20000000E-01  7.20000000E-01  8.50000000E-01  7.20000000E-01  7.20000000E-01
  7.20000000E-01  7.20000000E-01  7.20000000E-01  7.20000000E-01  7.20000000E-01
  7.20000000E-01  8.50000000E-01  7.20000000E-01  8.50000000E-01  7.20000000E-01
  8.50000000E-01  7.20000000E-01  8.50000000E-01  7.20000000E-01  7.20000000E-01
  8.50000000E-01  8.50000000E-01  8.50000000E-01  8.50000000E-01  7.90000000E-01
  7.90000000E-01  7.20000000E-01  8.50000000E-01  7.90000000E-01  7.20000000E-01
  8.50000000E-01  7.20000000E-01  7.20000000E-01  7.20000000E-01  7.20000000E-01
  8.50000000E-01  7.20000000E-01  7.20000000E-01  8.50000000E-01  7.20000000E-01
  7.20000000E-01  7.20000000E-01  7.20000000E-01  7.20000000E-01  7.20000000E-01
  7.20000000E-01  7.20000000E-01  7.20000000E-01  7.20000000E-01  7.20000000E-01
  7.20000000E-01  7.20000000E-01  8.50000000E-01  7.20000000E-01  8.50000000E-01
  8.50000000E-01  7.20000000E-01  8.50000000E-01  7.20000000E-01  7.20000000E-01
  8.50000000E-01  7.20000000E-01  8.50000000E-01  7.20000000E-01  8.50000000E-01
  7.20000000E-01  8.50000000E-01  7.20000000E-01  8.50000000E-01  7.20000000E-01
  8.50000000E-01  7.20000000E-01  8.50000000E-01  7.20000000E-01  8.50000000E-01
  7.20000000E-01  8.50000000E-01  8.50000000E-01  7.20000000E-01  8.50000000E-01
  8.50000000E-01  8.50000000E-01  7.20000000E-01  8.50000000E-01  7.20000000E-01
  8.50000000E-01  8.50000000E-01  7.20000000E-01  8.50000000E-01  8.50000000E-01
  7.20000000E-01  8.50000000E-01  8.50000000E-01  8.50000000E-01  8.50000000E-01
  8.50000000E-01  8.50000000E-01  8.50000000E-01  8.50000000E-01  7.20000000E-01
  7.20000000E-01  7.20000000E-01  7.20000000E-01  7.20000000E-01  7.20000000E-01
  8.50000000E-01  8.50000000E-01  8.50000000E-01  8.50000000E-01  8.50000000E-01
  8.50000000E-01  8.50000000E-01  8.50000000E-01  8.50000000E-01  8.50000000E-01
  8.50000000E-01  8.50000000E-01  8.50000000E-01  8.50000000E-01  8.50000000E-01
  8.50000000E-01  8.50000000E-01  8.50000000E-01  8.50000000E-01  7.20000000E-01
  7.20000000E-01  7.20000000E-01  7.20000000E-01  8.50000000E-01  8.50000000E-01
  8.50000000E-01  7.20000000E-01  8.50000000E-01  7.20000000E-01  8.50000000E-01
  7.20000000E-01  8.50000000E-01  8.50000000E-01  7.90000000E-01  7.20000000E-01
  7.20000000E-01  7.20000000E-01  7.20000000E-01  7.20000000E-01  7.20000000E-01
  7.20000000E-01  8.50000000E-01  7.20000000E-01  8.50000000E-01  7.20000000E-01
  8.50000000E-01  7.20000000E-01  8.50000000E-01  7.20000000E-01  7.20000000E-01
  8.50000000E-01  7.20000000E-01  8.50000000E-01  8.50000000E-01  7.20000000E-01
  7.20000000E-01  7.20000000E-01  7.20000000E-01  8.50000000E-01  7.20000000E-01
  7.20000000E-01  7.20000000E-01  7.20000000E-01  7.20000000E-01  7.20000000E-01
  7.20000000E-01  7.20000000E-01  8.50000000E-01  7.20000000E-01  8.50000000E-01
  7.20000000E-01  8.50000000E-01  7.20000000E-01  8.50000000E-01  7.20000000E-01
  7.20000000E-01  8.50000000E-01  8.50000000E-01  8.50000000E-01  8.50000000E-01
  7.90000000E-01  7.90000000E-01  7.20000000E-01  8.50000000E-01  7.90000000E-01
  7.20000000E-01  8.50000000E-01  7.20000000E-01  7.20000000E-01  7.20000000E-01
  7.20000000E-01  8.50000000E-01  7.20000000E-01  7.20000000E-01  8.50000000E-01
  7.20000000E-01  7.20000000E-01  7.20000000E-01  7.20000000E-01  7.20000000E-01
  7.20000000E-01  7.20000000E-01  7.20000000E-01  7.20000000E-01  7.20000000E-01
  7.20000000E-01  7.20000000E-01  7.20000000E-01  8.50000000E-01  7.20000000E-01
  8.50000000E-01  8.50000000E-01  7.20000000E-01  8.50000000E-01  7.20000000E-01
  7.20000000E-01  8.50000000E-01  7.20000000E-01  8.50000000E-01  7.20000000E-01
  8.50000000E-01  7.20000000E-01  8.50000000E-01  7.20000000E-01  8.50000000E-01
  7.20000000E-01  8.50000000E-01  7.20000000E-01  8.50000000E-01  7.20000000E-01
  8.50000000E-01  7.20000000E-01  8.50000000E-01  8.50000000E-01  7.20000000E-01
  8.50000000E-01  8.50000000E-01  8.50000000E-01  7.20000000E-01  8.50000000E-01
  7.20000000E-01  8.50000000E-01  8.50000000E-01  7.20000000E-01  8.50000000E-01
  8.50000000E-01  7.20000000E-01  8.50000000E-01  8.50000000E-01  8.50000000E-01
  8.50000000E-01  8.50000000E-01  8.50000000E-01  8.50000000E-01  8.50000000E-01
  7.20000000E-01  7.20000000E-01  7.20000000E-01  7.20000000E-01  7.20000000E-01
  7.20000000E-01  8.50000000E-01  8.50000000E-01  8.50000000E-01  8.50000000E-01
  8.50000000E-01  8.50000000E-01  8.50000000E-01  8.50000000E-01  8.50000000E-01
  8.50000000E-01  8.50000000E-01  8.50000000E-01  8.50000000E-01  8.50000000E-01
  8.50000000E-01  8.50000000E-01  8.50000000E-01  8.50000000E-01  8.50000000E-01
  7.20000000E-01  7.20000000E-01  7.20000000E-01  7.20000000E-01  8.50000000E-01
  8.50000000E-01  8.50000000E-01  7.20000000E-01  8.50000000E-01  7.20000000E-01
  8.50000000E-01  7.20000000E-01  8.50000000E-01  8.50000000E-01  7.90000000E-01
  7.20000000E-01  7.20000000E-01  7.20000000E-01  7.20000000E-01  7.20000000E-01
  7.20000000E-01  7.20000000E-01  8.50000000E-01  7.20000000E-01  8.50000000E-01
  7.20000000E-01  8.50000000E-01  7.20000000E-01  8.50000000E-01  7.20000000E-01
  7.20000000E-01  8.50000000E-01  7.20000000E-01  8.50000000E-01  8.50000000E-01
  7.20000000E-01  7.20000000E-01  7.20000000E-01  7.20000000E-01  8.50000000E-01
  7.20000000E-01  7.20000000E-01  7.20000000E-01  7.20000000E-01  7.20000000E-01
  7.20000000E-01  7.20000000E-01  7.20000000E-01  8.50000000E-01  7.20000000E-01
  8.50000000E-01  7.20000000E-01  8.50000000E-01  7.20000000E-01  8.50000000E-01
  7.20000000E-01  7.20000000E-01  8.50000000E-01  8.50000000E-01  8.50000000E-01
  8.50000000E-01  7.90000000E-01  7.90000000E-01  7.20000000E-01  8.50000000E-01
  7.90000000E-01  7.20000000E-01  8.50000000E-01  7.20000000E-01  7.20000000E-01
  7.20000000E-01  7.20000000E-01  8.50000000E-01  7.20000000E-01  7.20000000E-01
  8.50000000E-01  7.20000000E-01  7.20000000E-01  7.20000000E-01  7.20000000E-01
  7.20000000E-01  7.20000000E-01  7.20000000E-01  7.20000000E-01  7.20000000E-01
  7.20000000E-01  7.20000000E-01  7.20000000E-01  7.20000000E-01  8.50000000E-01
  7.20000000E-01  8.50000000E-01  8.50000000E-01  7.20000000E-01  8.50000000E-01
  7.20000000E-01  7.20000000E-01  8.50000000E-01  7.20000000E-01  8.50000000E-01
  7.20000000E-01  8.50000000E-01  7.20000000E-01  8.50000000E-01  7.20000000E-01
  8.50000000E-01  7.20000000E-01  8.50000000E-01  7.20000000E-01  8.50000000E-01
  7.20000000E-01  8.50000000E-01  7.20000000E-01  8.50000000E-01  8.50000000E-01
  7.20000000E-01  8.50000000E-01  8.50000000E-01  8.50000000E-01  7.20000000E-01
  8.50000000E-01  7.20000000E-01  8.50000000E-01  8.50000000E-01  7.20000000E-01
  8.50000000E-01  8.50000000E-01  7.20000000E-01  8.50000000E-01  8.50000000E-01
  8.50000000E-01  8.50000000E-01  8.50000000E-01  8.50000000E-01  8.50000000E-01
  8.50000000E-01  7.20000000E-01  7.20000000E-01  7.20000000E-01  7.20000000E-01
  7.20000000E-01  7.20000000E-01  8.50000000E-01  8.50000000E-01  8.50000000E-01
  8.50000000E-01  8.50000000E-01  8.50000000E-01  8.50000000E-01  8.50000000E-01
  8.50000000E-01  8.50000000E-01  8.50000000E-01  8.50000000E-01  8.50000000E-01
  8.50000000E-01  8.50000000E-01  8.50000000E-01  8.50000000E-01  8.50000000E-01
  8.50000000E-01  7.20000000E-01  7.20000000E-01  7.20000000E-01  7.20000000E-01
  8.50000000E-01  8.50000000E-01  8.50000000E-01  7.20000000E-01  8.50000000E-01
  7.20000000E-01  8.50000000E-01  7.20000000E-01  8.50000000E-01  8.50000000E-01
  7.90000000E-01  7.20000000E-01  7.20000000E-01  7.20000000E-01  7.20000000E-01
  7.20000000E-01  7.20000000E-01  7.20000000E-01  8.50000000E-01  7.20000000E-01
  8.50000000E-01  7.20000000E-01  8.50000000E-01  7.20000000E-01  8.50000000E-01
  7.20000000E-01  7.20000000E-01  8.50000000E-01  7.20000000E-01  8.50000000E-01
  8.50000000E-01  7.20000000E-01  7.20000000E-01  7.20000000E-01  7.20000000E-01
  8.50000000E-01  7.20000000E-01  7.20000000E-01  7.20000000E-01  7.20000000E-01
  7.20000000E-01  7.20000000E-01  7.20000000E-01  7.20000000E-01  8.50000000E-01
  7.20000000E-01  8.50000000E-01  7.20000000E-01  8.50000000E-01  7.20000000E-01
  8.50000000E-01  7.20000000E-01  7.20000000E-01  8.50000000E-01  8.50000000E-01
  8.50000000E-01  8.50000000E-01  7.90000000E-01  7.90000000E-01  7.20000000E-01
  8.50000000E-01  7.90000000E-01  7.20000000E-01  8.50000000E-01  7.20000000E-01
  7.20000000E-01  7.20000000E-01  7.20000000E-01  8.50000000E-01  7.20000000E-01
  7.20000000E-01  8.50000000E-01  7.20000000E-01  7.20000000E-01  7.20000000E-01
  7.20000000E-01  7.20000000E-01  7.20000000E-01  7.20000000E-01  7.20000000E-01
  7.20000000E-01  7.20000000E-01  7.20000000E-01  7.20000000E-01  7.20000000E-01
  8.50000000E-01  7.20000000E-01  8.50000000E-01  8.50000000E-01  7.20000000E-01
  8.50000000E-01  7.20000000E-01  7.20000000E-01  8.50000000E-01  7.20000000E-01
  8.50000000E-01  7.20000000E-01  8.50000000E-01  7.20000000E-01  8.50000000E-01
  7.20000000E-01  8.50000000E-01  7.20000000E-01  8.50000000E-01  7.20000000E-01
  8.50000000E-01  7.20000000E-01  8.50000000E-01  7.20000000E-01  8.50000000E-01
  8.50000000E-01  7.20000000E-01  8.50000000E-01  8.50000000E-01  8.50000000E-01
  7.20000000E-01  8.50000000E-01  7.20000000E-01  8.50000000E-01  8.50000000E-01
  7.20000000E-01  8.50000000E-01  8.50000000E-01  7.20000000E-01  8.50000000E-01
  8.50000000E-01  8.50000000E-01  8.50000000E-01  8.50000000E-01  8.50000000E-01
  8.50000000E-01  8.50000000E-01  7.20000000E-01  7.20000000E-01  7.20000000E-01
  7.20000000E-01  7.20000000E-01  7.20000000E-01  8.50000000E-01  8.50000000E-01
  8.50000000E-01  8.50000000E-01  8.50000000E-01  8.50000000E-01  8.50000000E-01
  8.50000000E-01  8.50000000E-01  8.50000000E-01  8.50000000E-01  8.50000000E-01
  8.50000000E-01  8.50000000E-01  8.50000000E-01  8.50000000E-01  8.50000000E-01
  8.50000000E-01  8.50000000E-01  7.20000000E-01  7.20000000E-01  7.20000000E-01
  7.20000000E-01  8.50000000E-01  8.50000000E-01  8.50000000E-01  7.20000000E-01
  8.50000000E-01  7.20000000E-01  8.50000000E-01  7.20000000E-01  8.50000000E-01
  8.50000000E-01  7.90000000E-01  7.20000000E-01  7.20000000E-01  7.20000000E-01
  7.20000000E-01  7.20000000E-01  7.20000000E-01  7.20000000E-01  8.50000000E-01
  7.20000000E-01  8.50000000E-01  7.20000000E-01  8.50000000E-01  7.20000000E-01
  8.50000000E-01  7.20000000E-01  7.20000000E-01  8.50000000E-01  7.20000000E-01
  8.50000000E-01  8.50000000E-01  7.20000000E-01  7.20000000E-01  7.20000000E-01
  7.20000000E-01  8.50000000E-01  7.20000000E-01  7.20000000E-01  7.20000000E-01
  7.20000000E-01  7.20000000E-01  7.20000000E-01  7.20000000E-01  7.20000000E-01
  8.50000000E-01  7.20000000E-01  8.50000000E-01  7.20000000E-01  8.50000000E-01
  7.20000000E-01  8.50000000E-01  7.20000000E-01  7.20000000E-01  8.50000000E-01
  8.50000000E-01  8.50000000E-01  8.50000000E-01  7.90000000E-01  7.90000000E-01
  7.20000000E-01  8.50000000E-01  7.90000000E-01  7.20000000E-01  8.50000000E-01
  7.20000000E-01  7.20000000E-01  7.20000000E-01  7.20000000E-01  8.50000000E-01
  7.20000000E-01  7.20000000E-01  8.50000000E-01  7.20000000E-01  7.20000000E-01
  7.20000000E-01  7.20000000E-01  7.20000000E-01  7.20000000E-01  7.20000000E-01
  7.20000000E-01  7.20000000E-01  7.20000000E-01  7.20000000E-01  7.20000000E-01
  7.20000000E-01  8.50000000E-01  7.20000000E-01  8.50000000E-01  8.50000000E-01
  7.20000000E-01  8.50000000E-01  7.20000000E-01  7.20000000E-01  8.50000000E-01
  7.20000000E-01  8.50000000E-01  7.20000000E-01  8.50000000E-01  7.20000000E-01
  8.50000000E-01  7.20000000E-01  8.50000000E-01  7.20000000E-01  8.50000000E-01
  7.20000000E-01  8.50000000E-01  7.20000000E-01  8.50000000E-01  7.20000000E-01
  8.50000000E-01  8.50000000E-01  7.20000000E-01  8.50000000E-01  8.50000000E-01
  8.50000000E-01  7.20000000E-01  8.50000000E-01  7.20000000E-01  8.50000000E-01
  8.50000000E-01  7.20000000E-01  8.50000000E-01  8.50000000E-01  7.20000000E-01
  8.50000000E-01  8.50000000E-01  8.50000000E-01  8.50000000E-01  8.50000000E-01
  8.50000000E-01  8.50000000E-01  8.50000000E-01  7.20000000E-01  7.20000000E-01
  7.20000000E-01  7.20000000E-01  7.20000000E-01  7.20000000E-01  8.50000000E-01
  8.50000000E-01  8.50000000E-01  8.50000000E-01  8.50000000E-01  8.50000000E-01
  8.50000000E-01  8.50000000E-01  8.50000000E-01  8.50000000E-01  8.50000000E-01
  8.50000000E-01  8.50000000E-01  8.50000000E-01  8.50000000E-01  8.50000000E-01
  8.50000000E-01  8.50000000E-01  8.50000000E-01  7.20000000E-01  7.20000000E-01
  7.20000000E-01  7.20000000E-01  8.50000000E-01  8.50000000E-01  8.50000000E-01
  7.20000000E-01  8.50000000E-01  7.20000000E-01  8.50000000E-01  7.20000000E-01
  8.50000000E-01  8.50000000E-01  7.90000000E-01  7.20000000E-01  7.20000000E-01
  7.20000000E-01  7.20000000E-01  7.20000000E-01  7.20000000E-01  7.20000000E-01
  8.50000000E-01  7.20000000E-01  8.50000000E-01  7.20000000E-01  8.50000000E-01
  7.20000000E-01  8.50000000E-01  7.20000000E-01  7.20000000E-01  8.50000000E-01
  7.20000000E-01  8.50000000E-01  8.50000000E-01  7.20000000E-01  7.20000000E-01
  7.20000000E-01  7.20000000E-01  8.50000000E-01  7.20000000E-01  7.20000000E-01
  7.20000000E-01  7.20000000E-01  7.20000000E-01  7.20000000E-01  7.20000000E-01
  7.20000000E-01  8.50000000E-01  7.20000000E-01  8.50000000E-01  7.20000000E-01
  8.50000000E-01  7.20000000E-01  8.50000000E-01  7.20000000E-01  7.20000000E-01
  8.50000000E-01  8.50000000E-01  8.50000000E-01  8.50000000E-01  7.90000000E-01
  7.90000000E-01  7.20000000E-01  8.50000000E-01  7.90000000E-01  7.20000000E-01
  8.50000000E-01  7.20000000E-01  7.20000000E-01  7.20000000E-01  7.20000000E-01
  8.50000000E-01  7.20000000E-01  7.20000000E-01  8.50000000E-01  7.20000000E-01
  7.20000000E-01  7.20000000E-01  7.20000000E-01  7.20000000E-01  7.20000000E-01
  7.20000000E-01  7.20000000E-01  7.20000000E-01  7.20000000E-01  7.20000000E-01
  7.20000000E-01  7.20000000E-01  8.50000000E-01  7.20000000E-01  8.50000000E-01
  8.50000000E-01  7.20000000E-01  8.50000000E-01  7.20000000E-01  7.20000000E-01
  8.50000000E-01  7.20000000E-01  8.50000000E-01  7.20000000E-01  8.50000000E-01
  7.20000000E-01  8.50000000E-01  7.20000000E-01  8.50000000E-01  7.20000000E-01
  8.50000000E-01  7.20000000E-01  8.50000000E-01  7.20000000E-01  8.50000000E-01
  7.20000000E-01  8.50000000E-01  8.50000000E-01  7.20000000E-01  8.50000000E-01
  8.50000000E-01  8.50000000E-01  7.20000000E-01  8.50000000E-01  7.20000000E-01
  8.50000000E-01  8.50000000E-01  7.20000000E-01  8.50000000E-01  8.50000000E-01
  7.20000000E-01  8.50000000E-01  8.50000000E-01  8.50000000E-01  8.50000000E-01
  8.50000000E-01  8.50000000E-01  8.50000000E-01  8.50000000E-01  7.20000000E-01
  7.20000000E-01  7.20000000E-01  7.20000000E-01  7.20000000E-01  7.20000000E-01
  8.50000000E-01  8.50000000E-01  8.50000000E-01  8.50000000E-01  8.50000000E-01
  8.50000000E-01  8.50000000E-01  8.50000000E-01  8.50000000E-01  8.50000000E-01
  8.50000000E-01  8.50000000E-01  8.50000000E-01  8.50000000E-01  8.50000000E-01
  8.50000000E-01  8.50000000E-01  8.50000000E-01  8.50000000E-01  7.20000000E-01
  7.20000000E-01  7.20000000E-01  7.20000000E-01  8.50000000E-01  8.50000000E-01
  8.50000000E-01  7.20000000E-01  8.50000000E-01  7.20000000E-01  8.50000000E-01
  7.20000000E-01  8.50000000E-01  8.50000000E-01  7.90000000E-01  7.20000000E-01
  7.20000000E-01  7.20000000E-01  7.20000000E-01  7.20000000E-01  7.20000000E-01
  7.20000000E-01  8.50000000E-01  7.20000000E-01  8.50000000E-01  7.20000000E-01
  8.50000000E-01  7.20000000E-01  8.50000000E-01  7.20000000E-01  7.20000000E-01
  8.50000000E-01  7.20000000E-01  8.50000000E-01  8.50000000E-01  7.20000000E-01
  7.20000000E-01  7.20000000E-01  7.20000000E-01  8.50000000E-01  7.20000000E-01
  7.20000000E-01  7.20000000E-01  7.20000000E-01  7.20000000E-01  7.20000000E-01
  7.20000000E-01  7.20000000E-01  8.50000000E-01  7.20000000E-01  8.50000000E-01
  7.20000000E-01  8.50000000E-01  7.20000000E-01  8.50000000E-01  7.20000000E-01
  7.20000000E-01  8.50000000E-01  8.50000000E-01  8.50000000E-01  8.50000000E-01
  7.90000000E-01  7.90000000E-01  7.20000000E-01  8.50000000E-01  7.90000000E-01
  7.20000000E-01  8.50000000E-01  7.20000000E-01  7.20000000E-01  7.20000000E-01
  7.20000000E-01  8.50000000E-01  7.20000000E-01  7.20000000E-01  8.50000000E-01
  7.20000000E-01  7.20000000E-01  7.20000000E-01  7.20000000E-01  7.20000000E-01
  7.20000000E-01  7.20000000E-01  7.20000000E-01  7.20000000E-01  7.20000000E-01
  7.20000000E-01  7.20000000E-01  7.20000000E-01  8.50000000E-01  7.20000000E-01
  8.50000000E-01  8.50000000E-01  7.20000000E-01  8.50000000E-01  7.20000000E-01
  7.20000000E-01  8.50000000E-01  7.20000000E-01  8.50000000E-01  7.20000000E-01
  8.50000000E-01  7.20000000E-01  8.50000000E-01  7.20000000E-01  8.50000000E-01
  7.20000000E-01  8.50000000E-01  7.20000000E-01  8.50000000E-01  7.20000000E-01
  8.50000000E-01  7.20000000E-01  8.50000000E-01  8.50000000E-01  7.20000000E-01
  8.50000000E-01  8.50000000E-01  8.50000000E-01  7.20000000E-01  8.50000000E-01
  7.20000000E-01  8.50000000E-01  8.50000000E-01  7.20000000E-01  8.50000000E-01
  8.50000000E-01  7.20000000E-01  8.50000000E-01  8.50000000E-01  8.50000000E-01
  8.50000000E-01  8.50000000E-01  8.50000000E-01  8.50000000E-01  8.50000000E-01
  7.20000000E-01  7.20000000E-01  7.20000000E-01  7.20000000E-01  7.20000000E-01
  7.20000000E-01  8.50000000E-01  8.50000000E-01  8.50000000E-01  8.50000000E-01
  8.50000000E-01  8.50000000E-01  8.50000000E-01  8.50000000E-01  8.50000000E-01
  8.50000000E-01  8.50000000E-01  8.50000000E-01  8.50000000E-01  8.50000000E-01
  8.50000000E-01  8.50000000E-01  8.50000000E-01  8.50000000E-01  8.50000000E-01
  7.20000000E-01  7.20000000E-01  7.20000000E-01  7.20000000E-01  8.50000000E-01
  8.50000000E-01  8.50000000E-01  7.20000000E-01  8.50000000E-01  7.20000000E-01
  8.50000000E-01  7.20000000E-01  8.50000000E-01  8.50000000E-01  7.90000000E-01
  7.20000000E-01  7.20000000E-01  7.20000000E-01  7.20000000E-01  7.20000000E-01
  7.20000000E-01  7.20000000E-01  8.50000000E-01  7.20000000E-01  8.50000000E-01
  7.20000000E-01  8.50000000E-01  7.20000000E-01  8.50000000E-01  7.20000000E-01
  7.20000000E-01  8.50000000E-01  7.20000000E-01  8.50000000E-01  8.50000000E-01
  7.20000000E-01  7.20000000E-01  7.20000000E-01  7.20000000E-01  8.50000000E-01
  7.20000000E-01  7.20000000E-01  7.20000000E-01  7.20000000E-01  7.20000000E-01
  7.20000000E-01  7.20000000E-01  7.20000000E-01  8.50000000E-01  7.20000000E-01
  8.50000000E-01  7.20000000E-01  8.50000000E-01  7.20000000E-01  8.50000000E-01
  7.20000000E-01  7.20000000E-01  8.50000000E-01  8.50000000E-01  8.50000000E-01
  8.50000000E-01  7.90000000E-01  7.90000000E-01  7.20000000E-01  8.50000000E-01
  7.90000000E-01  7.20000000E-01  8.50000000E-01  7.20000000E-01  7.20000000E-01
  7.20000000E-01  7.20000000E-01  8.50000000E-01  7.20000000E-01  7.20000000E-01
  8.50000000E-01  7.20000000E-01  7.20000000E-01  7.20000000E-01  7.20000000E-01
  7.20000000E-01  7.20000000E-01  7.20000000E-01  7.20000000E-01  7.20000000E-01
  7.20000000E-01  7.20000000E-01  7.20000000E-01  7.20000000E-01  8.50000000E-01
  7.20000000E-01  8.50000000E-01  8.50000000E-01  7.20000000E-01  8.50000000E-01
  7.20000000E-01  7.20000000E-01  8.50000000E-01  7.20000000E-01  8.50000000E-01
  7.20000000E-01  8.50000000E-01  7.20000000E-01  8.50000000E-01  7.20000000E-01
  8.50000000E-01  7.20000000E-01  8.50000000E-01  7.20000000E-01  8.50000000E-01
  7.20000000E-01  8.50000000E-01  7.20000000E-01  8.50000000E-01  8.50000000E-01
  7.20000000E-01  8.50000000E-01  8.50000000E-01  8.50000000E-01  7.20000000E-01
  8.50000000E-01  7.20000000E-01  8.50000000E-01  8.50000000E-01  7.20000000E-01
  8.50000000E-01  8.50000000E-01  7.20000000E-01  8.50000000E-01  8.50000000E-01
  8.50000000E-01  8.50000000E-01  8.50000000E-01  8.50000000E-01  8.50000000E-01
  8.50000000E-01  7.20000000E-01  7.20000000E-01  7.20000000E-01  7.20000000E-01
  7.20000000E-01  7.20000000E-01  8.50000000E-01  8.50000000E-01  8.50000000E-01
  8.50000000E-01  8.50000000E-01  8.50000000E-01  8.50000000E-01  8.50000000E-01
  8.50000000E-01  8.50000000E-01  8.50000000E-01  8.50000000E-01  8.50000000E-01
  8.50000000E-01  8.50000000E-01  8.50000000E-01  8.50000000E-01  8.50000000E-01
  8.50000000E-01  7.20000000E-01  7.20000000E-01  7.20000000E-01  7.20000000E-01
  8.50000000E-01  8.50000000E-01  8.50000000E-01  7.20000000E-01  8.50000000E-01
  7.20000000E-01  8.50000000E-01  7.20000000E-01  8.50000000E-01  8.50000000E-01
  7.90000000E-01  7.20000000E-01  7.20000000E-01  7.20000000E-01  7.20000000E-01
  7.20000000E-01  7.20000000E-01  7.20000000E-01  8.50000000E-01  7.20000000E-01
  8.50000000E-01  7.20000000E-01  8.50000000E-01  7.20000000E-01  8.50000000E-01
  7.20000000E-01  7.20000000E-01  8.50000000E-01  7.20000000E-01  8.50000000E-01
  8.50000000E-01  7.20000000E-01  7.20000000E-01  7.20000000E-01  7.20000000E-01
  8.50000000E-01  7.20000000E-01  7.20000000E-01  7.20000000E-01  7.20000000E-01
  7.20000000E-01  7.20000000E-01  7.20000000E-01  7.20000000E-01  8.50000000E-01
  7.20000000E-01  8.50000000E-01  7.20000000E-01  8.50000000E-01  7.20000000E-01
  8.50000000E-01  7.20000000E-01  7.20000000E-01  8.50000000E-01  8.50000000E-01
  8.50000000E-01  8.50000000E-01  7.90000000E-01  7.90000000E-01  7.20000000E-01
  8.50000000E-01  7.90000000E-01  7.20000000E-01  8.50000000E-01  7.20000000E-01
  7.20000000E-01  7.20000000E-01  7.20000000E-01  8.50000000E-01  7.20000000E-01
  7.20000000E-01  8.50000000E-01  7.20000000E-01  7.20000000E-01  7.20000000E-01
  7.20000000E-01  7.20000000E-01  7.20000000E-01  7.20000000E-01  7.20000000E-01
  7.20000000E-01  7.20000000E-01  7.20000000E-01  7.20000000E-01  7.20000000E-01
  8.50000000E-01  7.20000000E-01  8.50000000E-01  8.50000000E-01  7.20000000E-01
  8.50000000E-01  7.20000000E-01  7.20000000E-01  8.50000000E-01  7.20000000E-01
  8.50000000E-01  7.20000000E-01  8.50000000E-01  7.20000000E-01  8.50000000E-01
  7.20000000E-01  8.50000000E-01  7.20000000E-01  8.50000000E-01  7.20000000E-01
  8.50000000E-01  7.20000000E-01  8.50000000E-01  7.20000000E-01  8.50000000E-01
  8.50000000E-01  7.20000000E-01  8.50000000E-01  8.50000000E-01  8.50000000E-01
  7.20000000E-01  8.50000000E-01  7.20000000E-01  8.50000000E-01  8.50000000E-01
  7.20000000E-01  8.50000000E-01  8.50000000E-01  7.20000000E-01  8.50000000E-01
  8.50000000E-01  8.50000000E-01  8.50000000E-01  8.50000000E-01  8.50000000E-01
  8.50000000E-01  8.50000000E-01  7.20000000E-01  7.20000000E-01  7.20000000E-01
  7.20000000E-01  7.20000000E-01  7.20000000E-01  8.50000000E-01  8.50000000E-01
  8.50000000E-01  8.50000000E-01  8.50000000E-01  8.50000000E-01  8.50000000E-01
  8.50000000E-01  8.50000000E-01  8.50000000E-01  8.50000000E-01  8.50000000E-01
  8.50000000E-01  8.50000000E-01  8.50000000E-01  8.50000000E-01  8.50000000E-01
  8.50000000E-01  8.50000000E-01  7.20000000E-01  7.20000000E-01  7.20000000E-01
  7.20000000E-01  8.50000000E-01  8.50000000E-01  8.50000000E-01  7.20000000E-01
  8.50000000E-01  7.20000000E-01  8.50000000E-01  7.20000000E-01  8.50000000E-01
  8.50000000E-01  7.90000000E-01  7.20000000E-01  7.20000000E-01  7.20000000E-01
  7.20000000E-01  7.20000000E-01  7.20000000E-01  7.20000000E-01  8.50000000E-01
  7.20000000E-01  8.50000000E-01  7.20000000E-01  8.50000000E-01  7.20000000E-01
  8.50000000E-01  7.20000000E-01  7.20000000E-01  8.50000000E-01  7.20000000E-01
  8.50000000E-01  8.50000000E-01  7.20000000E-01  7.20000000E-01  7.20000000E-01
  7.20000000E-01  8.50000000E-01  7.20000000E-01  7.20000000E-01  7.20000000E-01
  7.20000000E-01  7.20000000E-01  7.20000000E-01  7.20000000E-01  7.20000000E-01
  8.50000000E-01  7.20000000E-01  8.50000000E-01  7.20000000E-01  8.50000000E-01
  7.20000000E-01  8.50000000E-01  7.20000000E-01  7.20000000E-01  8.50000000E-01
  8.50000000E-01  8.50000000E-01  8.50000000E-01  7.90000000E-01  7.90000000E-01
  7.20000000E-01  8.50000000E-01  7.90000000E-01  7.20000000E-01  8.50000000E-01
  7.20000000E-01  7.20000000E-01  7.20000000E-01  7.20000000E-01  8.50000000E-01
  7.20000000E-01  7.20000000E-01  8.50000000E-01  7.20000000E-01  7.20000000E-01
  7.20000000E-01  7.20000000E-01  7.20000000E-01  7.20000000E-01  7.20000000E-01
  7.20000000E-01  7.20000000E-01  7.20000000E-01  7.20000000E-01  7.20000000E-01
  7.20000000E-01  8.50000000E-01  7.20000000E-01  8.50000000E-01  8.50000000E-01
  7.20000000E-01  8.50000000E-01  7.20000000E-01  7.20000000E-01  8.50000000E-01
  7.20000000E-01  8.50000000E-01  7.20000000E-01  8.50000000E-01  7.20000000E-01
  8.50000000E-01  7.20000000E-01  8.50000000E-01  7.20000000E-01  8.50000000E-01
  7.20000000E-01  8.50000000E-01  7.20000000E-01  8.50000000E-01  7.20000000E-01
  8.50000000E-01  8.50000000E-01  7.20000000E-01  8.50000000E-01  8.50000000E-01
  8.50000000E-01  7.20000000E-01  8.50000000E-01  7.20000000E-01  8.50000000E-01
  8.50000000E-01  7.20000000E-01  8.50000000E-01  8.50000000E-01  7.20000000E-01
  8.50000000E-01  8.50000000E-01  8.50000000E-01  8.50000000E-01  8.50000000E-01
  8.50000000E-01  8.50000000E-01  8.50000000E-01  7.20000000E-01  7.20000000E-01
  7.20000000E-01  7.20000000E-01  7.20000000E-01  7.20000000E-01  8.50000000E-01
  8.50000000E-01  8.50000000E-01  8.50000000E-01  8.50000000E-01  8.50000000E-01
  8.50000000E-01  8.50000000E-01  8.50000000E-01  8.50000000E-01  8.50000000E-01
  8.50000000E-01  8.50000000E-01  8.50000000E-01  8.50000000E-01  8.50000000E-01
  8.50000000E-01  8.50000000E-01  8.50000000E-01  7.20000000E-01  7.20000000E-01
  7.20000000E-01  7.20000000E-01  8.50000000E-01  8.50000000E-01  8.50000000E-01
  7.20000000E-01  8.50000000E-01  7.20000000E-01  8.50000000E-01  7.20000000E-01
  8.50000000E-01  8.50000000E-01  7.90000000E-01  7.20000000E-01  7.20000000E-01
  7.20000000E-01  7.20000000E-01  7.20000000E-01  7.20000000E-01  7.20000000E-01
  8.50000000E-01  7.20000000E-01  8.50000000E-01  7.20000000E-01  8.50000000E-01
  7.20000000E-01  8.50000000E-01  7.20000000E-01  7.20000000E-01  8.50000000E-01
  7.20000000E-01  8.50000000E-01  8.50000000E-01  7.20000000E-01  7.20000000E-01
  7.20000000E-01  7.20000000E-01  8.50000000E-01  7.20000000E-01  7.20000000E-01
  7.20000000E-01  7.20000000E-01  7.20000000E-01  7.20000000E-01  7.20000000E-01
  7.20000000E-01  8.50000000E-01  7.20000000E-01  8.50000000E-01  7.20000000E-01
  8.50000000E-01  7.20000000E-01  8.50000000E-01  7.20000000E-01  7.20000000E-01
  8.50000000E-01  8.50000000E-01  8.50000000E-01  8.50000000E-01  7.90000000E-01
  7.90000000E-01  7.20000000E-01  8.50000000E-01  7.90000000E-01  7.20000000E-01
  8.50000000E-01  7.20000000E-01  7.20000000E-01  7.20000000E-01  7.20000000E-01
  8.50000000E-01  7.20000000E-01  7.20000000E-01  8.50000000E-01  7.20000000E-01
  7.20000000E-01  7.20000000E-01  7.20000000E-01  7.20000000E-01  7.20000000E-01
  7.20000000E-01  7.20000000E-01  7.20000000E-01  7.20000000E-01  7.20000000E-01
  7.20000000E-01  7.20000000E-01  8.50000000E-01  7.20000000E-01  8.50000000E-01
  8.50000000E-01  7.20000000E-01  8.50000000E-01  7.20000000E-01  7.20000000E-01
  8.50000000E-01  7.20000000E-01  8.50000000E-01  7.20000000E-01  8.50000000E-01
  7.20000000E-01  8.50000000E-01  7.20000000E-01  8.50000000E-01  7.20000000E-01
  8.50000000E-01  7.20000000E-01  8.50000000E-01  7.20000000E-01  8.50000000E-01
  7.20000000E-01  8.50000000E-01  8.50000000E-01  7.20000000E-01  8.50000000E-01
  8.50000000E-01  8.50000000E-01  7.20000000E-01  8.50000000E-01  7.20000000E-01
  8.50000000E-01  8.50000000E-01  7.20000000E-01  8.50000000E-01  8.50000000E-01
  7.20000000E-01  8.50000000E-01  8.50000000E-01  8.50000000E-01  8.50000000E-01
  8.50000000E-01  8.50000000E-01  8.50000000E-01  8.50000000E-01  7.20000000E-01
  7.20000000E-01  7.20000000E-01  7.20000000E-01  7.20000000E-01  7.20000000E-01
  8.50000000E-01  8.50000000E-01  8.50000000E-01  8.50000000E-01  8.50000000E-01
  8.50000000E-01  8.50000000E-01  8.50000000E-01  8.50000000E-01  8.50000000E-01
  8.50000000E-01  8.50000000E-01  8.50000000E-01  8.50000000E-01  8.50000000E-01
  8.50000000E-01  8.50000000E-01  8.50000000E-01  8.50000000E-01  7.20000000E-01
  7.20000000E-01  7.20000000E-01  7.20000000E-01  8.50000000E-01  8.50000000E-01
  8.50000000E-01  7.20000000E-01  8.50000000E-01  7.20000000E-01  8.50000000E-01
  7.20000000E-01  8.50000000E-01  8.50000000E-01  7.90000000E-01  7.20000000E-01
  7.20000000E-01  7.20000000E-01  7.20000000E-01  7.20000000E-01  7.20000000E-01
  7.20000000E-01  8.50000000E-01  7.20000000E-01  8.50000000E-01  7.20000000E-01
  8.50000000E-01  7.20000000E-01  8.50000000E-01  7.20000000E-01  7.20000000E-01
  8.50000000E-01  7.20000000E-01  8.50000000E-01  8.50000000E-01  7.20000000E-01
  7.20000000E-01  7.20000000E-01  7.20000000E-01  8.50000000E-01  7.20000000E-01
  7.20000000E-01  7.20000000E-01  7.20000000E-01  7.20000000E-01  7.20000000E-01
  7.20000000E-01  7.20000000E-01  8.50000000E-01  7.20000000E-01  8.50000000E-01
  7.20000000E-01  8.50000000E-01  7.20000000E-01  8.50000000E-01  7.20000000E-01
  7.20000000E-01  8.50000000E-01  8.50000000E-01  8.50000000E-01  8.50000000E-01
  7.90000000E-01  7.90000000E-01  7.20000000E-01  8.50000000E-01  7.90000000E-01
  7.20000000E-01  8.50000000E-01  7.20000000E-01  7.20000000E-01  7.20000000E-01
  7.20000000E-01  8.50000000E-01  7.20000000E-01  7.20000000E-01  8.50000000E-01
  7.20000000E-01  7.20000000E-01  7.20000000E-01  7.20000000E-01  7.20000000E-01
  7.20000000E-01  7.20000000E-01  7.20000000E-01  7.20000000E-01  7.20000000E-01
  7.20000000E-01  7.20000000E-01  7.20000000E-01  8.50000000E-01  7.20000000E-01
  8.50000000E-01  8.50000000E-01  7.20000000E-01  8.50000000E-01  7.20000000E-01
  7.20000000E-01  8.50000000E-01  7.20000000E-01  8.50000000E-01  7.20000000E-01
  8.50000000E-01  7.20000000E-01  8.50000000E-01  7.20000000E-01  8.50000000E-01
  7.20000000E-01  8.50000000E-01  7.20000000E-01  8.50000000E-01  7.20000000E-01
  8.50000000E-01  7.20000000E-01  8.50000000E-01  8.50000000E-01  7.20000000E-01
  8.50000000E-01  8.50000000E-01  8.50000000E-01  7.20000000E-01  8.50000000E-01
  7.20000000E-01  8.50000000E-01  8.50000000E-01  7.20000000E-01  8.50000000E-01
  8.50000000E-01  7.20000000E-01  8.50000000E-01  8.50000000E-01  8.50000000E-01
  8.50000000E-01  8.50000000E-01  8.50000000E-01  8.50000000E-01  8.50000000E-01
  7.20000000E-01  7.20000000E-01  7.20000000E-01  7.20000000E-01  7.20000000E-01
  7.20000000E-01  8.50000000E-01  8.50000000E-01  8.50000000E-01  8.50000000E-01
  8.50000000E-01  8.50000000E-01  8.50000000E-01  8.50000000E-01  8.50000000E-01
  8.50000000E-01  8.50000000E-01  8.50000000E-01  8.50000000E-01  8.50000000E-01
  8.50000000E-01  8.50000000E-01  8.50000000E-01  8.50000000E-01  8.50000000E-01
  7.20000000E-01  7.20000000E-01  7.20000000E-01  7.20000000E-01  8.50000000E-01
  8.50000000E-01  8.50000000E-01  7.20000000E-01  8.50000000E-01  7.20000000E-01
  8.50000000E-01  7.20000000E-01  8.50000000E-01  8.50000000E-01  7.90000000E-01
  7.20000000E-01  7.20000000E-01  7.20000000E-01  7.20000000E-01  7.20000000E-01
  7.20000000E-01  7.20000000E-01  8.50000000E-01  7.20000000E-01  8.50000000E-01
  7.20000000E-01  8.50000000E-01  7.20000000E-01  8.50000000E-01  7.20000000E-01
  7.20000000E-01  8.50000000E-01  7.20000000E-01  8.50000000E-01  8.50000000E-01
  7.20000000E-01  7.20000000E-01  7.20000000E-01  7.20000000E-01  8.50000000E-01
  7.20000000E-01  7.20000000E-01  7.20000000E-01  7.20000000E-01  7.20000000E-01
  7.20000000E-01  7.20000000E-01  7.20000000E-01  8.50000000E-01  7.20000000E-01
  8.50000000E-01  7.20000000E-01  8.50000000E-01  7.20000000E-01  8.50000000E-01
  7.20000000E-01  7.20000000E-01  8.50000000E-01  8.50000000E-01  8.50000000E-01
  8.50000000E-01  7.90000000E-01  7.90000000E-01  7.20000000E-01  8.50000000E-01
  7.90000000E-01  7.20000000E-01  8.50000000E-01  7.20000000E-01  7.20000000E-01
  7.20000000E-01  7.20000000E-01  8.50000000E-01  7.20000000E-01  7.20000000E-01
  8.50000000E-01  7.20000000E-01  7.20000000E-01  7.20000000E-01  7.20000000E-01
  7.20000000E-01  7.20000000E-01  7.20000000E-01  7.20000000E-01  7.20000000E-01
  7.20000000E-01  7.20000000E-01  7.20000000E-01  7.20000000E-01  8.50000000E-01
  7.20000000E-01  8.50000000E-01  8.50000000E-01  7.20000000E-01  8.50000000E-01
  7.20000000E-01  7.20000000E-01  8.50000000E-01  7.20000000E-01  8.50000000E-01
  7.20000000E-01  8.50000000E-01  7.20000000E-01  8.50000000E-01  7.20000000E-01
  8.50000000E-01  7.20000000E-01  8.50000000E-01  7.20000000E-01  8.50000000E-01
  7.20000000E-01  8.50000000E-01  7.20000000E-01  8.50000000E-01  8.50000000E-01
  7.20000000E-01  8.50000000E-01  8.50000000E-01  8.50000000E-01  7.20000000E-01
  8.50000000E-01  7.20000000E-01  8.50000000E-01  8.50000000E-01  7.20000000E-01
  8.50000000E-01  8.50000000E-01  7.20000000E-01  8.50000000E-01  8.50000000E-01
  8.50000000E-01  8.50000000E-01  8.50000000E-01  8.50000000E-01  8.50000000E-01
  8.50000000E-01  7.20000000E-01  7.20000000E-01  7.20000000E-01  7.20000000E-01
  7.20000000E-01  7.20000000E-01  8.50000000E-01  8.50000000E-01  8.50000000E-01
  8.50000000E-01  8.50000000E-01  8.50000000E-01  8.50000000E-01  8.50000000E-01
  8.50000000E-01  8.50000000E-01  8.50000000E-01  8.50000000E-01  8.50000000E-01
  8.50000000E-01  8.50000000E-01  8.50000000E-01  8.50000000E-01  8.50000000E-01
  8.50000000E-01  7.20000000E-01  7.20000000E-01  7.20000000E-01  7.20000000E-01
  8.50000000E-01  8.50000000E-01  8.50000000E-01  7.20000000E-01  8.50000000E-01
  7.20000000E-01  8.50000000E-01  7.20000000E-01  8.50000000E-01  8.50000000E-01
  7.90000000E-01  7.20000000E-01  7.20000000E-01  7.20000000E-01  7.20000000E-01
  7.20000000E-01  7.20000000E-01  7.20000000E-01  8.50000000E-01  7.20000000E-01
  8.50000000E-01  7.20000000E-01  8.50000000E-01  7.20000000E-01  8.50000000E-01
  7.20000000E-01  7.20000000E-01  8.50000000E-01  7.20000000E-01  8.50000000E-01
  8.50000000E-01  7.20000000E-01  7.20000000E-01  7.20000000E-01  7.20000000E-01
  8.50000000E-01  7.20000000E-01  7.20000000E-01  7.20000000E-01  7.20000000E-01
  7.20000000E-01  7.20000000E-01  7.20000000E-01  7.20000000E-01  8.50000000E-01
  7.20000000E-01  8.50000000E-01  7.20000000E-01  8.50000000E-01  7.20000000E-01
  8.50000000E-01  7.20000000E-01  7.20000000E-01  8.50000000E-01  8.50000000E-01
  8.50000000E-01  8.50000000E-01  7.90000000E-01  7.90000000E-01  7.20000000E-01
  8.50000000E-01  7.90000000E-01  7.20000000E-01  8.50000000E-01  7.20000000E-01
  7.20000000E-01  7.20000000E-01  7.20000000E-01  8.50000000E-01  7.20000000E-01
  7.20000000E-01  8.50000000E-01  7.20000000E-01  7.20000000E-01  7.20000000E-01
  7.20000000E-01  7.20000000E-01  7.20000000E-01  7.20000000E-01  7.20000000E-01
  7.20000000E-01  7.20000000E-01  7.20000000E-01  7.20000000E-01  7.20000000E-01
  8.50000000E-01  7.20000000E-01  8.50000000E-01  8.50000000E-01  7.20000000E-01
  8.50000000E-01  7.20000000E-01  7.20000000E-01  8.50000000E-01  7.20000000E-01
  8.50000000E-01  7.20000000E-01  8.50000000E-01  7.20000000E-01  8.50000000E-01
  7.20000000E-01  8.50000000E-01  7.20000000E-01  8.50000000E-01  7.20000000E-01
  8.50000000E-01  7.20000000E-01  8.50000000E-01  7.20000000E-01  8.50000000E-01
  8.50000000E-01  7.20000000E-01  8.50000000E-01  8.50000000E-01  8.50000000E-01
  7.20000000E-01  8.50000000E-01  7.20000000E-01  8.50000000E-01  8.50000000E-01
  7.20000000E-01  8.50000000E-01  8.50000000E-01  7.20000000E-01  8.50000000E-01
  8.50000000E-01  8.50000000E-01  8.50000000E-01  8.50000000E-01  8.50000000E-01
  8.50000000E-01  8.50000000E-01  7.20000000E-01  7.20000000E-01  7.20000000E-01
  7.20000000E-01  7.20000000E-01  7.20000000E-01  8.50000000E-01  8.50000000E-01
  8.50000000E-01  8.50000000E-01  8.50000000E-01  8.50000000E-01  8.50000000E-01
  8.50000000E-01  8.50000000E-01  8.50000000E-01  8.50000000E-01  8.50000000E-01
  8.50000000E-01  8.50000000E-01  8.50000000E-01  8.50000000E-01  8.50000000E-01
  8.50000000E-01  8.50000000E-01  7.20000000E-01  7.20000000E-01  7.20000000E-01
  7.20000000E-01  8.50000000E-01  8.50000000E-01  8.50000000E-01  7.20000000E-01
  8.50000000E-01  7.20000000E-01  8.50000000E-01  7.20000000E-01  8.50000000E-01
  8.50000000E-01  7.90000000E-01  7.20000000E-01  7.20000000E-01  7.20000000E-01
  7.20000000E-01  7.20000000E-01  7.20000000E-01  7.20000000E-01  8.50000000E-01
  7.20000000E-01  8.50000000E-01  7.20000000E-01  8.50000000E-01  7.20000000E-01
  8.50000000E-01  7.20000000E-01  7.20000000E-01  8.50000000E-01  7.20000000E-01
  8.50000000E-01  8.50000000E-01  7.20000000E-01  7.20000000E-01  7.20000000E-01
  7.20000000E-01  8.50000000E-01  7.20000000E-01  7.20000000E-01  7.20000000E-01
  7.20000000E-01  7.20000000E-01  7.20000000E-01  7.20000000E-01  7.20000000E-01
  8.50000000E-01  7.20000000E-01  8.50000000E-01  7.20000000E-01  8.50000000E-01
  7.20000000E-01  8.50000000E-01  7.20000000E-01  7.20000000E-01  8.50000000E-01
  8.50000000E-01  8.50000000E-01  8.50000000E-01  7.90000000E-01  7.90000000E-01
  7.20000000E-01  8.50000000E-01  7.90000000E-01  7.20000000E-01  8.50000000E-01
  7.20000000E-01  7.20000000E-01  7.20000000E-01  7.20000000E-01  8.50000000E-01
  7.20000000E-01  7.20000000E-01  8.50000000E-01  7.20000000E-01  7.20000000E-01
  7.20000000E-01  7.20000000E-01  7.20000000E-01  7.20000000E-01  7.20000000E-01
  7.20000000E-01  7.20000000E-01  7.20000000E-01  7.20000000E-01  7.20000000E-01
  7.20000000E-01  8.50000000E-01  7.20000000E-01  8.50000000E-01  8.50000000E-01
  7.20000000E-01  8.50000000E-01  7.20000000E-01  7.20000000E-01  8.50000000E-01
  7.20000000E-01  8.50000000E-01  7.20000000E-01  8.50000000E-01  7.20000000E-01
  8.50000000E-01  7.20000000E-01  8.50000000E-01  7.20000000E-01  8.50000000E-01
  7.20000000E-01  8.50000000E-01  7.20000000E-01  8.50000000E-01  7.20000000E-01
  8.50000000E-01  8.50000000E-01  7.20000000E-01  8.50000000E-01  8.50000000E-01
  8.50000000E-01  7.20000000E-01  8.50000000E-01  7.20000000E-01  8.50000000E-01
  8.50000000E-01  7.20000000E-01  8.50000000E-01  8.50000000E-01  7.20000000E-01
  8.50000000E-01  8.50000000E-01  8.50000000E-01  8.50000000E-01  8.50000000E-01
  8.50000000E-01  8.50000000E-01  8.50000000E-01  7.20000000E-01  7.20000000E-01
  7.20000000E-01  7.20000000E-01  7.20000000E-01  7.20000000E-01  8.50000000E-01
  8.50000000E-01  8.50000000E-01  8.50000000E-01  8.50000000E-01  8.50000000E-01
  8.50000000E-01  8.50000000E-01  8.50000000E-01  8.50000000E-01  8.50000000E-01
  8.50000000E-01  8.50000000E-01  8.50000000E-01  8.50000000E-01  8.50000000E-01
  8.50000000E-01  8.50000000E-01  8.50000000E-01  7.20000000E-01  7.20000000E-01
  7.20000000E-01  7.20000000E-01  8.50000000E-01  8.50000000E-01  8.50000000E-01
  7.20000000E-01  8.50000000E-01  7.20000000E-01  8.50000000E-01  7.20000000E-01
  8.50000000E-01  8.50000000E-01  7.90000000E-01  7.20000000E-01  7.20000000E-01
  7.20000000E-01  7.20000000E-01  7.20000000E-01  7.20000000E-01  7.20000000E-01
  8.50000000E-01  7.20000000E-01  8.50000000E-01  7.20000000E-01  8.50000000E-01
  7.20000000E-01  8.50000000E-01  7.20000000E-01  7.20000000E-01  8.50000000E-01
  7.20000000E-01  8.50000000E-01  8.50000000E-01  7.20000000E-01  7.20000000E-01
  7.20000000E-01  7.20000000E-01  8.50000000E-01  7.20000000E-01  7.20000000E-01
  7.20000000E-01  7.20000000E-01  7.20000000E-01  7.20000000E-01  7.20000000E-01
  7.20000000E-01  8.50000000E-01  7.20000000E-01  8.50000000E-01  7.20000000E-01
  8.50000000E-01  7.20000000E-01  8.50000000E-01  7.20000000E-01  7.20000000E-01
  8.50000000E-01  8.50000000E-01  8.50000000E-01  8.50000000E-01  7.90000000E-01
  7.90000000E-01  7.20000000E-01  8.50000000E-01  7.90000000E-01  7.20000000E-01
  8.50000000E-01  7.20000000E-01  7.20000000E-01  7.20000000E-01  7.20000000E-01
  8.50000000E-01  7.20000000E-01  7.20000000E-01  8.50000000E-01  7.20000000E-01
  7.20000000E-01  7.20000000E-01  7.20000000E-01  7.20000000E-01  7.20000000E-01
  7.20000000E-01  7.20000000E-01  7.20000000E-01  7.20000000E-01  7.20000000E-01
  7.20000000E-01  7.20000000E-01  8.50000000E-01  7.20000000E-01  8.50000000E-01
  8.50000000E-01  7.20000000E-01  8.50000000E-01  7.20000000E-01  7.20000000E-01
  8.50000000E-01  7.20000000E-01  8.50000000E-01  7.20000000E-01  8.50000000E-01
  7.20000000E-01  8.50000000E-01  7.20000000E-01  8.50000000E-01  7.20000000E-01
  8.50000000E-01  7.20000000E-01  8.50000000E-01  7.20000000E-01  8.50000000E-01
  7.20000000E-01  8.50000000E-01  8.50000000E-01  7.20000000E-01  8.50000000E-01
  8.50000000E-01  8.50000000E-01  7.20000000E-01  8.50000000E-01  7.20000000E-01
  8.50000000E-01  8.50000000E-01  7.20000000E-01  8.50000000E-01  8.50000000E-01
  7.20000000E-01  8.50000000E-01  8.50000000E-01  8.50000000E-01  8.50000000E-01
  8.50000000E-01  8.50000000E-01  8.50000000E-01  8.50000000E-01  7.20000000E-01
  7.20000000E-01  7.20000000E-01  7.20000000E-01  7.20000000E-01  7.20000000E-01
  8.50000000E-01  8.50000000E-01  8.50000000E-01  8.50000000E-01  8.50000000E-01
  8.50000000E-01  8.50000000E-01  8.50000000E-01  8.50000000E-01  8.50000000E-01
  8.50000000E-01  8.50000000E-01  8.50000000E-01  8.50000000E-01  8.50000000E-01
  8.50000000E-01  8.50000000E-01  8.50000000E-01  8.50000000E-01  7.20000000E-01
  7.20000000E-01  7.20000000E-01  7.20000000E-01  8.50000000E-01  8.50000000E-01
  8.50000000E-01  7.20000000E-01  8.50000000E-01  7.20000000E-01  8.50000000E-01
  7.20000000E-01  8.50000000E-01  8.50000000E-01  7.90000000E-01  7.20000000E-01
  7.20000000E-01  7.20000000E-01  7.20000000E-01  7.20000000E-01  7.20000000E-01
  7.20000000E-01  8.50000000E-01  7.20000000E-01  8.50000000E-01  7.20000000E-01
  8.50000000E-01  7.20000000E-01  8.50000000E-01  7.20000000E-01  7.20000000E-01
  8.50000000E-01  7.20000000E-01  8.50000000E-01  8.50000000E-01  7.20000000E-01
  7.20000000E-01  7.20000000E-01  7.20000000E-01  8.50000000E-01  7.20000000E-01
  7.20000000E-01  7.20000000E-01  7.20000000E-01  7.20000000E-01  7.20000000E-01
  7.20000000E-01  7.20000000E-01  8.50000000E-01  7.20000000E-01  8.50000000E-01
  7.20000000E-01  8.50000000E-01  7.20000000E-01  8.50000000E-01  7.20000000E-01
  7.20000000E-01  8.50000000E-01  8.50000000E-01  8.50000000E-01  8.50000000E-01
  7.90000000E-01  7.90000000E-01  7.20000000E-01  8.50000000E-01  7.90000000E-01
  7.20000000E-01  8.50000000E-01  7.20000000E-01  7.20000000E-01  7.20000000E-01
  7.20000000E-01  8.50000000E-01  7.20000000E-01  7.20000000E-01  8.50000000E-01
  7.20000000E-01  7.20000000E-01  7.20000000E-01  7.20000000E-01  7.20000000E-01
  7.20000000E-01  7.20000000E-01  7.20000000E-01  7.20000000E-01  7.20000000E-01
  7.20000000E-01  7.20000000E-01  7.20000000E-01  8.50000000E-01  7.20000000E-01
  8.50000000E-01  8.50000000E-01  7.20000000E-01  8.50000000E-01  7.20000000E-01
  7.20000000E-01  8.50000000E-01  7.20000000E-01  8.50000000E-01  7.20000000E-01
  8.50000000E-01  7.20000000E-01  8.50000000E-01  7.20000000E-01  8.50000000E-01
  7.20000000E-01  8.50000000E-01  7.20000000E-01  8.50000000E-01  7.20000000E-01
  8.50000000E-01  7.20000000E-01  8.50000000E-01  8.50000000E-01  7.20000000E-01
  8.50000000E-01  8.50000000E-01  8.50000000E-01  7.20000000E-01  8.50000000E-01
  7.20000000E-01  8.50000000E-01  8.50000000E-01  7.20000000E-01  8.50000000E-01
  8.50000000E-01  7.20000000E-01  8.50000000E-01  8.50000000E-01  8.50000000E-01
  8.50000000E-01  8.50000000E-01  8.50000000E-01  8.50000000E-01  8.50000000E-01
  7.20000000E-01  7.20000000E-01  7.20000000E-01  7.20000000E-01  7.20000000E-01
  7.20000000E-01  8.50000000E-01  8.50000000E-01  8.50000000E-01  8.50000000E-01
  8.50000000E-01  8.50000000E-01  8.50000000E-01  8.50000000E-01  8.50000000E-01
  8.50000000E-01  8.50000000E-01  8.50000000E-01  8.50000000E-01  8.50000000E-01
  8.50000000E-01  8.50000000E-01  8.50000000E-01  8.50000000E-01  8.50000000E-01
  7.20000000E-01  7.20000000E-01  7.20000000E-01  7.20000000E-01  8.50000000E-01
  8.50000000E-01  8.50000000E-01  7.20000000E-01  8.50000000E-01  7.20000000E-01
  8.50000000E-01  7.20000000E-01  8.50000000E-01  8.50000000E-01  7.90000000E-01
  7.20000000E-01  7.20000000E-01  7.20000000E-01  7.20000000E-01  7.20000000E-01
  7.20000000E-01  7.20000000E-01  8.50000000E-01  7.20000000E-01  8.50000000E-01
  7.20000000E-01  8.50000000E-01  7.20000000E-01  8.50000000E-01  7.20000000E-01
  7.20000000E-01  8.50000000E-01  7.20000000E-01  8.50000000E-01  8.50000000E-01
  7.20000000E-01  7.20000000E-01  7.20000000E-01  7.20000000E-01  8.50000000E-01
  7.20000000E-01  7.20000000E-01  7.20000000E-01  7.20000000E-01  7.20000000E-01
  7.20000000E-01  7.20000000E-01  7.20000000E-01  8.50000000E-01  7.20000000E-01
  8.50000000E-01  7.20000000E-01  8.50000000E-01  7.20000000E-01  8.50000000E-01
  7.20000000E-01  7.20000000E-01  8.50000000E-01  8.50000000E-01  8.50000000E-01
  8.50000000E-01  7.90000000E-01  7.90000000E-01  7.20000000E-01  8.50000000E-01
  7.90000000E-01  7.20000000E-01  8.50000000E-01  7.20000000E-01  7.20000000E-01
  7.20000000E-01  7.20000000E-01  8.50000000E-01  7.20000000E-01  7.20000000E-01
  8.50000000E-01  7.20000000E-01  7.20000000E-01  7.20000000E-01  7.20000000E-01
  7.20000000E-01  7.20000000E-01  7.20000000E-01  7.20000000E-01  7.20000000E-01
  7.20000000E-01  7.20000000E-01  7.20000000E-01  7.20000000E-01  8.50000000E-01
  7.20000000E-01  8.50000000E-01  8.50000000E-01  7.20000000E-01  8.50000000E-01
  7.20000000E-01  7.20000000E-01  8.50000000E-01  7.20000000E-01  8.50000000E-01
  7.20000000E-01  8.50000000E-01  7.20000000E-01  8.50000000E-01  7.20000000E-01
  8.50000000E-01  7.20000000E-01  8.50000000E-01  7.20000000E-01  8.50000000E-01
  7.20000000E-01  8.50000000E-01  7.20000000E-01  8.50000000E-01  8.50000000E-01
  7.20000000E-01  8.50000000E-01  8.50000000E-01  8.50000000E-01  7.20000000E-01
  8.50000000E-01  7.20000000E-01  8.50000000E-01  8.50000000E-01  7.20000000E-01
  8.50000000E-01  8.50000000E-01  7.20000000E-01  8.50000000E-01  8.50000000E-01
  8.50000000E-01  8.50000000E-01  8.50000000E-01  8.50000000E-01  8.50000000E-01
  8.50000000E-01  7.20000000E-01  7.20000000E-01  7.20000000E-01  7.20000000E-01
  7.20000000E-01  7.20000000E-01  8.50000000E-01  8.50000000E-01  8.50000000E-01
  8.50000000E-01  8.50000000E-01  8.50000000E-01  8.50000000E-01  8.50000000E-01
  8.50000000E-01  8.50000000E-01  8.50000000E-01  8.50000000E-01  8.50000000E-01
  8.50000000E-01  8.50000000E-01  8.50000000E-01  8.50000000E-01  8.50000000E-01
  8.50000000E-01  7.20000000E-01  7.20000000E-01  7.20000000E-01  7.20000000E-01
  8.50000000E-01  8.50000000E-01  8.50000000E-01  7.20000000E-01  8.50000000E-01
  7.20000000E-01  8.50000000E-01  7.20000000E-01  8.50000000E-01  8.50000000E-01
  7.90000000E-01  7.20000000E-01  7.20000000E-01  7.20000000E-01  7.20000000E-01
  7.20000000E-01  7.20000000E-01  7.20000000E-01  8.50000000E-01  7.20000000E-01
  8.50000000E-01  7.20000000E-01  8.50000000E-01  7.20000000E-01  8.50000000E-01
  7.20000000E-01  7.20000000E-01  8.50000000E-01  7.20000000E-01  8.50000000E-01
  8.50000000E-01  7.20000000E-01  7.20000000E-01  7.20000000E-01  7.20000000E-01
  8.50000000E-01  7.20000000E-01  7.20000000E-01  7.20000000E-01  7.20000000E-01
  7.20000000E-01  7.20000000E-01  7.20000000E-01  7.20000000E-01  8.50000000E-01
  7.20000000E-01  8.50000000E-01  7.20000000E-01  8.50000000E-01  7.20000000E-01
  8.50000000E-01  7.20000000E-01  7.20000000E-01  8.50000000E-01  8.50000000E-01
  8.50000000E-01  8.50000000E-01  7.90000000E-01  7.90000000E-01  7.20000000E-01
  8.50000000E-01  7.90000000E-01  7.20000000E-01  8.50000000E-01  7.20000000E-01
  7.20000000E-01  7.20000000E-01  7.20000000E-01  8.50000000E-01  7.20000000E-01
  7.20000000E-01  8.50000000E-01  7.20000000E-01  7.20000000E-01  7.20000000E-01
  7.20000000E-01  7.20000000E-01  7.20000000E-01  7.20000000E-01  7.20000000E-01
  7.20000000E-01  7.20000000E-01  7.20000000E-01  7.20000000E-01  7.20000000E-01
  8.50000000E-01  7.20000000E-01  8.50000000E-01  8.50000000E-01  7.20000000E-01
  8.50000000E-01  7.20000000E-01  7.20000000E-01  8.50000000E-01  7.20000000E-01
  8.50000000E-01  7.20000000E-01  8.50000000E-01  7.20000000E-01  8.50000000E-01
  7.20000000E-01  8.50000000E-01  7.20000000E-01  8.50000000E-01  7.20000000E-01
  8.50000000E-01  7.20000000E-01  8.50000000E-01  7.20000000E-01  8.50000000E-01
  8.50000000E-01  7.20000000E-01  8.50000000E-01  8.50000000E-01  8.50000000E-01
  7.20000000E-01  8.50000000E-01  7.20000000E-01  8.50000000E-01  8.50000000E-01
  7.20000000E-01  8.50000000E-01  8.50000000E-01  7.20000000E-01  8.50000000E-01
  8.50000000E-01  8.50000000E-01  8.50000000E-01  8.50000000E-01  8.50000000E-01
  8.50000000E-01  8.50000000E-01  7.20000000E-01  7.20000000E-01  7.20000000E-01
  7.20000000E-01  7.20000000E-01  7.20000000E-01  8.50000000E-01  8.50000000E-01
  8.50000000E-01  8.50000000E-01  8.50000000E-01  8.50000000E-01  8.50000000E-01
  8.50000000E-01  8.50000000E-01  8.50000000E-01  8.50000000E-01  8.50000000E-01
  8.50000000E-01  8.50000000E-01  8.50000000E-01  8.50000000E-01  8.50000000E-01
  8.50000000E-01  8.50000000E-01  7.20000000E-01  7.20000000E-01  7.20000000E-01
  7.20000000E-01  8.50000000E-01  8.50000000E-01  8.50000000E-01  7.20000000E-01
  8.50000000E-01  7.20000000E-01  8.50000000E-01  7.20000000E-01  8.50000000E-01
  8.50000000E-01  7.90000000E-01  7.20000000E-01  7.20000000E-01  7.20000000E-01
  7.20000000E-01  7.20000000E-01  7.20000000E-01  7.20000000E-01  8.50000000E-01
  7.20000000E-01  8.50000000E-01  7.20000000E-01  8.50000000E-01  7.20000000E-01
  8.50000000E-01  7.20000000E-01  7.20000000E-01  8.50000000E-01  7.20000000E-01
  8.50000000E-01  8.50000000E-01  7.20000000E-01  7.20000000E-01  7.20000000E-01
  7.20000000E-01  8.50000000E-01  7.20000000E-01  7.20000000E-01  7.20000000E-01
  7.20000000E-01  7.20000000E-01  7.20000000E-01  7.20000000E-01  7.20000000E-01
  8.50000000E-01  7.20000000E-01  8.50000000E-01  7.20000000E-01  8.50000000E-01
  7.20000000E-01  8.50000000E-01  7.20000000E-01  7.20000000E-01  8.50000000E-01
  8.50000000E-01  8.50000000E-01  8.50000000E-01  7.90000000E-01  7.90000000E-01
  7.20000000E-01  8.50000000E-01  7.90000000E-01  7.20000000E-01  8.50000000E-01
  7.20000000E-01  7.20000000E-01  7.20000000E-01  7.20000000E-01  8.50000000E-01
  7.20000000E-01  7.20000000E-01  8.50000000E-01  7.20000000E-01  7.20000000E-01
  7.20000000E-01  7.20000000E-01  7.20000000E-01  7.20000000E-01  7.20000000E-01
  7.20000000E-01  7.20000000E-01  7.20000000E-01  7.20000000E-01  7.20000000E-01
  7.20000000E-01  8.50000000E-01  7.20000000E-01  8.50000000E-01  8.50000000E-01
  7.20000000E-01  8.50000000E-01  7.20000000E-01  7.20000000E-01  8.50000000E-01
  7.20000000E-01  8.50000000E-01  7.20000000E-01  8.50000000E-01  7.20000000E-01
  8.50000000E-01  7.20000000E-01  8.50000000E-01  7.20000000E-01  8.50000000E-01
  7.20000000E-01  8.50000000E-01  7.20000000E-01  8.50000000E-01  7.20000000E-01
  8.50000000E-01  8.50000000E-01  7.20000000E-01  8.50000000E-01  8.50000000E-01
  8.50000000E-01  7.20000000E-01  8.50000000E-01  7.20000000E-01  8.50000000E-01
  8.50000000E-01  7.20000000E-01  8.50000000E-01  8.50000000E-01  7.20000000E-01
  8.50000000E-01  8.50000000E-01  8.50000000E-01  8.50000000E-01  8.50000000E-01
  8.50000000E-01  8.50000000E-01  8.50000000E-01  7.20000000E-01  7.20000000E-01
  7.20000000E-01  7.20000000E-01  7.20000000E-01  7.20000000E-01  8.50000000E-01
  8.50000000E-01  8.50000000E-01  8.50000000E-01  8.50000000E-01  8.50000000E-01
  8.50000000E-01  8.50000000E-01  8.50000000E-01  8.50000000E-01  8.50000000E-01
  8.50000000E-01  8.50000000E-01  8.50000000E-01  8.50000000E-01  8.50000000E-01
  8.50000000E-01  8.50000000E-01  8.50000000E-01  7.20000000E-01  7.20000000E-01
  7.20000000E-01  7.20000000E-01  8.50000000E-01  8.50000000E-01  8.50000000E-01
  7.20000000E-01  8.50000000E-01  7.20000000E-01  8.50000000E-01  7.20000000E-01
  8.50000000E-01  8.50000000E-01  7.90000000E-01  7.20000000E-01  7.20000000E-01
  7.20000000E-01  7.20000000E-01  7.20000000E-01  7.20000000E-01  7.20000000E-01
  8.50000000E-01  7.20000000E-01  8.50000000E-01  7.20000000E-01  8.50000000E-01
  7.20000000E-01  8.50000000E-01  7.20000000E-01  7.20000000E-01  8.50000000E-01
  7.20000000E-01  8.50000000E-01  8.50000000E-01  7.20000000E-01  7.20000000E-01
  7.20000000E-01  7.20000000E-01  8.50000000E-01  7.20000000E-01  7.20000000E-01
  7.20000000E-01  7.20000000E-01  7.20000000E-01  7.20000000E-01  7.20000000E-01
  7.20000000E-01  8.50000000E-01  7.20000000E-01  8.50000000E-01  7.20000000E-01
  8.50000000E-01  7.20000000E-01  8.50000000E-01  7.20000000E-01  7.20000000E-01
  8.50000000E-01  8.50000000E-01  8.50000000E-01  8.50000000E-01  7.90000000E-01
  7.90000000E-01  7.20000000E-01  8.50000000E-01  7.90000000E-01  7.20000000E-01
  8.50000000E-01  7.20000000E-01  7.20000000E-01  7.20000000E-01  7.20000000E-01
  8.50000000E-01  7.20000000E-01  7.20000000E-01  8.50000000E-01  7.20000000E-01
  7.20000000E-01  7.20000000E-01  7.20000000E-01  7.20000000E-01  7.20000000E-01
  7.20000000E-01  7.20000000E-01  7.20000000E-01  7.20000000E-01  7.20000000E-01
  7.20000000E-01  7.20000000E-01  8.50000000E-01  7.20000000E-01  8.50000000E-01
  8.50000000E-01  7.20000000E-01  8.50000000E-01  7.20000000E-01  7.20000000E-01
  8.50000000E-01  7.20000000E-01  8.50000000E-01  7.20000000E-01  8.50000000E-01
  7.20000000E-01  8.50000000E-01  7.20000000E-01  8.50000000E-01  7.20000000E-01
  8.50000000E-01  7.20000000E-01  8.50000000E-01  7.20000000E-01  8.50000000E-01
  7.20000000E-01  8.50000000E-01  8.50000000E-01  7.20000000E-01  8.50000000E-01
  8.50000000E-01  8.50000000E-01  7.20000000E-01  8.50000000E-01  7.20000000E-01
  8.50000000E-01  8.50000000E-01  7.20000000E-01  8.50000000E-01  8.50000000E-01
  7.20000000E-01  8.50000000E-01  8.50000000E-01  8.50000000E-01  8.50000000E-01
  8.50000000E-01  8.50000000E-01  8.50000000E-01  8.50000000E-01  7.20000000E-01
  7.20000000E-01  7.20000000E-01  7.20000000E-01  7.20000000E-01  7.20000000E-01
  8.50000000E-01  8.50000000E-01  8.50000000E-01  8.50000000E-01  8.50000000E-01
  8.50000000E-01  8.50000000E-01  8.50000000E-01  8.50000000E-01  8.50000000E-01
  8.50000000E-01  8.50000000E-01  8.50000000E-01  8.50000000E-01  8.50000000E-01
  8.50000000E-01  8.50000000E-01  8.50000000E-01  8.50000000E-01  7.20000000E-01
  7.20000000E-01  7.20000000E-01  7.20000000E-01  8.50000000E-01  8.50000000E-01
  8.50000000E-01  7.20000000E-01  8.50000000E-01  7.20000000E-01  8.50000000E-01
  7.20000000E-01  8.50000000E-01  8.50000000E-01  7.90000000E-01  7.20000000E-01
  7.20000000E-01  7.20000000E-01  7.20000000E-01  7.20000000E-01  7.20000000E-01
  7.20000000E-01  8.50000000E-01  7.20000000E-01  8.50000000E-01  7.20000000E-01
  8.50000000E-01  7.20000000E-01  8.50000000E-01  7.20000000E-01  7.20000000E-01
  8.50000000E-01  7.20000000E-01  8.50000000E-01  8.50000000E-01  7.20000000E-01
  7.20000000E-01  7.20000000E-01  7.20000000E-01  8.50000000E-01  7.20000000E-01
  7.20000000E-01  7.20000000E-01  7.20000000E-01  7.20000000E-01  7.20000000E-01
  7.20000000E-01  7.20000000E-01  8.50000000E-01  7.20000000E-01  8.50000000E-01
  7.20000000E-01  8.50000000E-01  7.20000000E-01  8.50000000E-01  7.20000000E-01
  7.20000000E-01  8.50000000E-01  8.50000000E-01  8.50000000E-01  8.50000000E-01
  7.90000000E-01  7.90000000E-01  7.20000000E-01  8.50000000E-01  7.90000000E-01
  7.20000000E-01  8.50000000E-01  7.20000000E-01  7.20000000E-01  7.20000000E-01
  7.20000000E-01  8.50000000E-01  7.20000000E-01  7.20000000E-01  8.50000000E-01
  7.20000000E-01  7.20000000E-01  7.20000000E-01  7.20000000E-01  7.20000000E-01
  7.20000000E-01  7.20000000E-01  7.20000000E-01  7.20000000E-01  7.20000000E-01
  7.20000000E-01  7.20000000E-01  7.20000000E-01  8.50000000E-01  7.20000000E-01
  8.50000000E-01  8.50000000E-01  7.20000000E-01  8.50000000E-01  7.20000000E-01
  7.20000000E-01  8.50000000E-01  7.20000000E-01  8.50000000E-01  7.20000000E-01
  8.50000000E-01  7.20000000E-01  8.50000000E-01  7.20000000E-01  8.50000000E-01
  7.20000000E-01  8.50000000E-01  7.20000000E-01  8.50000000E-01  7.20000000E-01
  8.50000000E-01  7.20000000E-01  8.50000000E-01  8.50000000E-01  7.20000000E-01
  8.50000000E-01  8.50000000E-01  8.50000000E-01  7.20000000E-01  8.50000000E-01
  7.20000000E-01  8.50000000E-01  8.50000000E-01  7.20000000E-01  8.50000000E-01
  8.50000000E-01  7.20000000E-01  8.50000000E-01  8.50000000E-01  8.50000000E-01
  8.50000000E-01  8.50000000E-01  8.50000000E-01  8.50000000E-01  8.50000000E-01
  7.20000000E-01  7.20000000E-01  7.20000000E-01  7.20000000E-01  7.20000000E-01
  7.20000000E-01  8.50000000E-01  8.50000000E-01  8.50000000E-01  8.50000000E-01
  8.50000000E-01  8.50000000E-01  8.50000000E-01  8.50000000E-01  8.50000000E-01
  8.50000000E-01  8.50000000E-01  8.50000000E-01  8.50000000E-01  8.50000000E-01
  8.50000000E-01  8.50000000E-01  8.50000000E-01  8.50000000E-01  8.50000000E-01
  7.20000000E-01  7.20000000E-01  7.20000000E-01  7.20000000E-01  8.50000000E-01
  8.50000000E-01  8.50000000E-01  7.20000000E-01  8.50000000E-01  7.20000000E-01
  8.50000000E-01  7.20000000E-01  8.50000000E-01  8.50000000E-01  7.90000000E-01
  7.20000000E-01  7.20000000E-01  7.20000000E-01  7.20000000E-01  7.20000000E-01
  7.20000000E-01  7.20000000E-01  8.50000000E-01  7.20000000E-01  8.50000000E-01
  7.20000000E-01  8.50000000E-01  7.20000000E-01  8.50000000E-01  7.20000000E-01
  7.20000000E-01  8.50000000E-01  7.20000000E-01  8.50000000E-01  8.50000000E-01
  7.20000000E-01  7.20000000E-01  7.20000000E-01  7.20000000E-01  8.50000000E-01
  7.20000000E-01  7.20000000E-01  7.20000000E-01  7.20000000E-01  7.20000000E-01
  7.20000000E-01  7.20000000E-01  7.20000000E-01  8.50000000E-01  7.20000000E-01
  8.50000000E-01  7.20000000E-01  8.50000000E-01  7.20000000E-01  8.50000000E-01
  7.20000000E-01  7.20000000E-01  8.50000000E-01  8.50000000E-01  8.50000000E-01
  8.50000000E-01  7.90000000E-01  7.90000000E-01  7.20000000E-01  8.50000000E-01
  7.90000000E-01  7.20000000E-01  8.50000000E-01  7.20000000E-01  7.20000000E-01
  7.20000000E-01  7.20000000E-01  8.50000000E-01  7.20000000E-01  7.20000000E-01
  8.50000000E-01  7.20000000E-01  7.20000000E-01  7.20000000E-01  7.20000000E-01
  7.20000000E-01  7.20000000E-01  7.20000000E-01  7.20000000E-01  7.20000000E-01
  7.20000000E-01  7.20000000E-01  7.20000000E-01  7.20000000E-01  8.50000000E-01
  7.20000000E-01  8.50000000E-01  8.50000000E-01  7.20000000E-01  8.50000000E-01
  7.20000000E-01  7.20000000E-01  8.50000000E-01  7.20000000E-01  8.50000000E-01
  7.20000000E-01  8.50000000E-01  7.20000000E-01  8.50000000E-01  7.20000000E-01
  8.50000000E-01  7.20000000E-01  8.50000000E-01  7.20000000E-01  8.50000000E-01
  7.20000000E-01  8.50000000E-01  7.20000000E-01  8.50000000E-01  8.50000000E-01
  7.20000000E-01  8.50000000E-01  8.50000000E-01  8.50000000E-01  7.20000000E-01
  8.50000000E-01  7.20000000E-01  8.50000000E-01  8.50000000E-01  7.20000000E-01
  8.50000000E-01  8.50000000E-01  7.20000000E-01  8.50000000E-01  8.50000000E-01
  8.50000000E-01  8.50000000E-01  8.50000000E-01  8.50000000E-01  8.50000000E-01
  8.50000000E-01  7.20000000E-01  7.20000000E-01  7.20000000E-01  7.20000000E-01
  7.20000000E-01  7.20000000E-01  8.50000000E-01  8.50000000E-01  8.50000000E-01
  8.50000000E-01  8.50000000E-01  8.50000000E-01  8.50000000E-01  8.50000000E-01
  8.50000000E-01  8.50000000E-01  8.50000000E-01  8.50000000E-01  8.50000000E-01
  8.50000000E-01  8.50000000E-01  8.50000000E-01  8.50000000E-01  8.50000000E-01
  8.50000000E-01  7.20000000E-01  7.20000000E-01  7.20000000E-01  7.20000000E-01
  8.50000000E-01  8.50000000E-01  8.50000000E-01  7.20000000E-01  8.50000000E-01
  7.20000000E-01  8.50000000E-01  7.20000000E-01  8.50000000E-01  8.50000000E-01
  7.90000000E-01  7.20000000E-01  7.20000000E-01  7.20000000E-01  7.20000000E-01
  7.20000000E-01  7.20000000E-01  7.20000000E-01  8.50000000E-01  7.20000000E-01
  8.50000000E-01  7.20000000E-01  8.50000000E-01  7.20000000E-01  8.50000000E-01
  7.20000000E-01  7.20000000E-01  8.50000000E-01  7.20000000E-01  8.50000000E-01
  8.50000000E-01  7.20000000E-01  7.20000000E-01  7.20000000E-01  7.20000000E-01
  8.50000000E-01  7.20000000E-01  7.20000000E-01  7.20000000E-01  7.20000000E-01
  7.20000000E-01  7.20000000E-01  7.20000000E-01  7.20000000E-01  8.50000000E-01
  7.20000000E-01  8.50000000E-01  7.20000000E-01  8.50000000E-01  7.20000000E-01
  8.50000000E-01  7.20000000E-01  7.20000000E-01  8.50000000E-01  8.50000000E-01
  8.50000000E-01  8.50000000E-01  7.90000000E-01  7.90000000E-01  7.20000000E-01
  8.50000000E-01  7.90000000E-01  7.20000000E-01  8.50000000E-01  7.20000000E-01
  7.20000000E-01  7.20000000E-01  7.20000000E-01  8.50000000E-01  7.20000000E-01
  7.20000000E-01  8.50000000E-01  7.20000000E-01  7.20000000E-01  7.20000000E-01
  7.20000000E-01  7.20000000E-01  7.20000000E-01  7.20000000E-01  7.20000000E-01
  7.20000000E-01  7.20000000E-01  7.20000000E-01  7.20000000E-01  7.20000000E-01
  8.50000000E-01  7.20000000E-01  8.50000000E-01  8.50000000E-01  7.20000000E-01
  8.50000000E-01  7.20000000E-01  7.20000000E-01  8.50000000E-01  7.20000000E-01
  8.50000000E-01  7.20000000E-01  8.50000000E-01  7.20000000E-01  8.50000000E-01
  7.20000000E-01  8.50000000E-01  7.20000000E-01  8.50000000E-01  7.20000000E-01
  8.50000000E-01  7.20000000E-01  8.50000000E-01  7.20000000E-01  8.50000000E-01
  8.50000000E-01  7.20000000E-01  8.50000000E-01  8.50000000E-01  8.50000000E-01
  7.20000000E-01  8.50000000E-01  7.20000000E-01  8.50000000E-01  8.50000000E-01
  7.20000000E-01  8.50000000E-01  8.50000000E-01  7.20000000E-01  8.50000000E-01
  8.50000000E-01  8.50000000E-01  8.50000000E-01  8.50000000E-01  8.50000000E-01
  8.50000000E-01  8.50000000E-01  7.20000000E-01  7.20000000E-01  7.20000000E-01
  7.20000000E-01  7.20000000E-01  7.20000000E-01  8.50000000E-01  8.50000000E-01
  8.50000000E-01  8.50000000E-01  8.50000000E-01  8.50000000E-01  8.50000000E-01
  8.50000000E-01  8.50000000E-01  8.50000000E-01  8.50000000E-01  8.50000000E-01
  8.50000000E-01  8.50000000E-01  8.50000000E-01  8.50000000E-01  8.50000000E-01
  8.50000000E-01  8.50000000E-01  7.20000000E-01  7.20000000E-01  7.20000000E-01
  7.20000000E-01  8.50000000E-01  8.50000000E-01  8.50000000E-01  7.20000000E-01
  8.50000000E-01  7.20000000E-01  8.50000000E-01  7.20000000E-01  8.50000000E-01
  8.50000000E-01  7.90000000E-01  7.20000000E-01  7.20000000E-01  7.20000000E-01
  7.20000000E-01  7.20000000E-01  7.20000000E-01  7.20000000E-01  8.50000000E-01
  7.20000000E-01  8.50000000E-01  7.20000000E-01  8.50000000E-01  7.20000000E-01
  8.50000000E-01  7.20000000E-01  7.20000000E-01  8.50000000E-01  7.20000000E-01
  8.50000000E-01  8.50000000E-01  7.20000000E-01  7.20000000E-01  7.20000000E-01
  7.20000000E-01  8.50000000E-01  7.20000000E-01  7.20000000E-01  7.20000000E-01
  7.20000000E-01  7.20000000E-01  7.20000000E-01  7.20000000E-01  7.20000000E-01
  8.50000000E-01  7.20000000E-01  8.50000000E-01  7.20000000E-01  8.50000000E-01
  7.20000000E-01  8.50000000E-01  7.20000000E-01  7.20000000E-01  8.50000000E-01
  8.50000000E-01  8.50000000E-01  8.50000000E-01  7.90000000E-01  7.90000000E-01
  7.20000000E-01  8.50000000E-01  7.90000000E-01  7.20000000E-01  8.50000000E-01
  7.20000000E-01  7.20000000E-01  7.20000000E-01  7.20000000E-01  8.50000000E-01
  7.20000000E-01  7.20000000E-01  8.50000000E-01  7.20000000E-01  7.20000000E-01
  7.20000000E-01  7.20000000E-01  7.20000000E-01  7.20000000E-01  7.20000000E-01
  7.20000000E-01  7.20000000E-01  7.20000000E-01  7.20000000E-01  7.20000000E-01
  7.20000000E-01  8.50000000E-01  7.20000000E-01  8.50000000E-01  8.50000000E-01
  7.20000000E-01  8.50000000E-01  7.20000000E-01  7.20000000E-01  8.50000000E-01
  7.20000000E-01  8.50000000E-01  7.20000000E-01  8.50000000E-01  7.20000000E-01
  8.50000000E-01  7.20000000E-01  8.50000000E-01  7.20000000E-01  8.50000000E-01
  7.20000000E-01  8.50000000E-01  7.20000000E-01  8.50000000E-01  7.20000000E-01
  8.50000000E-01  8.50000000E-01  7.20000000E-01  8.50000000E-01  8.50000000E-01
  8.50000000E-01  7.20000000E-01  8.50000000E-01  7.20000000E-01  8.50000000E-01
  8.50000000E-01  7.20000000E-01  8.50000000E-01  8.50000000E-01  7.20000000E-01
  8.50000000E-01  8.50000000E-01  8.50000000E-01  8.50000000E-01  8.50000000E-01
  8.50000000E-01  8.50000000E-01  8.50000000E-01  7.20000000E-01  7.20000000E-01
  7.20000000E-01  7.20000000E-01  7.20000000E-01  7.20000000E-01  8.50000000E-01
  8.50000000E-01  8.50000000E-01  8.50000000E-01  8.50000000E-01  8.50000000E-01
  8.50000000E-01  8.50000000E-01  8.50000000E-01  8.50000000E-01  8.50000000E-01
  8.50000000E-01  8.50000000E-01  8.50000000E-01  8.50000000E-01  8.50000000E-01
  8.50000000E-01  8.50000000E-01  8.50000000E-01  7.20000000E-01  7.20000000E-01
  7.20000000E-01  7.20000000E-01  8.50000000E-01  8.50000000E-01  8.50000000E-01
  7.20000000E-01  8.50000000E-01  7.20000000E-01  8.50000000E-01  7.20000000E-01
  8.50000000E-01  8.50000000E-01  7.90000000E-01  7.20000000E-01  7.20000000E-01
  7.20000000E-01  7.20000000E-01  7.20000000E-01  7.20000000E-01  7.20000000E-01
  8.50000000E-01  7.20000000E-01  8.50000000E-01  7.20000000E-01  8.50000000E-01
  7.20000000E-01  8.50000000E-01  7.20000000E-01  7.20000000E-01  8.50000000E-01
  7.20000000E-01  8.50000000E-01  8.50000000E-01  7.20000000E-01  7.20000000E-01
  7.20000000E-01  7.20000000E-01  8.50000000E-01  7.20000000E-01  7.20000000E-01
  7.20000000E-01  7.20000000E-01  7.20000000E-01  7.20000000E-01  7.20000000E-01
  7.20000000E-01  8.50000000E-01  7.20000000E-01  8.50000000E-01  7.20000000E-01
  8.50000000E-01  7.20000000E-01  8.50000000E-01  7.20000000E-01  7.20000000E-01
  8.50000000E-01  8.50000000E-01  8.50000000E-01  8.50000000E-01  7.90000000E-01
  7.90000000E-01  7.20000000E-01  8.50000000E-01  7.90000000E-01  7.20000000E-01
  8.50000000E-01  7.20000000E-01  7.20000000E-01  7.20000000E-01  7.20000000E-01
  8.50000000E-01  7.20000000E-01  7.20000000E-01  8.50000000E-01  7.20000000E-01
  7.20000000E-01  7.20000000E-01  7.20000000E-01  7.20000000E-01  7.20000000E-01
  7.20000000E-01  7.20000000E-01  7.20000000E-01  7.20000000E-01  7.20000000E-01
  7.20000000E-01  7.20000000E-01  8.50000000E-01  7.20000000E-01  8.50000000E-01
  8.50000000E-01  7.20000000E-01  8.50000000E-01  7.20000000E-01  7.20000000E-01
  8.50000000E-01  7.20000000E-01  8.50000000E-01  7.20000000E-01  8.50000000E-01
  7.20000000E-01  8.50000000E-01  7.20000000E-01  8.50000000E-01  7.20000000E-01
  8.50000000E-01  7.20000000E-01  8.50000000E-01  7.20000000E-01  8.50000000E-01
  7.20000000E-01  8.50000000E-01  8.50000000E-01  7.20000000E-01  8.50000000E-01
  8.50000000E-01  8.50000000E-01  7.20000000E-01  8.50000000E-01  7.20000000E-01
  8.50000000E-01  8.50000000E-01  7.20000000E-01  8.50000000E-01  8.50000000E-01
  7.20000000E-01  8.50000000E-01  8.50000000E-01  8.50000000E-01  8.50000000E-01
  8.50000000E-01  8.50000000E-01  8.50000000E-01  8.50000000E-01  7.20000000E-01
  7.20000000E-01  7.20000000E-01  7.20000000E-01  7.20000000E-01  7.20000000E-01
  8.50000000E-01  8.50000000E-01  8.50000000E-01  8.50000000E-01  8.50000000E-01
  8.50000000E-01  8.50000000E-01  8.50000000E-01  8.50000000E-01  8.50000000E-01
  8.50000000E-01  8.50000000E-01  8.50000000E-01  8.50000000E-01  8.50000000E-01
  8.50000000E-01  8.50000000E-01  8.50000000E-01  8.50000000E-01  7.20000000E-01
  7.20000000E-01  7.20000000E-01  7.20000000E-01  8.50000000E-01  8.50000000E-01
  8.50000000E-01  7.20000000E-01  8.50000000E-01  7.20000000E-01  8.50000000E-01
  7.20000000E-01  8.50000000E-01  8.50000000E-01  7.90000000E-01  7.20000000E-01
  7.20000000E-01  7.20000000E-01  7.20000000E-01  7.20000000E-01  7.20000000E-01
  7.20000000E-01  8.50000000E-01  7.20000000E-01  8.50000000E-01  7.20000000E-01
  8.50000000E-01  7.20000000E-01  8.50000000E-01  7.20000000E-01  7.20000000E-01
  8.50000000E-01  7.20000000E-01  8.50000000E-01  8.50000000E-01  7.20000000E-01
  7.20000000E-01  7.20000000E-01  7.20000000E-01  8.50000000E-01  7.20000000E-01
  7.20000000E-01  7.20000000E-01  7.20000000E-01  7.20000000E-01  7.20000000E-01
  7.20000000E-01  7.20000000E-01  8.50000000E-01  7.20000000E-01  8.50000000E-01
  7.20000000E-01  8.50000000E-01  7.20000000E-01  8.50000000E-01  7.20000000E-01
  7.20000000E-01  8.50000000E-01  8.50000000E-01  8.50000000E-01  8.50000000E-01
  7.90000000E-01  7.90000000E-01  7.20000000E-01  8.50000000E-01  7.90000000E-01
  7.20000000E-01  8.50000000E-01  7.20000000E-01  7.20000000E-01  7.20000000E-01
  7.20000000E-01  8.50000000E-01  7.20000000E-01  7.20000000E-01  8.50000000E-01
  7.20000000E-01  7.20000000E-01  7.20000000E-01  7.20000000E-01  7.20000000E-01
  7.20000000E-01  7.20000000E-01  7.20000000E-01  7.20000000E-01  7.20000000E-01
  7.20000000E-01  7.20000000E-01  7.20000000E-01  8.50000000E-01  7.20000000E-01
  8.50000000E-01  8.50000000E-01  7.20000000E-01  8.50000000E-01  7.20000000E-01
  7.20000000E-01  8.50000000E-01  7.20000000E-01  8.50000000E-01  7.20000000E-01
  8.50000000E-01  7.20000000E-01  8.50000000E-01  7.20000000E-01  8.50000000E-01
  7.20000000E-01  8.50000000E-01  7.20000000E-01  8.50000000E-01  7.20000000E-01
  8.50000000E-01  7.20000000E-01  8.50000000E-01  8.50000000E-01  7.20000000E-01
  8.50000000E-01  8.50000000E-01  8.50000000E-01  7.20000000E-01  8.50000000E-01
  7.20000000E-01  8.50000000E-01  8.50000000E-01  7.20000000E-01  8.50000000E-01
  8.50000000E-01  7.20000000E-01  8.50000000E-01  8.50000000E-01  8.50000000E-01
  8.50000000E-01  8.50000000E-01  8.50000000E-01  8.50000000E-01  8.50000000E-01
  7.20000000E-01  7.20000000E-01  7.20000000E-01  7.20000000E-01  7.20000000E-01
  7.20000000E-01  8.50000000E-01  8.50000000E-01  8.50000000E-01  8.50000000E-01
  8.50000000E-01  8.50000000E-01  8.50000000E-01  8.50000000E-01  8.50000000E-01
  8.50000000E-01  8.50000000E-01  8.50000000E-01  8.50000000E-01  8.50000000E-01
  8.50000000E-01  8.50000000E-01  8.50000000E-01  8.50000000E-01  8.50000000E-01
  7.20000000E-01  7.20000000E-01  7.20000000E-01  7.20000000E-01  8.50000000E-01
  8.50000000E-01  8.50000000E-01  7.20000000E-01  8.50000000E-01  7.20000000E-01
  8.50000000E-01  7.20000000E-01  8.50000000E-01  8.50000000E-01  7.90000000E-01
  7.20000000E-01  7.20000000E-01  7.20000000E-01  7.20000000E-01  7.20000000E-01
  7.20000000E-01  7.20000000E-01  8.50000000E-01  7.20000000E-01  8.50000000E-01
  7.20000000E-01  8.50000000E-01  7.20000000E-01  8.50000000E-01  7.20000000E-01
  7.20000000E-01  8.50000000E-01  7.20000000E-01  8.50000000E-01  8.50000000E-01
  7.20000000E-01  7.20000000E-01  7.20000000E-01  7.20000000E-01  8.50000000E-01
  7.20000000E-01  7.20000000E-01  7.20000000E-01  7.20000000E-01  7.20000000E-01
  7.20000000E-01  7.20000000E-01  7.20000000E-01  8.50000000E-01  7.20000000E-01
  8.50000000E-01  7.20000000E-01  8.50000000E-01  7.20000000E-01  8.50000000E-01
  7.20000000E-01  7.20000000E-01  8.50000000E-01  8.50000000E-01  8.50000000E-01
  8.50000000E-01  7.90000000E-01  7.90000000E-01  7.20000000E-01  8.50000000E-01
  7.90000000E-01  7.20000000E-01  8.50000000E-01  7.20000000E-01  7.20000000E-01
  7.20000000E-01  7.20000000E-01  8.50000000E-01  7.20000000E-01  7.20000000E-01
  8.50000000E-01  7.20000000E-01  7.20000000E-01  7.20000000E-01  7.20000000E-01
  7.20000000E-01  7.20000000E-01  7.20000000E-01  7.20000000E-01  7.20000000E-01
  7.20000000E-01  7.20000000E-01  7.20000000E-01  7.20000000E-01  8.50000000E-01
  7.20000000E-01  8.50000000E-01  8.50000000E-01  7.20000000E-01  8.50000000E-01
  7.20000000E-01  7.20000000E-01  8.50000000E-01  7.20000000E-01  8.50000000E-01
  7.20000000E-01  8.50000000E-01  7.20000000E-01  8.50000000E-01  7.20000000E-01
  8.50000000E-01  7.20000000E-01  8.50000000E-01  7.20000000E-01  8.50000000E-01
  7.20000000E-01  8.50000000E-01  7.20000000E-01  8.50000000E-01  8.50000000E-01
  7.20000000E-01  8.50000000E-01  8.50000000E-01  8.50000000E-01  7.20000000E-01
  8.50000000E-01  7.20000000E-01  8.50000000E-01  8.50000000E-01  7.20000000E-01
  8.50000000E-01  8.50000000E-01  7.20000000E-01  8.50000000E-01  8.50000000E-01
  8.50000000E-01  8.50000000E-01  8.50000000E-01  8.50000000E-01  8.50000000E-01
  8.50000000E-01  7.20000000E-01  7.20000000E-01  7.20000000E-01  7.20000000E-01
  7.20000000E-01  7.20000000E-01  8.50000000E-01  8.50000000E-01  8.50000000E-01
  8.50000000E-01  8.50000000E-01  8.50000000E-01  8.50000000E-01  8.50000000E-01
  8.50000000E-01  8.50000000E-01  8.50000000E-01  8.50000000E-01  8.50000000E-01
  8.50000000E-01  8.50000000E-01  8.50000000E-01  8.50000000E-01  8.50000000E-01
  8.50000000E-01  7.20000000E-01  7.20000000E-01  7.20000000E-01  7.20000000E-01
  8.50000000E-01  8.50000000E-01  8.50000000E-01  7.20000000E-01  8.50000000E-01
  7.20000000E-01  8.50000000E-01  7.20000000E-01  8.50000000E-01  8.50000000E-01
  7.90000000E-01  7.20000000E-01  7.20000000E-01  7.20000000E-01  7.20000000E-01
  7.20000000E-01  7.20000000E-01  7.20000000E-01  8.50000000E-01  7.20000000E-01
  8.50000000E-01  7.20000000E-01  8.50000000E-01  7.20000000E-01  8.50000000E-01
  7.20000000E-01  7.20000000E-01  8.50000000E-01  7.20000000E-01  8.50000000E-01
  8.50000000E-01  7.20000000E-01  7.20000000E-01  7.20000000E-01  7.20000000E-01
  8.50000000E-01  7.20000000E-01  7.20000000E-01  7.20000000E-01  7.20000000E-01
  7.20000000E-01  7.20000000E-01  7.20000000E-01  7.20000000E-01  8.50000000E-01
  7.20000000E-01  8.50000000E-01  7.20000000E-01  8.50000000E-01  7.20000000E-01
  8.50000000E-01  7.20000000E-01  7.20000000E-01  8.50000000E-01  8.50000000E-01
  8.50000000E-01  8.50000000E-01  7.90000000E-01  7.90000000E-01  7.20000000E-01
  8.50000000E-01  7.90000000E-01  7.20000000E-01  8.50000000E-01  7.20000000E-01
  7.20000000E-01  7.20000000E-01  7.20000000E-01  8.50000000E-01  7.20000000E-01
  7.20000000E-01  8.50000000E-01  7.20000000E-01  7.20000000E-01  7.20000000E-01
  7.20000000E-01  7.20000000E-01  7.20000000E-01  7.20000000E-01  7.20000000E-01
  7.20000000E-01  7.20000000E-01  7.20000000E-01  7.20000000E-01  7.20000000E-01
  8.50000000E-01  7.20000000E-01  8.50000000E-01  8.50000000E-01  7.20000000E-01
  8.50000000E-01  7.20000000E-01  7.20000000E-01  8.50000000E-01  7.20000000E-01
  8.50000000E-01  7.20000000E-01  8.50000000E-01  7.20000000E-01  8.50000000E-01
  7.20000000E-01  8.50000000E-01  7.20000000E-01  8.50000000E-01  7.20000000E-01
  8.50000000E-01  7.20000000E-01  8.50000000E-01  7.20000000E-01  8.50000000E-01
  8.50000000E-01  7.20000000E-01  8.50000000E-01  8.50000000E-01  8.50000000E-01
  7.20000000E-01  8.50000000E-01  7.20000000E-01  8.50000000E-01  8.50000000E-01
  7.20000000E-01  8.50000000E-01  8.50000000E-01  7.20000000E-01  8.50000000E-01
  8.50000000E-01  8.50000000E-01  8.50000000E-01  8.50000000E-01  8.50000000E-01
  8.50000000E-01  8.50000000E-01  7.20000000E-01  7.20000000E-01  7.20000000E-01
  7.20000000E-01  7.20000000E-01  7.20000000E-01  8.50000000E-01  8.50000000E-01
  8.50000000E-01  8.50000000E-01  8.50000000E-01  8.50000000E-01  8.50000000E-01
  8.50000000E-01  8.50000000E-01  8.50000000E-01  8.50000000E-01  8.50000000E-01
  8.50000000E-01  8.50000000E-01  8.50000000E-01  8.50000000E-01  8.50000000E-01
  8.50000000E-01  8.50000000E-01  7.20000000E-01  7.20000000E-01  7.20000000E-01
  7.20000000E-01  8.50000000E-01  8.50000000E-01  8.50000000E-01  7.20000000E-01
  8.50000000E-01  7.20000000E-01  8.50000000E-01  7.20000000E-01  8.50000000E-01
  8.50000000E-01  7.90000000E-01  7.20000000E-01  7.20000000E-01  7.20000000E-01
  7.20000000E-01  7.20000000E-01  7.20000000E-01  7.20000000E-01  8.50000000E-01
  7.20000000E-01  8.50000000E-01  7.20000000E-01  8.50000000E-01  7.20000000E-01
  8.50000000E-01  7.20000000E-01  7.20000000E-01  8.50000000E-01  7.20000000E-01
  8.50000000E-01  8.50000000E-01  7.20000000E-01  7.20000000E-01  7.20000000E-01
  7.20000000E-01  8.50000000E-01  7.20000000E-01  7.20000000E-01  7.20000000E-01
  7.20000000E-01  7.20000000E-01  7.20000000E-01  7.20000000E-01  7.20000000E-01
  8.50000000E-01  7.20000000E-01  8.50000000E-01  7.20000000E-01  8.50000000E-01
  7.20000000E-01  8.50000000E-01  7.20000000E-01  7.20000000E-01  8.50000000E-01
  8.50000000E-01  8.50000000E-01  8.50000000E-01  7.90000000E-01  7.90000000E-01
  7.20000000E-01  8.50000000E-01  7.90000000E-01  7.20000000E-01  8.50000000E-01
  7.20000000E-01  7.20000000E-01  7.20000000E-01  7.20000000E-01  8.50000000E-01
  7.20000000E-01  7.20000000E-01  8.50000000E-01  7.20000000E-01  7.20000000E-01
  7.20000000E-01  7.20000000E-01  7.20000000E-01  7.20000000E-01  7.20000000E-01
  7.20000000E-01  7.20000000E-01  7.20000000E-01  7.20000000E-01  7.20000000E-01
  7.20000000E-01  8.50000000E-01  7.20000000E-01  8.50000000E-01  8.50000000E-01
  7.20000000E-01  8.50000000E-01  7.20000000E-01  7.20000000E-01  8.50000000E-01
  7.20000000E-01  8.50000000E-01  7.20000000E-01  8.50000000E-01  7.20000000E-01
  8.50000000E-01  7.20000000E-01  8.50000000E-01  7.20000000E-01  8.50000000E-01
  7.20000000E-01  8.50000000E-01  7.20000000E-01  8.50000000E-01  7.20000000E-01
  8.50000000E-01  8.50000000E-01  7.20000000E-01  8.50000000E-01  8.50000000E-01
  8.50000000E-01  7.20000000E-01  8.50000000E-01  7.20000000E-01  8.50000000E-01
  8.50000000E-01  7.20000000E-01  8.50000000E-01  8.50000000E-01  7.20000000E-01
  8.50000000E-01  8.50000000E-01  8.50000000E-01  8.50000000E-01  8.50000000E-01
  8.50000000E-01  8.50000000E-01  8.50000000E-01  7.20000000E-01  7.20000000E-01
  7.20000000E-01  7.20000000E-01  7.20000000E-01  7.20000000E-01  8.50000000E-01
  8.50000000E-01  8.50000000E-01  8.50000000E-01  8.50000000E-01  8.50000000E-01
  8.50000000E-01  8.50000000E-01  8.50000000E-01  8.50000000E-01  8.50000000E-01
  8.50000000E-01  8.50000000E-01  8.50000000E-01  8.50000000E-01  8.50000000E-01
  8.50000000E-01  8.50000000E-01  8.50000000E-01  7.20000000E-01  7.20000000E-01
  7.20000000E-01  7.20000000E-01  8.50000000E-01  8.50000000E-01  8.50000000E-01
  7.20000000E-01  8.50000000E-01  7.20000000E-01  8.50000000E-01  7.20000000E-01
  8.50000000E-01  8.50000000E-01  7.90000000E-01  7.20000000E-01  7.20000000E-01
  7.20000000E-01  7.20000000E-01  7.20000000E-01  7.20000000E-01  7.20000000E-01
  8.50000000E-01  7.20000000E-01  8.50000000E-01  7.20000000E-01  8.50000000E-01
  7.20000000E-01  8.50000000E-01  7.20000000E-01  7.20000000E-01  8.50000000E-01
  7.20000000E-01  8.50000000E-01  8.50000000E-01  7.20000000E-01  7.20000000E-01
  7.20000000E-01  7.20000000E-01  8.50000000E-01  7.20000000E-01  7.20000000E-01
  7.20000000E-01  7.20000000E-01  7.20000000E-01  7.20000000E-01  7.20000000E-01
  7.20000000E-01  8.50000000E-01  7.20000000E-01  8.50000000E-01  7.20000000E-01
  8.50000000E-01  7.20000000E-01  8.50000000E-01  7.20000000E-01  7.20000000E-01
  8.50000000E-01  8.50000000E-01  8.50000000E-01  8.50000000E-01  7.90000000E-01
  7.90000000E-01  7.20000000E-01  8.50000000E-01  7.90000000E-01  7.20000000E-01
  8.50000000E-01  7.20000000E-01  7.20000000E-01  7.20000000E-01  7.20000000E-01
  8.50000000E-01  7.20000000E-01  7.20000000E-01  8.50000000E-01  7.20000000E-01
  7.20000000E-01  7.20000000E-01  7.20000000E-01  7.20000000E-01  7.20000000E-01
  7.20000000E-01  7.20000000E-01  7.20000000E-01  7.20000000E-01  7.20000000E-01
  7.20000000E-01  7.20000000E-01  8.50000000E-01  7.20000000E-01  8.50000000E-01
  8.50000000E-01  7.20000000E-01  8.50000000E-01  7.20000000E-01  7.20000000E-01
  8.50000000E-01  7.20000000E-01  8.50000000E-01  7.20000000E-01  8.50000000E-01
  7.20000000E-01  8.50000000E-01  7.20000000E-01  8.50000000E-01  7.20000000E-01
  8.50000000E-01  7.20000000E-01  8.50000000E-01  7.20000000E-01  8.50000000E-01
  7.20000000E-01  8.50000000E-01  8.50000000E-01  7.20000000E-01  8.50000000E-01
  8.50000000E-01  8.50000000E-01  7.20000000E-01  8.50000000E-01  7.20000000E-01
  8.50000000E-01  8.50000000E-01  7.20000000E-01  8.50000000E-01  8.50000000E-01
  7.20000000E-01  8.50000000E-01  8.50000000E-01  8.50000000E-01  8.50000000E-01
  8.50000000E-01  8.50000000E-01  8.50000000E-01  8.50000000E-01  7.20000000E-01
  7.20000000E-01  7.20000000E-01  7.20000000E-01  7.20000000E-01  7.20000000E-01
  8.50000000E-01  8.50000000E-01  8.50000000E-01  8.50000000E-01  8.50000000E-01
  8.50000000E-01  8.50000000E-01  8.50000000E-01  8.50000000E-01  8.50000000E-01
  8.50000000E-01  8.50000000E-01  8.50000000E-01  8.50000000E-01  8.50000000E-01
  8.50000000E-01  8.50000000E-01  8.50000000E-01  8.50000000E-01  7.20000000E-01
  7.20000000E-01  7.20000000E-01  7.20000000E-01  8.50000000E-01  8.50000000E-01
  8.50000000E-01  7.20000000E-01  8.50000000E-01  7.20000000E-01  8.50000000E-01
  7.20000000E-01  8.50000000E-01  8.50000000E-01  7.90000000E-01  7.20000000E-01
  7.20000000E-01  7.20000000E-01  7.20000000E-01  7.20000000E-01  7.20000000E-01
  7.20000000E-01  8.50000000E-01  7.20000000E-01  8.50000000E-01  7.20000000E-01
  8.50000000E-01  7.20000000E-01  8.50000000E-01  7.20000000E-01  7.20000000E-01
  8.50000000E-01  7.20000000E-01  8.50000000E-01  8.50000000E-01  7.20000000E-01
  7.20000000E-01  7.20000000E-01  7.20000000E-01  8.50000000E-01  7.20000000E-01
  7.20000000E-01  7.20000000E-01  7.20000000E-01  7.20000000E-01  7.20000000E-01
  7.20000000E-01  7.20000000E-01  8.50000000E-01  7.20000000E-01  8.50000000E-01
  7.20000000E-01  8.50000000E-01  7.20000000E-01  8.50000000E-01  7.20000000E-01
  7.20000000E-01  8.50000000E-01  8.50000000E-01  8.50000000E-01  8.50000000E-01
  7.90000000E-01  7.90000000E-01  7.20000000E-01  8.50000000E-01  7.90000000E-01
  7.20000000E-01  8.50000000E-01  7.20000000E-01  7.20000000E-01  7.20000000E-01
  7.20000000E-01  8.50000000E-01  7.20000000E-01  7.20000000E-01  8.50000000E-01
  7.20000000E-01  7.20000000E-01  7.20000000E-01  7.20000000E-01  7.20000000E-01
  7.20000000E-01  7.20000000E-01  7.20000000E-01  7.20000000E-01  7.20000000E-01
  7.20000000E-01  7.20000000E-01  7.20000000E-01  8.50000000E-01  7.20000000E-01
  8.50000000E-01  8.50000000E-01  7.20000000E-01  8.50000000E-01  7.20000000E-01
  7.20000000E-01  8.50000000E-01  7.20000000E-01  8.50000000E-01  7.20000000E-01
  8.50000000E-01  7.20000000E-01  8.50000000E-01  7.20000000E-01  8.50000000E-01
  7.20000000E-01  8.50000000E-01  7.20000000E-01  8.50000000E-01  7.20000000E-01
  8.50000000E-01  7.20000000E-01  8.50000000E-01  8.50000000E-01  7.20000000E-01
  8.50000000E-01  8.50000000E-01  8.50000000E-01  7.20000000E-01  8.50000000E-01
  7.20000000E-01  8.50000000E-01  8.50000000E-01  7.20000000E-01  8.50000000E-01
  8.50000000E-01  7.20000000E-01  8.50000000E-01  8.50000000E-01  8.50000000E-01
  8.50000000E-01  8.50000000E-01  8.50000000E-01  8.50000000E-01  8.50000000E-01
  7.20000000E-01  7.20000000E-01  7.20000000E-01  7.20000000E-01  7.20000000E-01
  7.20000000E-01  8.50000000E-01  8.50000000E-01  8.50000000E-01  8.50000000E-01
  8.50000000E-01  8.50000000E-01  8.50000000E-01  8.50000000E-01  8.50000000E-01
  8.50000000E-01  8.50000000E-01  8.50000000E-01  8.50000000E-01  8.50000000E-01
  8.50000000E-01  8.50000000E-01  8.50000000E-01  8.50000000E-01  8.50000000E-01
  7.20000000E-01  7.20000000E-01  7.20000000E-01  7.20000000E-01  8.50000000E-01
  8.50000000E-01  8.50000000E-01  7.20000000E-01  8.50000000E-01  7.20000000E-01
  8.50000000E-01  7.20000000E-01  8.50000000E-01  8.50000000E-01  7.90000000E-01
  7.20000000E-01  7.20000000E-01  7.20000000E-01  7.20000000E-01  7.20000000E-01
  7.20000000E-01  7.20000000E-01  8.50000000E-01  7.20000000E-01  8.50000000E-01
  7.20000000E-01  8.50000000E-01  7.20000000E-01  8.50000000E-01  7.20000000E-01
  7.20000000E-01  8.50000000E-01  7.20000000E-01  8.50000000E-01  8.50000000E-01
  7.20000000E-01  7.20000000E-01  7.20000000E-01  7.20000000E-01  8.50000000E-01
  7.20000000E-01  7.20000000E-01  7.20000000E-01  7.20000000E-01  7.20000000E-01
  7.20000000E-01  7.20000000E-01  7.20000000E-01  8.50000000E-01  7.20000000E-01
  8.50000000E-01  7.20000000E-01  8.50000000E-01  7.20000000E-01  8.50000000E-01
  7.20000000E-01  7.20000000E-01  8.50000000E-01  8.50000000E-01  8.50000000E-01
  8.50000000E-01  7.90000000E-01  7.90000000E-01  7.20000000E-01  8.50000000E-01
  7.90000000E-01  7.20000000E-01  8.50000000E-01  7.20000000E-01  7.20000000E-01
  7.20000000E-01  7.20000000E-01  8.50000000E-01  7.20000000E-01  7.20000000E-01
  8.50000000E-01  7.20000000E-01  7.20000000E-01  7.20000000E-01  7.20000000E-01
  7.20000000E-01  7.20000000E-01  7.20000000E-01  7.20000000E-01  7.20000000E-01
  7.20000000E-01  7.20000000E-01  7.20000000E-01  7.20000000E-01  8.50000000E-01
  7.20000000E-01  8.50000000E-01  8.50000000E-01  7.20000000E-01  8.50000000E-01
  7.20000000E-01  7.20000000E-01  8.50000000E-01  7.20000000E-01  8.50000000E-01
  7.20000000E-01  8.50000000E-01  7.20000000E-01  8.50000000E-01  7.20000000E-01
  8.50000000E-01  7.20000000E-01  8.50000000E-01  7.20000000E-01  8.50000000E-01
  7.20000000E-01  8.50000000E-01  7.20000000E-01  8.50000000E-01  8.50000000E-01
  7.20000000E-01  8.50000000E-01  8.50000000E-01  8.50000000E-01  7.20000000E-01
  8.50000000E-01  7.20000000E-01  8.50000000E-01  8.50000000E-01  7.20000000E-01
  8.50000000E-01  8.50000000E-01  7.20000000E-01  8.50000000E-01  8.50000000E-01
  8.50000000E-01  8.50000000E-01  8.50000000E-01  8.50000000E-01  8.50000000E-01
  8.50000000E-01  7.20000000E-01  7.20000000E-01  7.20000000E-01  7.20000000E-01
  7.20000000E-01  7.20000000E-01  8.50000000E-01  8.50000000E-01  8.50000000E-01
  8.50000000E-01  8.50000000E-01  8.50000000E-01  8.50000000E-01  8.50000000E-01
  8.50000000E-01  8.50000000E-01  8.50000000E-01  8.50000000E-01  8.50000000E-01
  8.50000000E-01  8.50000000E-01  8.50000000E-01  8.50000000E-01  8.50000000E-01
  8.50000000E-01  7.20000000E-01  7.20000000E-01  7.20000000E-01  7.20000000E-01
  8.50000000E-01  8.50000000E-01  8.50000000E-01  7.20000000E-01  8.50000000E-01
  7.20000000E-01  8.50000000E-01  7.20000000E-01  8.50000000E-01  8.50000000E-01
  7.90000000E-01  7.20000000E-01  7.20000000E-01  7.20000000E-01  7.20000000E-01
  7.20000000E-01  7.20000000E-01  7.20000000E-01  8.50000000E-01  7.20000000E-01
  8.50000000E-01  7.20000000E-01  8.50000000E-01  7.20000000E-01  8.50000000E-01
  7.20000000E-01  7.20000000E-01  8.50000000E-01  7.20000000E-01  8.50000000E-01
  8.50000000E-01  7.20000000E-01  7.20000000E-01  7.20000000E-01  7.20000000E-01
  8.50000000E-01  7.20000000E-01  7.20000000E-01  7.20000000E-01  7.20000000E-01
  7.20000000E-01  7.20000000E-01  7.20000000E-01  7.20000000E-01  8.50000000E-01
  7.20000000E-01  8.50000000E-01  7.20000000E-01  8.50000000E-01  7.20000000E-01
  8.50000000E-01  7.20000000E-01  7.20000000E-01  8.50000000E-01  8.50000000E-01
  8.50000000E-01  8.50000000E-01  7.90000000E-01  7.90000000E-01  7.20000000E-01
  8.50000000E-01  7.90000000E-01  7.20000000E-01  8.50000000E-01  7.20000000E-01
  7.20000000E-01  7.20000000E-01  7.20000000E-01  8.50000000E-01  7.20000000E-01
  7.20000000E-01  8.50000000E-01  7.20000000E-01  7.20000000E-01  7.20000000E-01
  7.20000000E-01  7.20000000E-01  7.20000000E-01  7.20000000E-01  7.20000000E-01
  7.20000000E-01  7.20000000E-01  7.20000000E-01  7.20000000E-01  7.20000000E-01
  8.50000000E-01  7.20000000E-01  8.50000000E-01  8.50000000E-01  7.20000000E-01
  8.50000000E-01  7.20000000E-01  7.20000000E-01  8.50000000E-01  7.20000000E-01
  8.50000000E-01  7.20000000E-01  8.50000000E-01  7.20000000E-01  8.50000000E-01
  7.20000000E-01  8.50000000E-01  7.20000000E-01  8.50000000E-01  7.20000000E-01
  8.50000000E-01  7.20000000E-01  8.50000000E-01  7.20000000E-01  8.50000000E-01
  8.50000000E-01  7.20000000E-01  8.50000000E-01  8.50000000E-01  8.50000000E-01
  7.20000000E-01  8.50000000E-01  7.20000000E-01  8.50000000E-01  8.50000000E-01
  7.20000000E-01  8.50000000E-01  8.50000000E-01  7.20000000E-01  8.50000000E-01
  8.50000000E-01  8.50000000E-01  8.50000000E-01  8.50000000E-01  8.50000000E-01
  8.50000000E-01  8.50000000E-01  7.20000000E-01  7.20000000E-01  7.20000000E-01
  7.20000000E-01  7.20000000E-01  7.20000000E-01  8.50000000E-01  8.50000000E-01
  8.50000000E-01  8.50000000E-01  8.50000000E-01  8.50000000E-01  8.50000000E-01
  8.50000000E-01  8.50000000E-01  8.50000000E-01  8.50000000E-01  8.50000000E-01
  8.50000000E-01  8.50000000E-01  8.50000000E-01  8.50000000E-01  8.50000000E-01
  8.50000000E-01  8.50000000E-01  7.20000000E-01  7.20000000E-01  7.20000000E-01
  7.20000000E-01  8.50000000E-01  8.50000000E-01  8.50000000E-01  7.20000000E-01
  8.50000000E-01  7.20000000E-01  8.50000000E-01  7.20000000E-01  8.50000000E-01
  8.50000000E-01  7.90000000E-01  7.20000000E-01  7.20000000E-01  7.20000000E-01
  7.20000000E-01  7.20000000E-01  7.20000000E-01  7.20000000E-01  8.50000000E-01
  7.20000000E-01  8.50000000E-01  7.20000000E-01  8.50000000E-01  7.20000000E-01
  8.50000000E-01  7.20000000E-01  7.20000000E-01  8.50000000E-01  7.20000000E-01
  8.50000000E-01  8.50000000E-01  7.20000000E-01  7.20000000E-01  7.20000000E-01
  7.20000000E-01  8.50000000E-01  7.20000000E-01  7.20000000E-01  7.20000000E-01
  7.20000000E-01  7.20000000E-01  7.20000000E-01  7.20000000E-01  7.20000000E-01
  8.50000000E-01  7.20000000E-01  8.50000000E-01  7.20000000E-01  8.50000000E-01
  7.20000000E-01  8.50000000E-01  7.20000000E-01  7.20000000E-01  8.50000000E-01
  8.50000000E-01  8.50000000E-01  8.50000000E-01  7.90000000E-01  7.90000000E-01
  7.20000000E-01  8.50000000E-01  7.90000000E-01  7.20000000E-01  8.50000000E-01
  7.20000000E-01  7.20000000E-01  7.20000000E-01  7.20000000E-01  8.50000000E-01
  7.20000000E-01  7.20000000E-01  8.50000000E-01  7.20000000E-01  7.20000000E-01
  7.20000000E-01  7.20000000E-01  7.20000000E-01  7.20000000E-01  7.20000000E-01
  7.20000000E-01  7.20000000E-01  7.20000000E-01  7.20000000E-01  7.20000000E-01
  7.20000000E-01  8.50000000E-01  7.20000000E-01  8.50000000E-01  8.50000000E-01
  7.20000000E-01  8.50000000E-01  7.20000000E-01  7.20000000E-01  8.50000000E-01
  7.20000000E-01  8.50000000E-01  7.20000000E-01  8.50000000E-01  7.20000000E-01
  8.50000000E-01  7.20000000E-01  8.50000000E-01  7.20000000E-01  8.50000000E-01
  7.20000000E-01  8.50000000E-01  7.20000000E-01  8.50000000E-01  7.20000000E-01
  8.50000000E-01  8.50000000E-01  7.20000000E-01  8.50000000E-01  8.50000000E-01
  8.50000000E-01  7.20000000E-01  8.50000000E-01  7.20000000E-01  8.50000000E-01
  8.50000000E-01  7.20000000E-01  8.50000000E-01  8.50000000E-01  7.20000000E-01
  8.50000000E-01  8.50000000E-01  8.50000000E-01  8.50000000E-01  8.50000000E-01
  8.50000000E-01  8.50000000E-01  8.50000000E-01  7.20000000E-01  7.20000000E-01
  7.20000000E-01  7.20000000E-01  7.20000000E-01  7.20000000E-01  8.50000000E-01
  8.50000000E-01  8.50000000E-01  8.50000000E-01  8.50000000E-01  8.50000000E-01
  8.50000000E-01  8.50000000E-01  8.50000000E-01  8.50000000E-01  8.50000000E-01
  8.50000000E-01  8.50000000E-01  8.50000000E-01  8.50000000E-01  8.50000000E-01
  8.50000000E-01  8.50000000E-01  8.50000000E-01  7.20000000E-01  7.20000000E-01
  7.20000000E-01  7.20000000E-01  8.50000000E-01  8.50000000E-01  8.50000000E-01
  7.20000000E-01  8.50000000E-01  7.20000000E-01  8.50000000E-01  7.20000000E-01
  8.50000000E-01  8.50000000E-01  7.90000000E-01  7.20000000E-01  7.20000000E-01
  7.20000000E-01  7.20000000E-01  7.20000000E-01  7.20000000E-01  7.20000000E-01
  8.50000000E-01  7.20000000E-01  8.50000000E-01  7.20000000E-01  8.50000000E-01
  7.20000000E-01  8.50000000E-01  7.20000000E-01  7.20000000E-01  8.50000000E-01
  7.20000000E-01  8.50000000E-01  8.50000000E-01  7.20000000E-01  7.20000000E-01
  7.20000000E-01  7.20000000E-01  8.50000000E-01  7.20000000E-01  7.20000000E-01
  7.20000000E-01  7.20000000E-01  7.20000000E-01  7.20000000E-01  7.20000000E-01
  7.20000000E-01  8.50000000E-01  7.20000000E-01  8.50000000E-01  7.20000000E-01
  8.50000000E-01  7.20000000E-01  8.50000000E-01  7.20000000E-01  7.20000000E-01
  8.50000000E-01  8.50000000E-01  8.50000000E-01  8.50000000E-01  7.90000000E-01
  7.90000000E-01  7.20000000E-01  8.50000000E-01  7.90000000E-01  7.20000000E-01
  8.50000000E-01  7.20000000E-01  7.20000000E-01  7.20000000E-01  7.20000000E-01
  8.50000000E-01  7.20000000E-01  7.20000000E-01  8.50000000E-01  7.20000000E-01
  7.20000000E-01  7.20000000E-01  7.20000000E-01  7.20000000E-01  7.20000000E-01
  7.20000000E-01  7.20000000E-01  7.20000000E-01  7.20000000E-01  7.20000000E-01
  7.20000000E-01  7.20000000E-01  8.50000000E-01  7.20000000E-01  8.50000000E-01
  8.50000000E-01  7.20000000E-01  8.50000000E-01  7.20000000E-01  7.20000000E-01
  8.50000000E-01  7.20000000E-01  8.50000000E-01  7.20000000E-01  8.50000000E-01
  7.20000000E-01  8.50000000E-01  7.20000000E-01  8.50000000E-01  7.20000000E-01
  8.50000000E-01  7.20000000E-01  8.50000000E-01  7.20000000E-01  8.50000000E-01
  7.20000000E-01  8.50000000E-01  8.50000000E-01  7.20000000E-01  8.50000000E-01
  8.50000000E-01  8.50000000E-01  7.20000000E-01  8.50000000E-01  7.20000000E-01
  8.50000000E-01  8.50000000E-01  7.20000000E-01  8.50000000E-01  8.50000000E-01
  7.20000000E-01  8.50000000E-01  8.50000000E-01  8.50000000E-01  8.50000000E-01
  8.50000000E-01  8.50000000E-01  8.50000000E-01  8.50000000E-01  7.20000000E-01
  7.20000000E-01  7.20000000E-01  7.20000000E-01  7.20000000E-01  7.20000000E-01
  8.50000000E-01  8.50000000E-01  8.50000000E-01  8.50000000E-01  8.50000000E-01
  8.50000000E-01  8.50000000E-01  8.50000000E-01  8.50000000E-01  8.50000000E-01
  8.50000000E-01  8.50000000E-01  8.50000000E-01  8.50000000E-01  8.50000000E-01
  8.50000000E-01  8.50000000E-01  8.50000000E-01  8.50000000E-01  7.20000000E-01
  7.20000000E-01  7.20000000E-01  7.20000000E-01  8.50000000E-01  8.50000000E-01
  8.50000000E-01  7.20000000E-01  8.50000000E-01  7.20000000E-01  8.50000000E-01
  7.20000000E-01  8.50000000E-01  8.50000000E-01  7.90000000E-01  7.20000000E-01
  7.20000000E-01  7.20000000E-01  7.20000000E-01  7.20000000E-01  7.20000000E-01
  7.20000000E-01  8.50000000E-01  7.20000000E-01  8.50000000E-01  7.20000000E-01
  8.50000000E-01  7.20000000E-01  8.50000000E-01  7.20000000E-01  7.20000000E-01
  8.50000000E-01  7.20000000E-01  8.50000000E-01  8.50000000E-01  7.20000000E-01
  7.20000000E-01  7.20000000E-01  7.20000000E-01  8.50000000E-01  7.20000000E-01
  7.20000000E-01  7.20000000E-01  7.20000000E-01  7.20000000E-01  7.20000000E-01
  7.20000000E-01  7.20000000E-01  8.50000000E-01  7.20000000E-01  8.50000000E-01
  7.20000000E-01  8.50000000E-01  7.20000000E-01  8.50000000E-01  7.20000000E-01
  7.20000000E-01  8.50000000E-01  8.50000000E-01  8.50000000E-01  8.50000000E-01
  7.90000000E-01  7.90000000E-01  7.20000000E-01  8.50000000E-01  7.90000000E-01
  7.20000000E-01  8.50000000E-01  7.20000000E-01  7.20000000E-01  7.20000000E-01
  7.20000000E-01  8.50000000E-01  7.20000000E-01  7.20000000E-01  8.50000000E-01
  7.20000000E-01  7.20000000E-01  7.20000000E-01  7.20000000E-01  7.20000000E-01
  7.20000000E-01  7.20000000E-01  7.20000000E-01  7.20000000E-01  7.20000000E-01
  7.20000000E-01  7.20000000E-01  7.20000000E-01  8.50000000E-01  7.20000000E-01
  8.50000000E-01  8.50000000E-01  7.20000000E-01  8.50000000E-01  7.20000000E-01
  7.20000000E-01  8.50000000E-01  7.20000000E-01  8.50000000E-01  7.20000000E-01
  8.50000000E-01  7.20000000E-01  8.50000000E-01  7.20000000E-01  8.50000000E-01
  7.20000000E-01  8.50000000E-01  7.20000000E-01  8.50000000E-01  7.20000000E-01
  8.50000000E-01  7.20000000E-01  8.50000000E-01  8.50000000E-01  7.20000000E-01
  8.50000000E-01  8.50000000E-01  8.50000000E-01  7.20000000E-01  8.50000000E-01
  7.20000000E-01  8.50000000E-01  8.50000000E-01  7.20000000E-01  8.50000000E-01
  8.50000000E-01  7.20000000E-01  8.50000000E-01  8.50000000E-01  8.50000000E-01
  8.50000000E-01  8.50000000E-01  8.50000000E-01  8.50000000E-01  8.50000000E-01
  7.20000000E-01  7.20000000E-01  7.20000000E-01  7.20000000E-01  7.20000000E-01
  7.20000000E-01  8.50000000E-01  8.50000000E-01  8.50000000E-01  8.50000000E-01
  8.50000000E-01  8.50000000E-01  8.50000000E-01  8.50000000E-01  8.50000000E-01
  8.50000000E-01  8.50000000E-01  8.50000000E-01  8.50000000E-01  8.50000000E-01
  8.50000000E-01  8.50000000E-01  8.50000000E-01  8.50000000E-01  8.50000000E-01
  7.20000000E-01  7.20000000E-01  7.20000000E-01  7.20000000E-01  8.50000000E-01
  8.50000000E-01  8.50000000E-01  7.20000000E-01  8.50000000E-01  7.20000000E-01
  8.50000000E-01  7.20000000E-01  8.50000000E-01  8.50000000E-01  7.90000000E-01
  7.20000000E-01  7.20000000E-01  7.20000000E-01  7.20000000E-01  7.20000000E-01
  7.20000000E-01  7.20000000E-01  8.50000000E-01  7.20000000E-01  8.50000000E-01
  7.20000000E-01  8.50000000E-01  7.20000000E-01  8.50000000E-01  7.20000000E-01
  7.20000000E-01  8.50000000E-01  7.20000000E-01  8.50000000E-01  8.50000000E-01
  7.20000000E-01  7.20000000E-01  7.20000000E-01  7.20000000E-01  8.50000000E-01
  7.20000000E-01  7.20000000E-01  7.20000000E-01  7.20000000E-01  7.20000000E-01
  7.20000000E-01  7.20000000E-01  7.20000000E-01  8.50000000E-01  7.20000000E-01
  8.50000000E-01  7.20000000E-01  8.50000000E-01  7.20000000E-01  8.50000000E-01
  7.20000000E-01  7.20000000E-01  8.50000000E-01  8.50000000E-01  8.50000000E-01
  8.50000000E-01  7.90000000E-01  7.90000000E-01  7.20000000E-01  8.50000000E-01
  7.90000000E-01  7.20000000E-01  8.50000000E-01  7.20000000E-01  7.20000000E-01
  7.20000000E-01  7.20000000E-01  8.50000000E-01  7.20000000E-01  7.20000000E-01
  8.50000000E-01  7.20000000E-01  7.20000000E-01  7.20000000E-01  7.20000000E-01
  7.20000000E-01  7.20000000E-01  7.20000000E-01  7.20000000E-01  7.20000000E-01
  7.20000000E-01  7.20000000E-01  7.20000000E-01  7.20000000E-01  8.50000000E-01
  7.20000000E-01  8.50000000E-01  8.50000000E-01  7.20000000E-01  8.50000000E-01
  7.20000000E-01  7.20000000E-01  8.50000000E-01  7.20000000E-01  8.50000000E-01
  7.20000000E-01  8.50000000E-01  7.20000000E-01  8.50000000E-01  7.20000000E-01
  8.50000000E-01  7.20000000E-01  8.50000000E-01  7.20000000E-01  8.50000000E-01
  7.20000000E-01  8.50000000E-01  7.20000000E-01  8.50000000E-01  8.50000000E-01
  7.20000000E-01  8.50000000E-01  8.50000000E-01  8.50000000E-01  7.20000000E-01
  8.50000000E-01  7.20000000E-01  8.50000000E-01  8.50000000E-01  7.20000000E-01
  8.50000000E-01  8.50000000E-01  7.20000000E-01  8.50000000E-01  8.50000000E-01
  8.50000000E-01  8.50000000E-01  8.50000000E-01  8.50000000E-01  8.50000000E-01
  8.50000000E-01  7.20000000E-01  7.20000000E-01  7.20000000E-01  7.20000000E-01
  7.20000000E-01  7.20000000E-01  8.50000000E-01  8.50000000E-01  8.50000000E-01
  8.50000000E-01  8.50000000E-01  8.50000000E-01  8.50000000E-01  8.50000000E-01
  8.50000000E-01  8.50000000E-01  8.50000000E-01  8.50000000E-01  8.50000000E-01
  8.50000000E-01  8.50000000E-01  8.50000000E-01  8.50000000E-01  8.50000000E-01
  8.50000000E-01  7.20000000E-01  7.20000000E-01  7.20000000E-01  7.20000000E-01
  8.50000000E-01  8.50000000E-01  8.50000000E-01  7.20000000E-01  8.50000000E-01
  7.20000000E-01  8.50000000E-01  7.20000000E-01  8.50000000E-01  8.50000000E-01
  7.90000000E-01  7.20000000E-01  7.20000000E-01  7.20000000E-01  7.20000000E-01
  7.20000000E-01  7.20000000E-01  7.20000000E-01  8.50000000E-01  7.20000000E-01
  8.50000000E-01  7.20000000E-01  8.50000000E-01  7.20000000E-01  8.50000000E-01
  7.20000000E-01  7.20000000E-01  8.50000000E-01  7.20000000E-01  8.50000000E-01
  8.50000000E-01  7.20000000E-01  7.20000000E-01  7.20000000E-01  7.20000000E-01
  8.50000000E-01  7.20000000E-01  7.20000000E-01  7.20000000E-01  7.20000000E-01
  7.20000000E-01  7.20000000E-01  7.20000000E-01  7.20000000E-01  8.50000000E-01
  7.20000000E-01  8.50000000E-01  7.20000000E-01  8.50000000E-01  7.20000000E-01
  8.50000000E-01  7.20000000E-01  7.20000000E-01  8.50000000E-01  8.50000000E-01
  8.50000000E-01  8.50000000E-01  7.90000000E-01  7.90000000E-01  7.20000000E-01
  8.50000000E-01  7.90000000E-01  7.20000000E-01  8.50000000E-01  7.20000000E-01
  7.20000000E-01  7.20000000E-01  7.20000000E-01  8.50000000E-01  7.20000000E-01
  7.20000000E-01  8.50000000E-01  7.20000000E-01  7.20000000E-01  7.20000000E-01
  7.20000000E-01  7.20000000E-01  7.20000000E-01  7.20000000E-01  7.20000000E-01
  7.20000000E-01  7.20000000E-01  7.20000000E-01  7.20000000E-01  7.20000000E-01
  8.50000000E-01  7.20000000E-01  8.50000000E-01  8.50000000E-01  7.20000000E-01
  8.50000000E-01  7.20000000E-01  7.20000000E-01  8.50000000E-01  7.20000000E-01
  8.50000000E-01  7.20000000E-01  8.50000000E-01  7.20000000E-01  8.50000000E-01
  7.20000000E-01  8.50000000E-01  7.20000000E-01  8.50000000E-01  7.20000000E-01
  8.50000000E-01  7.20000000E-01  8.50000000E-01  7.20000000E-01  8.50000000E-01
  8.50000000E-01  7.20000000E-01  8.50000000E-01  8.50000000E-01  8.50000000E-01
  7.20000000E-01  8.50000000E-01  7.20000000E-01  8.50000000E-01  8.50000000E-01
  7.20000000E-01  8.50000000E-01  8.50000000E-01  7.20000000E-01  8.50000000E-01
  8.50000000E-01  8.50000000E-01  8.50000000E-01  8.50000000E-01  8.50000000E-01
  8.50000000E-01  8.50000000E-01  7.20000000E-01  7.20000000E-01  7.20000000E-01
  7.20000000E-01  7.20000000E-01  7.20000000E-01  8.50000000E-01  8.50000000E-01
  8.50000000E-01  8.50000000E-01  8.50000000E-01  8.50000000E-01  8.50000000E-01
  8.50000000E-01  8.50000000E-01  8.50000000E-01  8.50000000E-01  8.50000000E-01
  8.50000000E-01  8.50000000E-01  8.50000000E-01  8.50000000E-01  8.50000000E-01
  8.50000000E-01  8.50000000E-01  7.20000000E-01  7.20000000E-01  7.20000000E-01
  7.20000000E-01  8.50000000E-01  8.50000000E-01  8.50000000E-01  7.20000000E-01
  8.50000000E-01  7.20000000E-01  8.50000000E-01  7.20000000E-01  8.50000000E-01
  8.50000000E-01  7.90000000E-01  7.20000000E-01  7.20000000E-01  7.20000000E-01
  7.20000000E-01  7.20000000E-01  7.20000000E-01  7.20000000E-01  8.50000000E-01
  7.20000000E-01  8.50000000E-01  7.20000000E-01  8.50000000E-01  7.20000000E-01
  8.50000000E-01  7.20000000E-01  7.20000000E-01  8.50000000E-01  7.20000000E-01
  8.50000000E-01  8.50000000E-01  7.20000000E-01  7.20000000E-01  7.20000000E-01
  7.20000000E-01  8.50000000E-01  7.20000000E-01  7.20000000E-01  7.20000000E-01
  7.20000000E-01  7.20000000E-01  7.20000000E-01  7.20000000E-01  7.20000000E-01
  8.50000000E-01  7.20000000E-01  8.50000000E-01  7.20000000E-01  8.50000000E-01
  7.20000000E-01  8.50000000E-01  7.20000000E-01  7.20000000E-01  8.50000000E-01
  8.50000000E-01  8.50000000E-01  8.50000000E-01  7.90000000E-01  7.90000000E-01
  7.20000000E-01  8.50000000E-01  7.90000000E-01  7.20000000E-01  8.50000000E-01
  7.20000000E-01  7.20000000E-01  7.20000000E-01  7.20000000E-01  8.50000000E-01
  7.20000000E-01  7.20000000E-01  8.50000000E-01  7.20000000E-01  7.20000000E-01
  7.20000000E-01  7.20000000E-01  7.20000000E-01  7.20000000E-01  7.20000000E-01
  7.20000000E-01  7.20000000E-01  7.20000000E-01  7.20000000E-01  7.20000000E-01
  7.20000000E-01  8.50000000E-01  7.20000000E-01  8.50000000E-01  8.50000000E-01
  7.20000000E-01  8.50000000E-01  7.20000000E-01  7.20000000E-01  8.50000000E-01
  7.20000000E-01  8.50000000E-01  7.20000000E-01  8.50000000E-01  7.20000000E-01
  8.50000000E-01  7.20000000E-01  8.50000000E-01  7.20000000E-01  8.50000000E-01
  7.20000000E-01  8.50000000E-01  7.20000000E-01  8.50000000E-01  7.20000000E-01
  8.50000000E-01  8.50000000E-01  7.20000000E-01  8.50000000E-01  8.50000000E-01
  8.50000000E-01  7.20000000E-01  8.50000000E-01  7.20000000E-01  8.50000000E-01
  8.50000000E-01  7.20000000E-01  8.50000000E-01  8.50000000E-01  7.20000000E-01
  8.50000000E-01  8.50000000E-01  8.50000000E-01  8.50000000E-01  8.50000000E-01
  8.50000000E-01  8.50000000E-01  8.50000000E-01  7.20000000E-01  7.20000000E-01
  7.20000000E-01  7.20000000E-01  7.20000000E-01  7.20000000E-01  8.50000000E-01
  8.50000000E-01  8.50000000E-01  8.50000000E-01  8.50000000E-01  8.50000000E-01
  8.50000000E-01  8.50000000E-01  8.50000000E-01  8.50000000E-01  8.50000000E-01
  8.50000000E-01  8.50000000E-01  8.50000000E-01  8.50000000E-01  8.50000000E-01
  8.50000000E-01  8.50000000E-01  8.50000000E-01  7.20000000E-01  7.20000000E-01
  7.20000000E-01  7.20000000E-01  8.50000000E-01  8.50000000E-01  8.50000000E-01
  7.20000000E-01  8.50000000E-01  7.20000000E-01  8.50000000E-01  7.20000000E-01
  8.50000000E-01  8.50000000E-01  7.90000000E-01  7.20000000E-01  7.20000000E-01
  7.20000000E-01  7.20000000E-01  7.20000000E-01  7.20000000E-01  7.20000000E-01
  8.50000000E-01  7.20000000E-01  8.50000000E-01  7.20000000E-01  8.50000000E-01
  7.20000000E-01  8.50000000E-01  7.20000000E-01  7.20000000E-01  8.50000000E-01
  7.20000000E-01  8.50000000E-01  8.50000000E-01  7.20000000E-01  7.20000000E-01
  7.20000000E-01  7.20000000E-01  8.50000000E-01  7.20000000E-01  7.20000000E-01
  7.20000000E-01  7.20000000E-01  7.20000000E-01  7.20000000E-01  7.20000000E-01
  7.20000000E-01  8.50000000E-01  7.20000000E-01  8.50000000E-01  7.20000000E-01
  8.50000000E-01  7.20000000E-01  8.50000000E-01  7.20000000E-01  7.20000000E-01
  8.50000000E-01  8.50000000E-01  8.50000000E-01  8.50000000E-01  7.90000000E-01
  7.90000000E-01  7.20000000E-01  8.50000000E-01  7.90000000E-01  7.20000000E-01
  8.50000000E-01  7.20000000E-01  7.20000000E-01  7.20000000E-01  7.20000000E-01
  8.50000000E-01  7.20000000E-01  7.20000000E-01  8.50000000E-01  7.20000000E-01
  7.20000000E-01  7.20000000E-01  7.20000000E-01  7.20000000E-01  7.20000000E-01
  7.20000000E-01  7.20000000E-01  7.20000000E-01  7.20000000E-01  7.20000000E-01
  7.20000000E-01  7.20000000E-01  8.50000000E-01  7.20000000E-01  8.50000000E-01
  8.50000000E-01  7.20000000E-01  8.50000000E-01  7.20000000E-01  7.20000000E-01
  8.50000000E-01  7.20000000E-01  8.50000000E-01  7.20000000E-01  8.50000000E-01
  7.20000000E-01  8.50000000E-01  7.20000000E-01  8.50000000E-01  7.20000000E-01
  8.50000000E-01  7.20000000E-01  8.50000000E-01  7.20000000E-01  8.50000000E-01
  7.20000000E-01  8.50000000E-01  8.50000000E-01  7.20000000E-01  8.50000000E-01
  8.50000000E-01  8.50000000E-01  7.20000000E-01  8.50000000E-01  7.20000000E-01
  8.50000000E-01  8.50000000E-01  7.20000000E-01  8.50000000E-01  8.50000000E-01
  7.20000000E-01  8.50000000E-01  8.50000000E-01  8.50000000E-01  8.50000000E-01
  8.50000000E-01  8.50000000E-01  8.50000000E-01  8.50000000E-01  7.20000000E-01
  7.20000000E-01  7.20000000E-01  7.20000000E-01  7.20000000E-01  7.20000000E-01
  8.50000000E-01  8.50000000E-01  8.50000000E-01  8.50000000E-01  8.50000000E-01
  8.50000000E-01  8.50000000E-01  8.50000000E-01  8.50000000E-01  8.50000000E-01
  8.50000000E-01  8.50000000E-01  8.50000000E-01  8.50000000E-01  8.50000000E-01
  8.50000000E-01  8.50000000E-01  8.50000000E-01  8.50000000E-01  7.20000000E-01
  7.20000000E-01  7.20000000E-01  7.20000000E-01  8.50000000E-01  8.50000000E-01
  8.50000000E-01  7.20000000E-01  8.50000000E-01  7.20000000E-01  8.50000000E-01
  7.20000000E-01  8.50000000E-01  8.50000000E-01  7.90000000E-01  7.20000000E-01
  7.20000000E-01  7.20000000E-01  7.20000000E-01  7.20000000E-01  7.20000000E-01
  7.20000000E-01  8.50000000E-01  7.20000000E-01  8.50000000E-01  7.20000000E-01
  8.50000000E-01  7.20000000E-01  8.50000000E-01  7.20000000E-01  7.20000000E-01
  8.50000000E-01  7.20000000E-01  8.50000000E-01  8.50000000E-01  7.20000000E-01
  7.20000000E-01  7.20000000E-01  7.20000000E-01  8.50000000E-01  7.20000000E-01
  7.20000000E-01  7.20000000E-01  7.20000000E-01  7.20000000E-01  7.20000000E-01
  7.20000000E-01  7.20000000E-01  8.50000000E-01  7.20000000E-01  8.50000000E-01
  7.20000000E-01  8.50000000E-01  7.20000000E-01  8.50000000E-01  7.20000000E-01
  7.20000000E-01  8.50000000E-01  8.50000000E-01  8.50000000E-01  8.50000000E-01
  7.90000000E-01  7.90000000E-01  7.20000000E-01  8.50000000E-01  7.90000000E-01
  7.20000000E-01  8.50000000E-01  7.20000000E-01  7.20000000E-01  7.20000000E-01
  7.20000000E-01  8.50000000E-01  7.20000000E-01  7.20000000E-01  8.50000000E-01
  7.20000000E-01  7.20000000E-01  7.20000000E-01  7.20000000E-01  7.20000000E-01
  7.20000000E-01  7.20000000E-01  7.20000000E-01  7.20000000E-01  7.20000000E-01
  7.20000000E-01  7.20000000E-01  7.20000000E-01  8.50000000E-01  7.20000000E-01
  8.50000000E-01  8.50000000E-01  7.20000000E-01  8.50000000E-01  7.20000000E-01
  7.20000000E-01  8.50000000E-01  7.20000000E-01  8.50000000E-01  7.20000000E-01
  8.50000000E-01  7.20000000E-01  8.50000000E-01  7.20000000E-01  8.50000000E-01
  7.20000000E-01  8.50000000E-01  7.20000000E-01  8.50000000E-01  7.20000000E-01
  8.50000000E-01  7.20000000E-01  8.50000000E-01  8.50000000E-01  7.20000000E-01
  8.50000000E-01  8.50000000E-01  8.50000000E-01  7.20000000E-01  8.50000000E-01
  7.20000000E-01  8.50000000E-01  8.50000000E-01  7.20000000E-01  8.50000000E-01
  8.50000000E-01  7.20000000E-01  8.50000000E-01  8.50000000E-01  8.50000000E-01
  8.50000000E-01  8.50000000E-01  8.50000000E-01  8.50000000E-01  8.50000000E-01
  7.20000000E-01  7.20000000E-01  7.20000000E-01  7.20000000E-01  7.20000000E-01
  7.20000000E-01  8.50000000E-01  8.50000000E-01  8.50000000E-01  8.50000000E-01
  8.50000000E-01  8.50000000E-01  8.50000000E-01  8.50000000E-01  8.50000000E-01
  8.50000000E-01  8.50000000E-01  8.50000000E-01  8.50000000E-01  8.50000000E-01
  8.50000000E-01  8.50000000E-01  8.50000000E-01  8.50000000E-01  8.50000000E-01
  7.20000000E-01  7.20000000E-01  7.20000000E-01  7.20000000E-01  8.50000000E-01
  8.50000000E-01  8.50000000E-01  7.20000000E-01  8.50000000E-01  7.20000000E-01
  8.50000000E-01  7.20000000E-01  8.50000000E-01  8.50000000E-01  7.90000000E-01
  7.20000000E-01  7.20000000E-01  7.20000000E-01  7.20000000E-01  7.20000000E-01
  7.20000000E-01  7.20000000E-01  8.50000000E-01  7.20000000E-01  8.50000000E-01
  7.20000000E-01  8.50000000E-01  7.20000000E-01  8.50000000E-01  7.20000000E-01
  7.20000000E-01  8.50000000E-01  7.20000000E-01  8.50000000E-01  8.50000000E-01
  7.20000000E-01  7.20000000E-01  7.20000000E-01  7.20000000E-01  8.50000000E-01
  7.20000000E-01  7.20000000E-01  7.20000000E-01  7.20000000E-01  7.20000000E-01
  7.20000000E-01  7.20000000E-01  7.20000000E-01  8.50000000E-01  7.20000000E-01
  8.50000000E-01  7.20000000E-01  8.50000000E-01  7.20000000E-01  8.50000000E-01
  7.20000000E-01  7.20000000E-01  8.50000000E-01  8.50000000E-01  8.50000000E-01
  8.50000000E-01  7.90000000E-01  7.90000000E-01  7.20000000E-01  8.50000000E-01
  7.90000000E-01  7.20000000E-01  8.50000000E-01  7.20000000E-01  7.20000000E-01
  7.20000000E-01  7.20000000E-01  8.50000000E-01  7.20000000E-01  7.20000000E-01
  8.50000000E-01  7.20000000E-01  7.20000000E-01  7.20000000E-01  7.20000000E-01
  7.20000000E-01  7.20000000E-01  7.20000000E-01  7.20000000E-01  7.20000000E-01
  7.20000000E-01  7.20000000E-01  7.20000000E-01  7.20000000E-01  8.50000000E-01
  7.20000000E-01  8.50000000E-01  8.50000000E-01  7.20000000E-01  8.50000000E-01
  7.20000000E-01  7.20000000E-01  8.50000000E-01  7.20000000E-01  8.50000000E-01
  7.20000000E-01  8.50000000E-01  7.20000000E-01  8.50000000E-01  7.20000000E-01
  8.50000000E-01  7.20000000E-01  8.50000000E-01  7.20000000E-01  8.50000000E-01
  7.20000000E-01  8.50000000E-01  7.20000000E-01  8.50000000E-01  8.50000000E-01
  7.20000000E-01  8.50000000E-01  8.50000000E-01  8.50000000E-01  7.20000000E-01
  8.50000000E-01  7.20000000E-01  8.50000000E-01  8.50000000E-01  7.20000000E-01
  8.50000000E-01  8.50000000E-01  7.20000000E-01  8.50000000E-01  8.50000000E-01
  8.50000000E-01  8.50000000E-01  8.50000000E-01  8.50000000E-01  8.50000000E-01
  8.50000000E-01  7.20000000E-01  7.20000000E-01  7.20000000E-01  7.20000000E-01
  7.20000000E-01  7.20000000E-01  8.50000000E-01  8.50000000E-01  8.50000000E-01
  8.50000000E-01  8.50000000E-01  8.50000000E-01  8.50000000E-01  8.50000000E-01
  8.50000000E-01  8.50000000E-01  8.50000000E-01  8.50000000E-01  8.50000000E-01
  8.50000000E-01  8.50000000E-01  8.50000000E-01  8.50000000E-01  8.50000000E-01
  8.50000000E-01  7.20000000E-01  7.20000000E-01  7.20000000E-01  7.20000000E-01
  8.50000000E-01  8.50000000E-01  8.50000000E-01  7.20000000E-01  8.50000000E-01
  7.20000000E-01  8.50000000E-01  7.20000000E-01  8.50000000E-01  8.50000000E-01
  7.90000000E-01  7.20000000E-01  7.20000000E-01  7.20000000E-01  7.20000000E-01
  7.20000000E-01  7.20000000E-01  7.20000000E-01  8.50000000E-01  7.20000000E-01
  8.50000000E-01  7.20000000E-01  8.50000000E-01  7.20000000E-01  8.50000000E-01
  7.20000000E-01  7.20000000E-01  8.50000000E-01  7.20000000E-01  8.50000000E-01
  8.50000000E-01  7.20000000E-01  7.20000000E-01  7.20000000E-01  7.20000000E-01
  8.50000000E-01  7.20000000E-01  7.20000000E-01  7.20000000E-01  7.20000000E-01
  7.20000000E-01  7.20000000E-01  7.20000000E-01  7.20000000E-01  8.50000000E-01
  7.20000000E-01  8.50000000E-01  7.20000000E-01  8.50000000E-01  7.20000000E-01
  8.50000000E-01  7.20000000E-01  7.20000000E-01  8.50000000E-01  8.50000000E-01
  8.50000000E-01  8.50000000E-01  7.90000000E-01  7.90000000E-01  7.20000000E-01
  8.50000000E-01  7.90000000E-01  7.20000000E-01  8.50000000E-01  7.20000000E-01
  7.20000000E-01  7.20000000E-01  7.20000000E-01  8.50000000E-01  7.20000000E-01
  7.20000000E-01  8.50000000E-01  7.20000000E-01  7.20000000E-01  7.20000000E-01
  7.20000000E-01  7.20000000E-01  7.20000000E-01  7.20000000E-01  7.20000000E-01
  7.20000000E-01  7.20000000E-01  7.20000000E-01  7.20000000E-01  7.20000000E-01
  8.50000000E-01  7.20000000E-01  8.50000000E-01  8.50000000E-01  7.20000000E-01
  8.50000000E-01  7.20000000E-01  7.20000000E-01  8.50000000E-01  7.20000000E-01
  8.50000000E-01  7.20000000E-01  8.50000000E-01  7.20000000E-01  8.50000000E-01
  7.20000000E-01  8.50000000E-01  7.20000000E-01  8.50000000E-01  7.20000000E-01
  8.50000000E-01  7.20000000E-01  8.50000000E-01  7.20000000E-01  8.50000000E-01
  8.50000000E-01  7.20000000E-01  8.50000000E-01  8.50000000E-01  8.50000000E-01
  7.20000000E-01  8.50000000E-01  7.20000000E-01  8.50000000E-01  8.50000000E-01
  7.20000000E-01  8.50000000E-01  8.50000000E-01  7.20000000E-01  8.50000000E-01
  8.50000000E-01  8.50000000E-01  8.50000000E-01  8.50000000E-01  8.50000000E-01
  8.50000000E-01  8.50000000E-01  7.20000000E-01  7.20000000E-01  7.20000000E-01
  7.20000000E-01  7.20000000E-01  7.20000000E-01  8.50000000E-01  8.50000000E-01
  8.50000000E-01  8.50000000E-01  8.50000000E-01  8.50000000E-01  8.50000000E-01
  8.50000000E-01  8.50000000E-01  8.50000000E-01  8.50000000E-01  8.50000000E-01
  8.50000000E-01  8.50000000E-01  8.50000000E-01  8.50000000E-01  8.50000000E-01
  8.50000000E-01  8.50000000E-01  7.20000000E-01  7.20000000E-01  7.20000000E-01
  7.20000000E-01  8.50000000E-01  8.50000000E-01  8.50000000E-01  7.20000000E-01
  8.50000000E-01  7.20000000E-01  8.50000000E-01  7.20000000E-01  8.50000000E-01
  8.50000000E-01  7.90000000E-01  7.20000000E-01  7.20000000E-01  7.20000000E-01
  7.20000000E-01  7.20000000E-01  7.20000000E-01  7.20000000E-01  8.50000000E-01
  7.20000000E-01  8.50000000E-01  7.20000000E-01  8.50000000E-01  7.20000000E-01
  8.50000000E-01  7.20000000E-01  7.20000000E-01  8.50000000E-01  7.20000000E-01
  8.50000000E-01  8.50000000E-01  7.20000000E-01  7.20000000E-01  7.20000000E-01
  7.20000000E-01  8.50000000E-01  7.20000000E-01  7.20000000E-01  7.20000000E-01
  7.20000000E-01  7.20000000E-01  7.20000000E-01  7.20000000E-01  7.20000000E-01
  8.50000000E-01  7.20000000E-01  8.50000000E-01  7.20000000E-01  8.50000000E-01
  7.20000000E-01  8.50000000E-01  7.20000000E-01  7.20000000E-01  8.50000000E-01
  8.50000000E-01  8.50000000E-01  8.50000000E-01  7.90000000E-01  7.90000000E-01
  7.20000000E-01  8.50000000E-01  7.90000000E-01  7.20000000E-01  8.50000000E-01
  7.20000000E-01  7.20000000E-01  7.20000000E-01  7.20000000E-01  8.50000000E-01
  7.20000000E-01  7.20000000E-01  8.50000000E-01  7.20000000E-01  7.20000000E-01
  7.20000000E-01  7.20000000E-01  7.20000000E-01  7.20000000E-01  7.20000000E-01
  7.20000000E-01  7.20000000E-01  7.20000000E-01  7.20000000E-01  7.20000000E-01
  7.20000000E-01  8.50000000E-01  7.20000000E-01  8.50000000E-01  8.50000000E-01
  7.20000000E-01  8.50000000E-01  7.20000000E-01  7.20000000E-01  8.50000000E-01
  7.20000000E-01  8.50000000E-01  7.20000000E-01  8.50000000E-01  7.20000000E-01
  8.50000000E-01  7.20000000E-01  8.50000000E-01  7.20000000E-01  8.50000000E-01
  7.20000000E-01  8.50000000E-01  7.20000000E-01  8.50000000E-01  7.20000000E-01
  8.50000000E-01  8.50000000E-01  7.20000000E-01  8.50000000E-01  8.50000000E-01
  8.50000000E-01  7.20000000E-01  8.50000000E-01  7.20000000E-01  8.50000000E-01
  8.50000000E-01  7.20000000E-01  8.50000000E-01  8.50000000E-01  7.20000000E-01
  8.50000000E-01  8.50000000E-01  8.50000000E-01  8.50000000E-01  8.50000000E-01
  8.50000000E-01  8.50000000E-01  8.50000000E-01  7.20000000E-01  7.20000000E-01
  7.20000000E-01  7.20000000E-01  7.20000000E-01  7.20000000E-01  8.50000000E-01
  8.50000000E-01  8.50000000E-01  8.50000000E-01  8.50000000E-01  8.50000000E-01
  8.50000000E-01  8.50000000E-01  8.50000000E-01  8.50000000E-01  8.50000000E-01
  8.50000000E-01  8.50000000E-01  8.50000000E-01  8.50000000E-01  8.50000000E-01
  8.50000000E-01  8.50000000E-01  8.50000000E-01  7.20000000E-01  7.20000000E-01
  7.20000000E-01  7.20000000E-01  8.50000000E-01  8.50000000E-01  8.50000000E-01
  7.20000000E-01  8.50000000E-01  7.20000000E-01  8.50000000E-01  7.20000000E-01
  8.50000000E-01  8.50000000E-01  7.90000000E-01  7.20000000E-01  7.20000000E-01
  7.20000000E-01  7.20000000E-01  7.20000000E-01  7.20000000E-01  7.20000000E-01
  8.50000000E-01  7.20000000E-01  8.50000000E-01  7.20000000E-01  8.50000000E-01
  7.20000000E-01  8.50000000E-01  7.20000000E-01  7.20000000E-01  8.50000000E-01
  7.20000000E-01  8.50000000E-01  8.50000000E-01  7.20000000E-01  7.20000000E-01
  7.20000000E-01  7.20000000E-01  8.50000000E-01  7.20000000E-01  7.20000000E-01
  7.20000000E-01  7.20000000E-01  7.20000000E-01  7.20000000E-01  7.20000000E-01
  7.20000000E-01  8.50000000E-01  7.20000000E-01  8.50000000E-01  7.20000000E-01
  8.50000000E-01  7.20000000E-01  8.50000000E-01  7.20000000E-01  7.20000000E-01
  8.50000000E-01  8.50000000E-01  8.50000000E-01  8.50000000E-01  7.90000000E-01
  7.90000000E-01  7.20000000E-01  8.50000000E-01  7.90000000E-01  7.20000000E-01
  8.50000000E-01  7.20000000E-01  7.20000000E-01  7.20000000E-01  7.20000000E-01
  8.50000000E-01  7.20000000E-01  7.20000000E-01  8.50000000E-01  7.20000000E-01
  7.20000000E-01  7.20000000E-01  7.20000000E-01  7.20000000E-01  7.20000000E-01
  7.20000000E-01  7.20000000E-01  7.20000000E-01  7.20000000E-01  7.20000000E-01
  7.20000000E-01  7.20000000E-01  8.50000000E-01  7.20000000E-01  8.50000000E-01
  8.50000000E-01  7.20000000E-01  8.50000000E-01  7.20000000E-01  7.20000000E-01
  8.50000000E-01  7.20000000E-01  8.50000000E-01  7.20000000E-01  8.50000000E-01
  7.20000000E-01  8.50000000E-01  7.20000000E-01  8.50000000E-01  7.20000000E-01
  8.50000000E-01  7.20000000E-01  8.50000000E-01  7.20000000E-01  8.50000000E-01
  7.20000000E-01  8.50000000E-01  8.50000000E-01  7.20000000E-01  8.50000000E-01
  8.50000000E-01  8.50000000E-01  7.20000000E-01  8.50000000E-01  7.20000000E-01
  8.50000000E-01  8.50000000E-01  7.20000000E-01  8.50000000E-01  8.50000000E-01
  7.20000000E-01  8.50000000E-01  8.50000000E-01  8.50000000E-01  8.50000000E-01
  8.50000000E-01  8.50000000E-01  8.50000000E-01  8.50000000E-01  7.20000000E-01
  7.20000000E-01  7.20000000E-01  7.20000000E-01  7.20000000E-01  7.20000000E-01
  8.50000000E-01  8.50000000E-01  8.50000000E-01  8.50000000E-01  8.50000000E-01
  8.50000000E-01  8.50000000E-01  8.50000000E-01  8.50000000E-01  8.50000000E-01
  8.50000000E-01  8.50000000E-01  8.50000000E-01  8.50000000E-01  8.50000000E-01
  8.50000000E-01  8.50000000E-01  8.50000000E-01  8.50000000E-01  7.20000000E-01
  7.20000000E-01  7.20000000E-01  7.20000000E-01  8.50000000E-01  8.50000000E-01
  8.50000000E-01  7.20000000E-01  8.50000000E-01  7.20000000E-01  8.50000000E-01
  7.20000000E-01  8.50000000E-01  8.50000000E-01  7.90000000E-01  7.20000000E-01
  7.20000000E-01  7.20000000E-01  7.20000000E-01  7.20000000E-01  7.20000000E-01
  7.20000000E-01  8.50000000E-01  7.20000000E-01  8.50000000E-01  7.20000000E-01
  8.50000000E-01  7.20000000E-01  8.50000000E-01  7.20000000E-01  7.20000000E-01
  8.50000000E-01  7.20000000E-01  8.50000000E-01  8.50000000E-01  7.20000000E-01
  7.20000000E-01  7.20000000E-01  7.20000000E-01  8.50000000E-01  7.20000000E-01
  7.20000000E-01  7.20000000E-01  7.20000000E-01  7.20000000E-01  7.20000000E-01
  7.20000000E-01  7.20000000E-01  8.50000000E-01  7.20000000E-01  8.50000000E-01
  7.20000000E-01  8.50000000E-01  7.20000000E-01  8.50000000E-01  7.20000000E-01
  7.20000000E-01  8.50000000E-01  8.50000000E-01  8.50000000E-01  8.50000000E-01
  7.90000000E-01  7.90000000E-01  7.20000000E-01  8.50000000E-01  7.90000000E-01
  7.20000000E-01  8.50000000E-01  7.20000000E-01  7.20000000E-01  7.20000000E-01
  7.20000000E-01  8.50000000E-01  7.20000000E-01  7.20000000E-01  8.50000000E-01
  7.20000000E-01  7.20000000E-01  7.20000000E-01  7.20000000E-01  7.20000000E-01
  7.20000000E-01  7.20000000E-01  7.20000000E-01  7.20000000E-01  7.20000000E-01
  7.20000000E-01  7.20000000E-01  7.20000000E-01  8.50000000E-01  7.20000000E-01
  8.50000000E-01  8.50000000E-01  7.20000000E-01  8.50000000E-01  7.20000000E-01
  7.20000000E-01  8.50000000E-01  7.20000000E-01  8.50000000E-01  7.20000000E-01
  8.50000000E-01  7.20000000E-01  8.50000000E-01  7.20000000E-01  8.50000000E-01
  7.20000000E-01  8.50000000E-01  7.20000000E-01  8.50000000E-01  7.20000000E-01
  8.50000000E-01  7.20000000E-01  8.50000000E-01  8.50000000E-01  7.20000000E-01
  8.50000000E-01  8.50000000E-01  8.50000000E-01  7.20000000E-01  8.50000000E-01
  7.20000000E-01  8.50000000E-01  8.50000000E-01  7.20000000E-01  8.50000000E-01
  8.50000000E-01  7.20000000E-01  8.50000000E-01  8.50000000E-01  8.50000000E-01
  8.50000000E-01  8.50000000E-01  8.50000000E-01  8.50000000E-01  8.50000000E-01
  7.20000000E-01  7.20000000E-01  7.20000000E-01  7.20000000E-01  7.20000000E-01
  7.20000000E-01  8.50000000E-01  8.50000000E-01  8.50000000E-01  8.50000000E-01
  8.50000000E-01  8.50000000E-01  8.50000000E-01  8.50000000E-01  8.50000000E-01
  8.50000000E-01  8.50000000E-01  8.50000000E-01  8.50000000E-01  8.50000000E-01
  8.50000000E-01  8.50000000E-01  8.50000000E-01  8.50000000E-01  8.50000000E-01
  7.20000000E-01  7.20000000E-01  7.20000000E-01  7.20000000E-01  8.50000000E-01
  8.50000000E-01  8.50000000E-01  7.20000000E-01  8.50000000E-01  7.20000000E-01
  8.50000000E-01  7.20000000E-01  8.50000000E-01  8.50000000E-01  7.90000000E-01
  7.20000000E-01  7.20000000E-01  7.20000000E-01  7.20000000E-01  7.20000000E-01
  7.20000000E-01  7.20000000E-01  8.50000000E-01  7.20000000E-01  8.50000000E-01
  7.20000000E-01  8.50000000E-01  7.20000000E-01  8.50000000E-01  7.20000000E-01
  7.20000000E-01  8.50000000E-01  7.20000000E-01  8.50000000E-01  8.50000000E-01
  7.20000000E-01  7.20000000E-01  7.20000000E-01  7.20000000E-01  8.50000000E-01
  7.20000000E-01  7.20000000E-01  7.20000000E-01  7.20000000E-01  7.20000000E-01
  7.20000000E-01  7.20000000E-01  7.20000000E-01  8.50000000E-01  7.20000000E-01
  8.50000000E-01  7.20000000E-01  8.50000000E-01  7.20000000E-01  8.50000000E-01
  7.20000000E-01  7.20000000E-01  8.50000000E-01  8.50000000E-01  8.50000000E-01
  8.50000000E-01  7.90000000E-01  7.90000000E-01  7.20000000E-01  8.50000000E-01
  7.90000000E-01  7.20000000E-01  8.50000000E-01  7.20000000E-01  7.20000000E-01
  7.20000000E-01  7.20000000E-01  8.50000000E-01  7.20000000E-01  7.20000000E-01
  8.50000000E-01  7.20000000E-01  7.20000000E-01  7.20000000E-01  7.20000000E-01
  7.20000000E-01  7.20000000E-01  7.20000000E-01  7.20000000E-01  7.20000000E-01
  7.20000000E-01  7.20000000E-01  7.20000000E-01  7.20000000E-01  8.50000000E-01
  7.20000000E-01  8.50000000E-01  8.50000000E-01  7.20000000E-01  8.50000000E-01
  7.20000000E-01  7.20000000E-01  8.50000000E-01  7.20000000E-01  8.50000000E-01
  7.20000000E-01  8.50000000E-01  7.20000000E-01  8.50000000E-01  7.20000000E-01
  8.50000000E-01  7.20000000E-01  8.50000000E-01  7.20000000E-01  8.50000000E-01
  7.20000000E-01  8.50000000E-01  7.20000000E-01  8.50000000E-01  8.50000000E-01
  7.20000000E-01  8.50000000E-01  8.50000000E-01  8.50000000E-01  7.20000000E-01
  8.50000000E-01  7.20000000E-01  8.50000000E-01  8.50000000E-01  7.20000000E-01
  8.50000000E-01  8.50000000E-01  7.20000000E-01  8.50000000E-01  8.50000000E-01
  8.50000000E-01  8.50000000E-01  8.50000000E-01  8.50000000E-01  8.50000000E-01
  8.50000000E-01  7.20000000E-01  7.20000000E-01  7.20000000E-01  7.20000000E-01
  7.20000000E-01  7.20000000E-01  8.50000000E-01  8.50000000E-01  8.50000000E-01
  8.50000000E-01  8.50000000E-01  8.50000000E-01  8.50000000E-01  8.50000000E-01
  8.50000000E-01  8.50000000E-01  8.50000000E-01  8.50000000E-01  8.50000000E-01
  8.50000000E-01  8.50000000E-01  8.50000000E-01  8.50000000E-01  8.50000000E-01
  8.50000000E-01  7.20000000E-01  7.20000000E-01  7.20000000E-01  7.20000000E-01
  8.50000000E-01  8.50000000E-01  8.50000000E-01  7.20000000E-01  8.50000000E-01
  7.20000000E-01  8.50000000E-01  7.20000000E-01  8.50000000E-01  8.50000000E-01
  7.90000000E-01  7.20000000E-01  7.20000000E-01  7.20000000E-01  7.20000000E-01
  7.20000000E-01  7.20000000E-01  7.20000000E-01  8.50000000E-01  7.20000000E-01
  8.50000000E-01  7.20000000E-01  8.50000000E-01  7.20000000E-01  8.50000000E-01
  7.20000000E-01  7.20000000E-01  8.50000000E-01  7.20000000E-01  8.50000000E-01
  8.50000000E-01  7.20000000E-01  7.20000000E-01  7.20000000E-01  7.20000000E-01
  8.50000000E-01  7.20000000E-01  7.20000000E-01  7.20000000E-01  7.20000000E-01
  7.20000000E-01  7.20000000E-01  7.20000000E-01  7.20000000E-01  8.50000000E-01
  7.20000000E-01  8.50000000E-01  7.20000000E-01  8.50000000E-01  7.20000000E-01
  8.50000000E-01  7.20000000E-01  7.20000000E-01  8.50000000E-01  8.50000000E-01
  8.50000000E-01  8.50000000E-01  7.90000000E-01  7.90000000E-01  7.20000000E-01
  8.50000000E-01  7.90000000E-01  7.20000000E-01  8.50000000E-01  7.20000000E-01
  7.20000000E-01  7.20000000E-01  7.20000000E-01  8.50000000E-01  7.20000000E-01
  7.20000000E-01  8.50000000E-01  7.20000000E-01  7.20000000E-01  7.20000000E-01
  7.20000000E-01  7.20000000E-01  7.20000000E-01  7.20000000E-01  7.20000000E-01
  7.20000000E-01  7.20000000E-01  7.20000000E-01  7.20000000E-01  7.20000000E-01
  8.50000000E-01  7.20000000E-01  8.50000000E-01  8.50000000E-01  7.20000000E-01
  8.50000000E-01  7.20000000E-01  7.20000000E-01  8.50000000E-01  7.20000000E-01
  8.50000000E-01  7.20000000E-01  8.50000000E-01  7.20000000E-01  8.50000000E-01
  7.20000000E-01  8.50000000E-01  7.20000000E-01  8.50000000E-01  7.20000000E-01
  8.50000000E-01  7.20000000E-01  8.50000000E-01  7.20000000E-01  8.50000000E-01
  8.50000000E-01  7.20000000E-01  8.50000000E-01  8.50000000E-01  8.50000000E-01
  7.20000000E-01  8.50000000E-01  7.20000000E-01  8.50000000E-01  8.50000000E-01
  7.20000000E-01  8.50000000E-01  8.50000000E-01  7.20000000E-01  8.50000000E-01
  8.50000000E-01  8.50000000E-01  8.50000000E-01  8.50000000E-01  8.50000000E-01
  8.50000000E-01  8.50000000E-01  7.20000000E-01  7.20000000E-01  7.20000000E-01
  7.20000000E-01  7.20000000E-01  7.20000000E-01  8.50000000E-01  8.50000000E-01
  8.50000000E-01  8.50000000E-01  8.50000000E-01  8.50000000E-01  8.50000000E-01
  8.50000000E-01  8.50000000E-01  8.50000000E-01  8.50000000E-01  8.50000000E-01
  8.50000000E-01  8.50000000E-01  8.50000000E-01  8.50000000E-01  8.50000000E-01
  8.50000000E-01  8.50000000E-01  7.20000000E-01  7.20000000E-01  7.20000000E-01
  7.20000000E-01  8.50000000E-01  8.50000000E-01  8.50000000E-01  7.20000000E-01
  8.50000000E-01  7.20000000E-01  8.50000000E-01  7.20000000E-01  8.50000000E-01
  8.50000000E-01  7.90000000E-01  7.20000000E-01  7.20000000E-01  7.20000000E-01
  7.20000000E-01  7.20000000E-01  7.20000000E-01  7.20000000E-01  8.50000000E-01
  7.20000000E-01  8.50000000E-01  7.20000000E-01  8.50000000E-01  7.20000000E-01
  8.50000000E-01  7.20000000E-01  7.20000000E-01  8.50000000E-01  7.20000000E-01
  8.50000000E-01  8.50000000E-01  7.20000000E-01  7.20000000E-01  7.20000000E-01
  7.20000000E-01  8.50000000E-01  7.20000000E-01  7.20000000E-01  7.20000000E-01
  7.20000000E-01  7.20000000E-01  7.20000000E-01  7.20000000E-01  7.20000000E-01
  8.50000000E-01  7.20000000E-01  8.50000000E-01  7.20000000E-01  8.50000000E-01
  7.20000000E-01  8.50000000E-01  7.20000000E-01  7.20000000E-01  8.50000000E-01
  8.50000000E-01  8.50000000E-01  8.50000000E-01  7.90000000E-01  7.90000000E-01
  7.20000000E-01  8.50000000E-01  7.90000000E-01  7.20000000E-01  8.50000000E-01
  7.20000000E-01  7.20000000E-01  7.20000000E-01  7.20000000E-01  8.50000000E-01
  7.20000000E-01  7.20000000E-01  8.50000000E-01  7.20000000E-01  7.20000000E-01
  7.20000000E-01  7.20000000E-01  7.20000000E-01  7.20000000E-01  7.20000000E-01
  7.20000000E-01  7.20000000E-01  7.20000000E-01  7.20000000E-01  7.20000000E-01
  7.20000000E-01  8.50000000E-01  7.20000000E-01  8.50000000E-01  8.50000000E-01
  7.20000000E-01  8.50000000E-01  7.20000000E-01  7.20000000E-01  8.50000000E-01
  7.20000000E-01  8.50000000E-01  7.20000000E-01  8.50000000E-01  7.20000000E-01
  8.50000000E-01  7.20000000E-01  8.50000000E-01  7.20000000E-01  8.50000000E-01
  7.20000000E-01  8.50000000E-01  7.20000000E-01  8.50000000E-01  7.20000000E-01
  8.50000000E-01  8.50000000E-01  7.20000000E-01  8.50000000E-01  8.50000000E-01
  8.50000000E-01  7.20000000E-01  8.50000000E-01  7.20000000E-01  8.50000000E-01
  8.50000000E-01  7.20000000E-01  8.50000000E-01  8.50000000E-01  7.20000000E-01
  8.50000000E-01  8.50000000E-01  8.50000000E-01  8.50000000E-01  8.50000000E-01
  8.50000000E-01  8.50000000E-01  8.50000000E-01  7.20000000E-01  7.20000000E-01
  7.20000000E-01  7.20000000E-01  7.20000000E-01  7.20000000E-01  8.50000000E-01
  8.50000000E-01  8.50000000E-01  8.50000000E-01  8.50000000E-01  8.50000000E-01
  8.50000000E-01  8.50000000E-01  8.50000000E-01  8.50000000E-01  8.50000000E-01
  8.50000000E-01  8.50000000E-01  8.50000000E-01  8.50000000E-01  8.50000000E-01
  8.50000000E-01  8.50000000E-01  8.50000000E-01  7.20000000E-01  7.20000000E-01
  7.20000000E-01  7.20000000E-01  8.50000000E-01  8.50000000E-01  8.50000000E-01
  7.20000000E-01  8.50000000E-01  7.20000000E-01  8.50000000E-01  7.20000000E-01
  8.50000000E-01  8.50000000E-01  7.90000000E-01  7.20000000E-01  7.20000000E-01
  7.20000000E-01  7.20000000E-01  7.20000000E-01  7.20000000E-01  7.20000000E-01
  8.50000000E-01  7.20000000E-01  8.50000000E-01  7.20000000E-01  8.50000000E-01
  7.20000000E-01  8.50000000E-01  7.20000000E-01  7.20000000E-01  8.50000000E-01
  7.20000000E-01  8.50000000E-01  8.50000000E-01  7.20000000E-01  7.20000000E-01
  7.20000000E-01  7.20000000E-01  8.50000000E-01  7.20000000E-01  7.20000000E-01
  7.20000000E-01  7.20000000E-01  7.20000000E-01  7.20000000E-01  7.20000000E-01
  7.20000000E-01  8.50000000E-01  7.20000000E-01  8.50000000E-01  7.20000000E-01
  8.50000000E-01  7.20000000E-01  8.50000000E-01  7.20000000E-01  7.20000000E-01
  8.50000000E-01  8.50000000E-01  8.50000000E-01  8.50000000E-01  7.90000000E-01
  7.90000000E-01  7.20000000E-01  8.50000000E-01  7.90000000E-01  7.20000000E-01
  8.50000000E-01  7.20000000E-01  7.20000000E-01  7.20000000E-01  7.20000000E-01
  8.50000000E-01  7.20000000E-01  7.20000000E-01  8.50000000E-01  7.20000000E-01
  7.20000000E-01  7.20000000E-01  7.20000000E-01  7.20000000E-01  7.20000000E-01
  7.20000000E-01  7.20000000E-01  7.20000000E-01  7.20000000E-01  7.20000000E-01
  7.20000000E-01  7.20000000E-01  8.50000000E-01  7.20000000E-01  8.50000000E-01
  8.50000000E-01  7.20000000E-01  8.50000000E-01  7.20000000E-01  7.20000000E-01
  8.50000000E-01  7.20000000E-01  8.50000000E-01  7.20000000E-01  8.50000000E-01
  7.20000000E-01  8.50000000E-01  7.20000000E-01  8.50000000E-01  7.20000000E-01
  8.50000000E-01  7.20000000E-01  8.50000000E-01  7.20000000E-01  8.50000000E-01
  7.20000000E-01  8.50000000E-01  8.50000000E-01  7.20000000E-01  8.50000000E-01
  8.50000000E-01  8.50000000E-01  7.20000000E-01  8.50000000E-01  7.20000000E-01
  8.50000000E-01  8.50000000E-01  7.20000000E-01  8.50000000E-01  8.50000000E-01
  7.20000000E-01  8.50000000E-01  8.50000000E-01  8.50000000E-01  8.50000000E-01
  8.50000000E-01  8.50000000E-01  8.50000000E-01  8.50000000E-01  7.20000000E-01
  7.20000000E-01  7.20000000E-01  7.20000000E-01  7.20000000E-01  7.20000000E-01
  8.50000000E-01  8.50000000E-01  8.50000000E-01  8.50000000E-01  8.50000000E-01
  8.50000000E-01  8.50000000E-01  8.50000000E-01  8.50000000E-01  8.50000000E-01
  8.50000000E-01  8.50000000E-01  8.50000000E-01  8.50000000E-01  8.50000000E-01
  8.50000000E-01  8.50000000E-01  8.50000000E-01  8.50000000E-01  7.20000000E-01
  7.20000000E-01  7.20000000E-01  7.20000000E-01  8.50000000E-01  8.50000000E-01
  8.50000000E-01  7.20000000E-01  8.50000000E-01  7.20000000E-01  8.50000000E-01
  7.20000000E-01  8.50000000E-01  8.50000000E-01  7.90000000E-01  7.20000000E-01
  7.20000000E-01  7.20000000E-01  7.20000000E-01  7.20000000E-01  7.20000000E-01
  7.20000000E-01  8.50000000E-01  7.20000000E-01  8.50000000E-01  7.20000000E-01
  8.50000000E-01  7.20000000E-01  8.50000000E-01  7.20000000E-01  7.20000000E-01
  8.50000000E-01  7.20000000E-01  8.50000000E-01  8.50000000E-01  7.20000000E-01
  7.20000000E-01  7.20000000E-01  7.20000000E-01  8.50000000E-01  7.20000000E-01
  7.20000000E-01  7.20000000E-01  7.20000000E-01  7.20000000E-01  7.20000000E-01
  7.20000000E-01  7.20000000E-01  8.50000000E-01  7.20000000E-01  8.50000000E-01
  7.20000000E-01  8.50000000E-01  7.20000000E-01  8.50000000E-01  7.20000000E-01
  7.20000000E-01  8.50000000E-01  8.50000000E-01  8.50000000E-01  8.50000000E-01
  7.90000000E-01  7.90000000E-01  7.20000000E-01  8.50000000E-01  7.90000000E-01
  7.20000000E-01  8.50000000E-01  7.20000000E-01  7.20000000E-01  7.20000000E-01
  7.20000000E-01  8.50000000E-01  7.20000000E-01  7.20000000E-01  8.50000000E-01
  7.20000000E-01  7.20000000E-01  7.20000000E-01  7.20000000E-01  7.20000000E-01
  7.20000000E-01  7.20000000E-01  7.20000000E-01  7.20000000E-01  7.20000000E-01
  7.20000000E-01  7.20000000E-01  7.20000000E-01  8.50000000E-01  7.20000000E-01
  8.50000000E-01  8.50000000E-01  7.20000000E-01  8.50000000E-01  7.20000000E-01
  7.20000000E-01  8.50000000E-01  7.20000000E-01  8.50000000E-01  7.20000000E-01
  8.50000000E-01  7.20000000E-01  8.50000000E-01  7.20000000E-01  8.50000000E-01
  7.20000000E-01  8.50000000E-01  7.20000000E-01  8.50000000E-01  7.20000000E-01
  8.50000000E-01  7.20000000E-01  8.50000000E-01  8.50000000E-01  7.20000000E-01
  8.50000000E-01  8.50000000E-01  8.50000000E-01  7.20000000E-01  8.50000000E-01
  7.20000000E-01  8.50000000E-01  8.50000000E-01  7.20000000E-01  8.50000000E-01
  8.50000000E-01  7.20000000E-01  8.50000000E-01  8.50000000E-01  8.50000000E-01
  8.50000000E-01  8.50000000E-01  8.50000000E-01  8.50000000E-01  8.50000000E-01
  7.20000000E-01  7.20000000E-01  7.20000000E-01  7.20000000E-01  7.20000000E-01
  7.20000000E-01  8.50000000E-01  8.50000000E-01  8.50000000E-01  8.50000000E-01
  8.50000000E-01  8.50000000E-01  8.50000000E-01  8.50000000E-01  8.50000000E-01
  8.50000000E-01  8.50000000E-01  8.50000000E-01  8.50000000E-01  8.50000000E-01
  8.50000000E-01  8.50000000E-01  8.50000000E-01  8.50000000E-01  8.50000000E-01
  7.20000000E-01  7.20000000E-01  7.20000000E-01  7.20000000E-01  8.50000000E-01
  8.50000000E-01  8.50000000E-01  7.20000000E-01  8.50000000E-01  7.20000000E-01
  8.50000000E-01  7.20000000E-01  8.50000000E-01  8.50000000E-01  7.90000000E-01
  7.20000000E-01  7.20000000E-01  7.20000000E-01  7.20000000E-01  7.20000000E-01
  7.20000000E-01  7.20000000E-01  8.50000000E-01  7.20000000E-01  8.50000000E-01
  7.20000000E-01  8.50000000E-01  7.20000000E-01  8.50000000E-01  7.20000000E-01
  7.20000000E-01  8.50000000E-01  7.20000000E-01  8.50000000E-01  8.50000000E-01
  7.20000000E-01  7.20000000E-01  7.20000000E-01  7.20000000E-01  8.50000000E-01
  7.20000000E-01  7.20000000E-01  7.20000000E-01  7.20000000E-01  7.20000000E-01
  7.20000000E-01  7.20000000E-01  7.20000000E-01  8.50000000E-01  7.20000000E-01
  8.50000000E-01  7.20000000E-01  8.50000000E-01  7.20000000E-01  8.50000000E-01
  7.20000000E-01  7.20000000E-01  8.50000000E-01  8.50000000E-01  8.50000000E-01
  8.50000000E-01  7.90000000E-01  7.90000000E-01  7.20000000E-01  8.50000000E-01
  7.90000000E-01  7.20000000E-01  8.50000000E-01  7.20000000E-01  7.20000000E-01
  7.20000000E-01  7.20000000E-01  8.50000000E-01  7.20000000E-01  7.20000000E-01
  8.50000000E-01  7.20000000E-01  7.20000000E-01  7.20000000E-01  7.20000000E-01
  7.20000000E-01  7.20000000E-01  7.20000000E-01  7.20000000E-01  7.20000000E-01
  7.20000000E-01  7.20000000E-01  7.20000000E-01  7.20000000E-01  8.50000000E-01
  7.20000000E-01  8.50000000E-01  8.50000000E-01  7.20000000E-01  8.50000000E-01
  7.20000000E-01  7.20000000E-01  8.50000000E-01  7.20000000E-01  8.50000000E-01
  7.20000000E-01  8.50000000E-01  7.20000000E-01  8.50000000E-01  7.20000000E-01
  8.50000000E-01  7.20000000E-01  8.50000000E-01  7.20000000E-01  8.50000000E-01
  7.20000000E-01  8.50000000E-01  7.20000000E-01  8.50000000E-01  8.50000000E-01
  7.20000000E-01  8.50000000E-01  8.50000000E-01  8.50000000E-01  7.20000000E-01
  8.50000000E-01  7.20000000E-01  8.50000000E-01  8.50000000E-01  7.20000000E-01
  8.50000000E-01  8.50000000E-01  7.20000000E-01  8.50000000E-01  8.50000000E-01
  8.50000000E-01  8.50000000E-01  8.50000000E-01  8.50000000E-01  8.50000000E-01
  8.50000000E-01  7.20000000E-01  7.20000000E-01  7.20000000E-01  7.20000000E-01
  7.20000000E-01  7.20000000E-01  8.50000000E-01  8.50000000E-01  8.50000000E-01
  8.50000000E-01  8.50000000E-01  8.50000000E-01  8.50000000E-01  8.50000000E-01
  8.50000000E-01  8.50000000E-01  8.50000000E-01  8.50000000E-01  8.50000000E-01
  8.50000000E-01  8.50000000E-01  8.50000000E-01  8.50000000E-01  8.50000000E-01
  8.50000000E-01  7.20000000E-01  7.20000000E-01  7.20000000E-01  7.20000000E-01
  8.50000000E-01  8.50000000E-01  8.50000000E-01  7.20000000E-01  8.50000000E-01
  7.20000000E-01  8.50000000E-01  7.20000000E-01  8.50000000E-01  8.50000000E-01
  7.90000000E-01  7.20000000E-01  7.20000000E-01  7.20000000E-01  7.20000000E-01
  7.20000000E-01  7.20000000E-01  7.20000000E-01  8.50000000E-01  7.20000000E-01
  8.50000000E-01  7.20000000E-01  8.50000000E-01  7.20000000E-01  8.50000000E-01
  7.20000000E-01  7.20000000E-01  8.50000000E-01  7.20000000E-01  8.50000000E-01
  8.50000000E-01  7.20000000E-01  7.20000000E-01  7.20000000E-01  7.20000000E-01
  8.50000000E-01  7.20000000E-01  7.20000000E-01  7.20000000E-01  7.20000000E-01
  7.20000000E-01  7.20000000E-01  7.20000000E-01  7.20000000E-01  8.50000000E-01
  7.20000000E-01  8.50000000E-01  7.20000000E-01  8.50000000E-01  7.20000000E-01
  8.50000000E-01  7.20000000E-01  7.20000000E-01  8.50000000E-01  8.50000000E-01
  8.50000000E-01  8.50000000E-01  7.90000000E-01  7.90000000E-01  7.20000000E-01
  8.50000000E-01  7.90000000E-01  7.20000000E-01  8.50000000E-01  7.20000000E-01
  7.20000000E-01  7.20000000E-01  7.20000000E-01  8.50000000E-01  7.20000000E-01
  7.20000000E-01  8.50000000E-01  7.20000000E-01  7.20000000E-01  7.20000000E-01
  7.20000000E-01  7.20000000E-01  7.20000000E-01  7.20000000E-01  7.20000000E-01
  7.20000000E-01  7.20000000E-01  7.20000000E-01  7.20000000E-01  7.20000000E-01
  8.50000000E-01  7.20000000E-01  8.50000000E-01  8.50000000E-01  7.20000000E-01
  8.50000000E-01  7.20000000E-01  7.20000000E-01  8.50000000E-01  7.20000000E-01
  8.50000000E-01  7.20000000E-01  8.50000000E-01  7.20000000E-01  8.50000000E-01
  7.20000000E-01  8.50000000E-01  7.20000000E-01  8.50000000E-01  7.20000000E-01
  8.50000000E-01  7.20000000E-01  8.50000000E-01  7.20000000E-01  8.50000000E-01
  8.50000000E-01  7.20000000E-01  8.50000000E-01  8.50000000E-01  8.50000000E-01
  7.20000000E-01  8.50000000E-01  7.20000000E-01  8.50000000E-01  8.50000000E-01
  7.20000000E-01  8.50000000E-01  8.50000000E-01  7.20000000E-01  8.50000000E-01
  8.50000000E-01  8.50000000E-01  8.50000000E-01  8.50000000E-01  8.50000000E-01
  8.50000000E-01  8.50000000E-01  7.20000000E-01  7.20000000E-01  7.20000000E-01
  7.20000000E-01  7.20000000E-01  7.20000000E-01  8.50000000E-01  8.50000000E-01
  8.50000000E-01  8.50000000E-01  8.50000000E-01  8.50000000E-01  8.50000000E-01
  8.50000000E-01  8.50000000E-01  8.50000000E-01  8.50000000E-01  8.50000000E-01
  8.50000000E-01  8.50000000E-01  8.50000000E-01  8.50000000E-01  8.50000000E-01
  8.50000000E-01  8.50000000E-01  7.20000000E-01  7.20000000E-01  7.20000000E-01
  7.20000000E-01  8.50000000E-01  8.50000000E-01  8.50000000E-01  7.20000000E-01
  8.50000000E-01  7.20000000E-01  8.50000000E-01  7.20000000E-01  8.50000000E-01
  8.50000000E-01  7.90000000E-01  7.20000000E-01  7.20000000E-01  7.20000000E-01
  7.20000000E-01  7.20000000E-01  7.20000000E-01  7.20000000E-01  8.50000000E-01
  7.20000000E-01  8.50000000E-01  7.20000000E-01  8.50000000E-01  7.20000000E-01
  8.50000000E-01  7.20000000E-01  7.20000000E-01  8.50000000E-01  7.20000000E-01
  8.50000000E-01  8.50000000E-01  7.20000000E-01  7.20000000E-01  7.20000000E-01
  7.20000000E-01  8.50000000E-01  7.20000000E-01  7.20000000E-01  7.20000000E-01
  7.20000000E-01  7.20000000E-01  7.20000000E-01  7.20000000E-01  7.20000000E-01
  8.50000000E-01  7.20000000E-01  8.50000000E-01  7.20000000E-01  8.50000000E-01
  7.20000000E-01  8.50000000E-01  7.20000000E-01  7.20000000E-01  8.50000000E-01
  8.50000000E-01  8.50000000E-01  8.50000000E-01  7.90000000E-01  7.90000000E-01
  7.20000000E-01  8.50000000E-01  7.90000000E-01  7.20000000E-01  8.50000000E-01
  7.20000000E-01  7.20000000E-01  7.20000000E-01  7.20000000E-01  8.50000000E-01
  7.20000000E-01  7.20000000E-01  8.50000000E-01  7.20000000E-01  7.20000000E-01
  7.20000000E-01  7.20000000E-01  7.20000000E-01  7.20000000E-01  7.20000000E-01
  7.20000000E-01  7.20000000E-01  7.20000000E-01  7.20000000E-01  7.20000000E-01
  7.20000000E-01  8.50000000E-01  7.20000000E-01  8.50000000E-01  8.50000000E-01
  7.20000000E-01  8.50000000E-01  7.20000000E-01  7.20000000E-01  8.50000000E-01
  7.20000000E-01  8.50000000E-01  7.20000000E-01  8.50000000E-01  7.20000000E-01
  8.50000000E-01  7.20000000E-01  8.50000000E-01  7.20000000E-01  8.50000000E-01
  7.20000000E-01  8.50000000E-01  7.20000000E-01  8.50000000E-01  7.20000000E-01
  8.50000000E-01  8.50000000E-01  7.20000000E-01  8.50000000E-01  8.50000000E-01
  8.50000000E-01  7.20000000E-01  8.50000000E-01  7.20000000E-01  8.50000000E-01
  8.50000000E-01  7.20000000E-01  8.50000000E-01  8.50000000E-01  7.20000000E-01
  8.50000000E-01  8.50000000E-01  8.50000000E-01  8.50000000E-01  8.50000000E-01
  8.50000000E-01  8.50000000E-01  8.50000000E-01  7.20000000E-01  7.20000000E-01
  7.20000000E-01  7.20000000E-01  7.20000000E-01  7.20000000E-01  8.50000000E-01
  8.50000000E-01  8.50000000E-01  8.50000000E-01  8.50000000E-01  8.50000000E-01
  8.50000000E-01  8.50000000E-01  8.50000000E-01  8.50000000E-01  8.50000000E-01
  8.50000000E-01  8.50000000E-01  8.50000000E-01  8.50000000E-01  8.50000000E-01
  8.50000000E-01  8.50000000E-01  8.50000000E-01  7.20000000E-01  7.20000000E-01
  7.20000000E-01  7.20000000E-01  8.50000000E-01  8.50000000E-01  8.50000000E-01
  7.20000000E-01  8.50000000E-01  7.20000000E-01  8.50000000E-01  7.20000000E-01
  8.50000000E-01  8.50000000E-01  7.90000000E-01  7.20000000E-01  7.20000000E-01
  7.20000000E-01  7.20000000E-01  7.20000000E-01  7.20000000E-01  7.20000000E-01
  8.50000000E-01  7.20000000E-01  8.50000000E-01  7.20000000E-01  8.50000000E-01
  7.20000000E-01  8.50000000E-01  7.20000000E-01  7.20000000E-01  8.50000000E-01
  7.20000000E-01  8.50000000E-01  8.50000000E-01  7.20000000E-01  7.20000000E-01
  7.20000000E-01  7.20000000E-01  8.50000000E-01  7.20000000E-01  7.20000000E-01
  7.20000000E-01  7.20000000E-01  7.20000000E-01  7.20000000E-01  7.20000000E-01
  7.20000000E-01  8.50000000E-01  7.20000000E-01  8.50000000E-01  7.20000000E-01
  8.50000000E-01  7.20000000E-01  8.50000000E-01  7.20000000E-01  7.20000000E-01
  8.50000000E-01  8.50000000E-01  8.50000000E-01  8.50000000E-01  7.90000000E-01
  7.90000000E-01  7.20000000E-01  8.50000000E-01  7.90000000E-01  7.20000000E-01
  8.50000000E-01  7.20000000E-01  7.20000000E-01  7.20000000E-01  7.20000000E-01
  8.50000000E-01  7.20000000E-01  7.20000000E-01  8.50000000E-01  7.20000000E-01
  7.20000000E-01  7.20000000E-01  7.20000000E-01  7.20000000E-01  7.20000000E-01
  7.20000000E-01  7.20000000E-01  7.20000000E-01  7.20000000E-01  7.20000000E-01
  7.20000000E-01  7.20000000E-01  8.50000000E-01  7.20000000E-01  8.50000000E-01
  8.50000000E-01  7.20000000E-01  8.50000000E-01  7.20000000E-01  7.20000000E-01
  8.50000000E-01  7.20000000E-01  8.50000000E-01  7.20000000E-01  8.50000000E-01
  7.20000000E-01  8.50000000E-01  7.20000000E-01  8.50000000E-01  7.20000000E-01
  8.50000000E-01  7.20000000E-01  8.50000000E-01  7.20000000E-01  8.50000000E-01
  7.20000000E-01  8.50000000E-01  8.50000000E-01  7.20000000E-01  8.50000000E-01
  8.50000000E-01  8.50000000E-01  7.20000000E-01  8.50000000E-01  7.20000000E-01
  8.50000000E-01  8.50000000E-01  7.20000000E-01  8.50000000E-01  8.50000000E-01
  7.20000000E-01  8.50000000E-01  8.50000000E-01  8.50000000E-01  8.50000000E-01
  8.50000000E-01  8.50000000E-01  8.50000000E-01  8.50000000E-01  7.20000000E-01
  7.20000000E-01  7.20000000E-01  7.20000000E-01  7.20000000E-01  7.20000000E-01
  8.50000000E-01  8.50000000E-01  8.50000000E-01  8.50000000E-01  8.50000000E-01
  8.50000000E-01  8.50000000E-01  8.50000000E-01  8.50000000E-01  8.50000000E-01
  8.50000000E-01  8.50000000E-01  8.50000000E-01  8.50000000E-01  8.50000000E-01
  8.50000000E-01  8.50000000E-01  8.50000000E-01  8.50000000E-01  7.20000000E-01
  7.20000000E-01  7.20000000E-01  7.20000000E-01  8.50000000E-01  8.50000000E-01
  8.50000000E-01  7.20000000E-01  8.50000000E-01  7.20000000E-01  8.50000000E-01
  7.20000000E-01  8.50000000E-01  8.50000000E-01  7.90000000E-01  7.20000000E-01
  7.20000000E-01  7.20000000E-01  7.20000000E-01  7.20000000E-01  7.20000000E-01
  7.20000000E-01  8.50000000E-01  7.20000000E-01  8.50000000E-01  7.20000000E-01
  8.50000000E-01  7.20000000E-01  8.50000000E-01  7.20000000E-01  7.20000000E-01
  8.50000000E-01  7.20000000E-01  8.50000000E-01  8.50000000E-01  7.20000000E-01
  7.20000000E-01  7.20000000E-01  7.20000000E-01  8.50000000E-01  7.20000000E-01
  7.20000000E-01  7.20000000E-01  7.20000000E-01  7.20000000E-01  7.20000000E-01
  7.20000000E-01  7.20000000E-01  8.50000000E-01  7.20000000E-01  8.50000000E-01
  7.20000000E-01  8.50000000E-01  7.20000000E-01  8.50000000E-01  7.20000000E-01
  7.20000000E-01  8.50000000E-01  8.50000000E-01  8.50000000E-01  8.50000000E-01
  7.90000000E-01  7.90000000E-01  7.20000000E-01  8.50000000E-01  7.90000000E-01
  7.20000000E-01  8.50000000E-01  7.20000000E-01  7.20000000E-01  7.20000000E-01
  7.20000000E-01  8.50000000E-01  7.20000000E-01  7.20000000E-01  8.50000000E-01
  7.20000000E-01  7.20000000E-01  7.20000000E-01  7.20000000E-01  7.20000000E-01
  7.20000000E-01  7.20000000E-01  7.20000000E-01  7.20000000E-01  7.20000000E-01
  7.20000000E-01  7.20000000E-01  7.20000000E-01  8.50000000E-01  7.20000000E-01
  8.50000000E-01  8.50000000E-01  7.20000000E-01  8.50000000E-01  7.20000000E-01
  7.20000000E-01  8.50000000E-01  7.20000000E-01  8.50000000E-01  7.20000000E-01
  8.50000000E-01  7.20000000E-01  8.50000000E-01  7.20000000E-01  8.50000000E-01
  7.20000000E-01  8.50000000E-01  7.20000000E-01  8.50000000E-01  7.20000000E-01
  8.50000000E-01  7.20000000E-01  8.50000000E-01  8.50000000E-01  7.20000000E-01
  8.50000000E-01  8.50000000E-01  8.50000000E-01  7.20000000E-01  8.50000000E-01
  7.20000000E-01  8.50000000E-01  8.50000000E-01  7.20000000E-01  8.50000000E-01
  8.50000000E-01  7.20000000E-01  8.50000000E-01  8.50000000E-01  8.50000000E-01
  8.50000000E-01  8.50000000E-01  8.50000000E-01  8.50000000E-01  8.50000000E-01
  7.20000000E-01  7.20000000E-01  7.20000000E-01  7.20000000E-01  7.20000000E-01
  7.20000000E-01  8.50000000E-01  8.50000000E-01  8.50000000E-01  8.50000000E-01
  8.50000000E-01  8.50000000E-01  8.50000000E-01  8.50000000E-01  8.50000000E-01
  8.50000000E-01  8.50000000E-01  8.50000000E-01  8.50000000E-01  8.50000000E-01
  8.50000000E-01  8.50000000E-01  8.50000000E-01  8.50000000E-01  8.50000000E-01
  7.20000000E-01  7.20000000E-01  7.20000000E-01  7.20000000E-01  8.50000000E-01
  8.50000000E-01  8.50000000E-01  7.20000000E-01  8.50000000E-01  7.20000000E-01
  8.50000000E-01  7.20000000E-01  8.50000000E-01  8.50000000E-01  7.90000000E-01
  7.20000000E-01  7.20000000E-01  7.20000000E-01  7.20000000E-01  7.20000000E-01
  7.20000000E-01  7.20000000E-01  8.50000000E-01  7.20000000E-01  8.50000000E-01
  7.20000000E-01  8.50000000E-01  7.20000000E-01  8.50000000E-01  7.20000000E-01
  7.20000000E-01  8.50000000E-01  7.20000000E-01  8.50000000E-01  8.50000000E-01
  7.20000000E-01  7.20000000E-01  7.20000000E-01  7.20000000E-01  8.50000000E-01
  7.20000000E-01  7.20000000E-01  7.20000000E-01  7.20000000E-01  7.20000000E-01
  7.20000000E-01  7.20000000E-01  7.20000000E-01  8.50000000E-01  7.20000000E-01
  8.50000000E-01  7.20000000E-01  8.50000000E-01  7.20000000E-01  8.50000000E-01
  7.20000000E-01  7.20000000E-01  8.50000000E-01  8.50000000E-01  8.50000000E-01
  8.50000000E-01  7.90000000E-01  7.90000000E-01  7.20000000E-01  8.50000000E-01
  7.90000000E-01  7.20000000E-01  8.50000000E-01  7.20000000E-01  7.20000000E-01
  7.20000000E-01  7.20000000E-01  8.50000000E-01  7.20000000E-01  7.20000000E-01
  8.50000000E-01  7.20000000E-01  7.20000000E-01  7.20000000E-01  7.20000000E-01
  7.20000000E-01  7.20000000E-01  7.20000000E-01  7.20000000E-01  7.20000000E-01
  7.20000000E-01  7.20000000E-01  7.20000000E-01  7.20000000E-01  8.50000000E-01
  7.20000000E-01  8.50000000E-01  8.50000000E-01  7.20000000E-01  8.50000000E-01
  7.20000000E-01  7.20000000E-01  8.50000000E-01  7.20000000E-01  8.50000000E-01
  7.20000000E-01  8.50000000E-01  7.20000000E-01  8.50000000E-01  7.20000000E-01
  8.50000000E-01  7.20000000E-01  8.50000000E-01  7.20000000E-01  8.50000000E-01
  7.20000000E-01  8.50000000E-01  7.20000000E-01  8.50000000E-01  8.50000000E-01
  7.20000000E-01  8.50000000E-01  8.50000000E-01  8.50000000E-01  7.20000000E-01
  8.50000000E-01  7.20000000E-01  8.50000000E-01  8.50000000E-01  7.20000000E-01
  8.50000000E-01  8.50000000E-01  7.20000000E-01  8.50000000E-01  8.50000000E-01
  8.50000000E-01  8.50000000E-01  8.50000000E-01  8.50000000E-01  8.50000000E-01
  8.50000000E-01  7.20000000E-01  7.20000000E-01  7.20000000E-01  7.20000000E-01
  7.20000000E-01  7.20000000E-01  8.50000000E-01  8.50000000E-01  8.50000000E-01
  8.50000000E-01  8.50000000E-01  8.50000000E-01  8.50000000E-01  8.50000000E-01
  8.50000000E-01  8.50000000E-01  8.50000000E-01  8.50000000E-01  8.50000000E-01
  8.50000000E-01  8.50000000E-01  8.50000000E-01  8.50000000E-01  8.50000000E-01
  8.50000000E-01  7.20000000E-01  7.20000000E-01  7.20000000E-01  7.20000000E-01
  8.50000000E-01  8.50000000E-01  8.50000000E-01  7.20000000E-01  8.50000000E-01
  7.20000000E-01  8.50000000E-01  7.20000000E-01  8.50000000E-01  8.50000000E-01
  7.90000000E-01  7.20000000E-01  7.20000000E-01  7.20000000E-01  7.20000000E-01
  7.20000000E-01  7.20000000E-01  7.20000000E-01  8.50000000E-01  7.20000000E-01
  8.50000000E-01  7.20000000E-01  8.50000000E-01  7.20000000E-01  8.50000000E-01
  7.20000000E-01  7.20000000E-01  8.50000000E-01  7.20000000E-01  8.50000000E-01
  8.50000000E-01  7.20000000E-01  7.20000000E-01  7.20000000E-01  7.20000000E-01
  8.50000000E-01  7.20000000E-01  7.20000000E-01  7.20000000E-01  7.20000000E-01
  7.20000000E-01  7.20000000E-01  7.20000000E-01  7.20000000E-01  8.50000000E-01
  7.20000000E-01  8.50000000E-01  7.20000000E-01  8.50000000E-01  7.20000000E-01
  8.50000000E-01  7.20000000E-01  7.20000000E-01  8.50000000E-01  8.50000000E-01
  8.50000000E-01  8.50000000E-01  7.90000000E-01  7.90000000E-01  7.20000000E-01
  8.50000000E-01  7.90000000E-01  7.20000000E-01  8.50000000E-01  7.20000000E-01
  7.20000000E-01  7.20000000E-01  7.20000000E-01  8.50000000E-01  7.20000000E-01
  7.20000000E-01  8.50000000E-01  7.20000000E-01  7.20000000E-01  7.20000000E-01
  7.20000000E-01  7.20000000E-01  7.20000000E-01  7.20000000E-01  7.20000000E-01
  7.20000000E-01  7.20000000E-01  7.20000000E-01  7.20000000E-01  7.20000000E-01
  8.50000000E-01  7.20000000E-01  8.50000000E-01  8.50000000E-01  7.20000000E-01
  8.50000000E-01  7.20000000E-01  7.20000000E-01  8.50000000E-01  7.20000000E-01
  8.50000000E-01  7.20000000E-01  8.50000000E-01  7.20000000E-01  8.50000000E-01
  7.20000000E-01  8.50000000E-01  7.20000000E-01  8.50000000E-01  7.20000000E-01
  8.50000000E-01  7.20000000E-01  8.50000000E-01  7.20000000E-01  8.50000000E-01
  8.50000000E-01  7.20000000E-01  8.50000000E-01  8.50000000E-01  8.50000000E-01
  7.20000000E-01  8.50000000E-01  7.20000000E-01  8.50000000E-01  8.50000000E-01
  7.20000000E-01  8.50000000E-01  8.50000000E-01  7.20000000E-01  8.50000000E-01
  8.50000000E-01  8.50000000E-01  8.50000000E-01  8.50000000E-01  8.50000000E-01
  8.50000000E-01  8.50000000E-01  7.20000000E-01  7.20000000E-01  7.20000000E-01
  7.20000000E-01  7.20000000E-01  7.20000000E-01  8.50000000E-01  8.50000000E-01
  8.50000000E-01  8.50000000E-01  8.50000000E-01  8.50000000E-01  8.50000000E-01
  8.50000000E-01  8.50000000E-01  8.50000000E-01  8.50000000E-01  8.50000000E-01
  8.50000000E-01  8.50000000E-01  8.50000000E-01  8.50000000E-01  8.50000000E-01
  8.50000000E-01  8.50000000E-01  7.20000000E-01  7.20000000E-01  7.20000000E-01
  7.20000000E-01  8.50000000E-01  8.50000000E-01  8.50000000E-01  7.20000000E-01
  8.50000000E-01  7.20000000E-01  8.50000000E-01  7.20000000E-01  8.50000000E-01
  8.50000000E-01  7.90000000E-01  7.20000000E-01  7.20000000E-01  7.20000000E-01
  7.20000000E-01  7.20000000E-01  7.20000000E-01  7.20000000E-01  8.50000000E-01
  7.20000000E-01  8.50000000E-01  7.20000000E-01  8.50000000E-01  7.20000000E-01
  8.50000000E-01  7.20000000E-01  7.20000000E-01  8.50000000E-01  7.20000000E-01
  8.50000000E-01  8.50000000E-01  7.20000000E-01  7.20000000E-01  7.20000000E-01
  7.20000000E-01  8.50000000E-01  7.20000000E-01  7.20000000E-01  7.20000000E-01
  7.20000000E-01  7.20000000E-01  7.20000000E-01  7.20000000E-01  7.20000000E-01
  8.50000000E-01  7.20000000E-01  8.50000000E-01  7.20000000E-01  8.50000000E-01
  7.20000000E-01  8.50000000E-01  7.20000000E-01  7.20000000E-01  8.50000000E-01
  8.50000000E-01  8.50000000E-01  8.50000000E-01  7.90000000E-01  7.90000000E-01
  7.20000000E-01  8.50000000E-01  7.90000000E-01  7.20000000E-01  8.50000000E-01
  7.20000000E-01  7.20000000E-01  7.20000000E-01  7.20000000E-01  8.50000000E-01
  7.20000000E-01  7.20000000E-01  8.50000000E-01  7.20000000E-01  7.20000000E-01
  7.20000000E-01  7.20000000E-01  7.20000000E-01  7.20000000E-01  7.20000000E-01
  7.20000000E-01  7.20000000E-01  7.20000000E-01  7.20000000E-01  7.20000000E-01
  7.20000000E-01  8.50000000E-01  7.20000000E-01  8.50000000E-01  8.50000000E-01
  7.20000000E-01  8.50000000E-01  7.20000000E-01  7.20000000E-01  8.50000000E-01
  7.20000000E-01  8.50000000E-01  7.20000000E-01  8.50000000E-01  7.20000000E-01
  8.50000000E-01  7.20000000E-01  8.50000000E-01  7.20000000E-01  8.50000000E-01
  7.20000000E-01  8.50000000E-01  7.20000000E-01  8.50000000E-01  7.20000000E-01
  8.50000000E-01  8.50000000E-01  7.20000000E-01  8.50000000E-01  8.50000000E-01
  8.50000000E-01  7.20000000E-01  8.50000000E-01  7.20000000E-01  8.50000000E-01
  8.50000000E-01  7.20000000E-01  8.50000000E-01  8.50000000E-01  7.20000000E-01
  8.50000000E-01  8.50000000E-01  8.50000000E-01  8.50000000E-01  8.50000000E-01
  8.50000000E-01  8.50000000E-01  8.50000000E-01  7.20000000E-01  7.20000000E-01
  7.20000000E-01  7.20000000E-01  7.20000000E-01  7.20000000E-01  8.50000000E-01
  8.50000000E-01  8.50000000E-01  8.50000000E-01  8.50000000E-01  8.50000000E-01
  8.50000000E-01  8.50000000E-01  8.50000000E-01  8.50000000E-01  8.50000000E-01
  8.50000000E-01  8.50000000E-01  8.50000000E-01  8.50000000E-01  8.50000000E-01
  8.50000000E-01  8.50000000E-01  8.50000000E-01  7.20000000E-01  7.20000000E-01
  7.20000000E-01  7.20000000E-01  8.50000000E-01  8.50000000E-01  8.50000000E-01
  7.20000000E-01  8.50000000E-01  7.20000000E-01  8.50000000E-01  7.20000000E-01
  8.50000000E-01  8.50000000E-01  7.90000000E-01  7.20000000E-01  7.20000000E-01
  7.20000000E-01  7.20000000E-01  7.20000000E-01  7.20000000E-01  7.20000000E-01
  8.50000000E-01  7.20000000E-01  8.50000000E-01  7.20000000E-01  8.50000000E-01
  7.20000000E-01  8.50000000E-01  7.20000000E-01  7.20000000E-01  8.50000000E-01
  7.20000000E-01  8.50000000E-01  8.50000000E-01  7.20000000E-01  7.20000000E-01
  7.20000000E-01  7.20000000E-01  8.50000000E-01  7.20000000E-01  7.20000000E-01
  7.20000000E-01  7.20000000E-01  7.20000000E-01  7.20000000E-01  7.20000000E-01
  7.20000000E-01  8.50000000E-01  7.20000000E-01  8.50000000E-01  7.20000000E-01
  8.50000000E-01  7.20000000E-01  8.50000000E-01  7.20000000E-01  7.20000000E-01
  8.50000000E-01  8.50000000E-01  8.50000000E-01  8.50000000E-01  7.90000000E-01
  7.90000000E-01  7.20000000E-01  8.50000000E-01  7.90000000E-01  7.20000000E-01
  8.50000000E-01  7.20000000E-01  7.20000000E-01  7.20000000E-01  7.20000000E-01
  8.50000000E-01  7.20000000E-01  7.20000000E-01  8.50000000E-01  7.20000000E-01
  7.20000000E-01  7.20000000E-01  7.20000000E-01  7.20000000E-01  7.20000000E-01
  7.20000000E-01  7.20000000E-01  7.20000000E-01  7.20000000E-01  7.20000000E-01
  7.20000000E-01  7.20000000E-01  8.50000000E-01  7.20000000E-01  8.50000000E-01
  8.50000000E-01  7.20000000E-01  8.50000000E-01  7.20000000E-01  7.20000000E-01
  8.50000000E-01  7.20000000E-01  8.50000000E-01  7.20000000E-01  8.50000000E-01
  7.20000000E-01  8.50000000E-01  7.20000000E-01  8.50000000E-01  7.20000000E-01
  8.50000000E-01  7.20000000E-01  8.50000000E-01  7.20000000E-01  8.50000000E-01
  7.20000000E-01  8.50000000E-01  8.50000000E-01  7.20000000E-01  8.50000000E-01
  8.50000000E-01  8.50000000E-01  7.20000000E-01  8.50000000E-01  7.20000000E-01
  8.50000000E-01  8.50000000E-01  7.20000000E-01  8.50000000E-01  8.50000000E-01
  7.20000000E-01  8.50000000E-01  8.50000000E-01  8.50000000E-01  8.50000000E-01
  8.50000000E-01  8.50000000E-01  8.50000000E-01  8.50000000E-01  7.20000000E-01
  7.20000000E-01  7.20000000E-01  7.20000000E-01  7.20000000E-01  7.20000000E-01
  8.50000000E-01  8.50000000E-01  8.50000000E-01  8.50000000E-01  8.50000000E-01
  8.50000000E-01  8.50000000E-01  8.50000000E-01  8.50000000E-01  8.50000000E-01
  8.50000000E-01  8.50000000E-01  8.50000000E-01  8.50000000E-01  8.50000000E-01
  8.50000000E-01  8.50000000E-01  8.50000000E-01  8.50000000E-01  7.20000000E-01
  7.20000000E-01  7.20000000E-01  7.20000000E-01  8.50000000E-01  8.50000000E-01
  8.50000000E-01  7.20000000E-01  8.50000000E-01  7.20000000E-01  8.50000000E-01
  7.20000000E-01  8.50000000E-01  8.50000000E-01  7.90000000E-01  7.20000000E-01
  7.20000000E-01  7.20000000E-01  7.20000000E-01  7.20000000E-01  7.20000000E-01
  7.20000000E-01  8.50000000E-01  7.20000000E-01  8.50000000E-01  7.20000000E-01
  8.50000000E-01  7.20000000E-01  8.50000000E-01  7.20000000E-01  7.20000000E-01
  8.50000000E-01  7.20000000E-01  8.50000000E-01  8.50000000E-01  7.20000000E-01
  7.20000000E-01  7.20000000E-01  7.20000000E-01  8.50000000E-01  7.20000000E-01
  7.20000000E-01  7.20000000E-01  7.20000000E-01  7.20000000E-01  7.20000000E-01
  7.20000000E-01  7.20000000E-01  8.50000000E-01  7.20000000E-01  8.50000000E-01
  7.20000000E-01  8.50000000E-01  7.20000000E-01  8.50000000E-01  7.20000000E-01
  7.20000000E-01  8.50000000E-01  8.50000000E-01  8.50000000E-01  8.50000000E-01
  7.90000000E-01  7.90000000E-01  7.20000000E-01  8.50000000E-01  7.90000000E-01
  7.20000000E-01  8.50000000E-01  7.20000000E-01  7.20000000E-01  7.20000000E-01
  7.20000000E-01  8.50000000E-01  7.20000000E-01  7.20000000E-01  8.50000000E-01
  7.20000000E-01  7.20000000E-01  7.20000000E-01  7.20000000E-01  7.20000000E-01
  7.20000000E-01  7.20000000E-01  7.20000000E-01  7.20000000E-01  7.20000000E-01
  7.20000000E-01  7.20000000E-01  7.20000000E-01  8.50000000E-01  7.20000000E-01
  8.50000000E-01  8.50000000E-01  7.20000000E-01  8.50000000E-01  7.20000000E-01
  7.20000000E-01  8.50000000E-01  7.20000000E-01  8.50000000E-01  7.20000000E-01
  8.50000000E-01  7.20000000E-01  8.50000000E-01  7.20000000E-01  8.50000000E-01
  7.20000000E-01  8.50000000E-01  7.20000000E-01  8.50000000E-01  7.20000000E-01
  8.50000000E-01  7.20000000E-01  8.50000000E-01  8.50000000E-01  7.20000000E-01
  8.50000000E-01  8.50000000E-01  8.50000000E-01  7.20000000E-01  8.50000000E-01
  7.20000000E-01  8.50000000E-01  8.50000000E-01  7.20000000E-01  8.50000000E-01
  8.50000000E-01  7.20000000E-01  8.50000000E-01  8.50000000E-01  8.50000000E-01
  8.50000000E-01  8.50000000E-01  8.50000000E-01  8.50000000E-01  8.50000000E-01
  7.20000000E-01  7.20000000E-01  7.20000000E-01  7.20000000E-01  7.20000000E-01
  7.20000000E-01  8.50000000E-01  8.50000000E-01  8.50000000E-01  8.50000000E-01
  8.50000000E-01  8.50000000E-01  8.50000000E-01  8.50000000E-01  8.50000000E-01
  8.50000000E-01  8.50000000E-01  8.50000000E-01  8.50000000E-01  8.50000000E-01
  8.50000000E-01  8.50000000E-01  8.50000000E-01  8.50000000E-01  8.50000000E-01
  7.20000000E-01  7.20000000E-01  7.20000000E-01  7.20000000E-01  8.50000000E-01
  8.50000000E-01  8.50000000E-01  7.20000000E-01  8.50000000E-01  7.20000000E-01
  8.50000000E-01  7.20000000E-01  8.50000000E-01  8.50000000E-01  7.90000000E-01
  7.20000000E-01  7.20000000E-01  7.20000000E-01  7.20000000E-01  7.20000000E-01
  7.20000000E-01  7.20000000E-01  8.50000000E-01  7.20000000E-01  8.50000000E-01
  7.20000000E-01  8.50000000E-01  7.20000000E-01  8.50000000E-01  7.20000000E-01
  7.20000000E-01  8.50000000E-01  7.20000000E-01  8.50000000E-01  8.50000000E-01
  7.20000000E-01  7.20000000E-01  7.20000000E-01  7.20000000E-01  8.50000000E-01
  7.20000000E-01  7.20000000E-01  7.20000000E-01  7.20000000E-01  7.20000000E-01
  7.20000000E-01  7.20000000E-01  7.20000000E-01  8.50000000E-01  7.20000000E-01
  8.50000000E-01  7.20000000E-01  8.50000000E-01  7.20000000E-01  8.50000000E-01
  7.20000000E-01  7.20000000E-01  8.50000000E-01  8.50000000E-01  8.50000000E-01
  8.50000000E-01  7.90000000E-01  7.90000000E-01  7.20000000E-01  8.50000000E-01
  7.90000000E-01  7.20000000E-01  8.50000000E-01  7.20000000E-01  7.20000000E-01
  7.20000000E-01  7.20000000E-01  8.50000000E-01  7.20000000E-01  7.20000000E-01
  8.50000000E-01  7.20000000E-01  7.20000000E-01  7.20000000E-01  7.20000000E-01
  7.20000000E-01  7.20000000E-01  7.20000000E-01  7.20000000E-01  7.20000000E-01
  7.20000000E-01  7.20000000E-01  7.20000000E-01  7.20000000E-01  8.50000000E-01
  7.20000000E-01  8.50000000E-01  8.50000000E-01  7.20000000E-01  8.50000000E-01
  7.20000000E-01  7.20000000E-01  8.50000000E-01  7.20000000E-01  8.50000000E-01
  7.20000000E-01  8.50000000E-01  7.20000000E-01  8.50000000E-01  7.20000000E-01
  8.50000000E-01  7.20000000E-01  8.50000000E-01  7.20000000E-01  8.50000000E-01
  7.20000000E-01  8.50000000E-01  7.20000000E-01  8.50000000E-01  8.50000000E-01
  7.20000000E-01  8.50000000E-01  8.50000000E-01  8.50000000E-01  7.20000000E-01
  8.50000000E-01  7.20000000E-01  8.50000000E-01  8.50000000E-01  7.20000000E-01
  8.50000000E-01  8.50000000E-01  7.20000000E-01  8.50000000E-01  8.50000000E-01
  8.50000000E-01  8.50000000E-01  8.50000000E-01  8.50000000E-01  8.50000000E-01
  8.50000000E-01  7.20000000E-01  7.20000000E-01  7.20000000E-01  7.20000000E-01
  7.20000000E-01  7.20000000E-01  8.50000000E-01  8.50000000E-01  8.50000000E-01
  8.50000000E-01  8.50000000E-01  8.50000000E-01  8.50000000E-01  8.50000000E-01
  8.50000000E-01  8.50000000E-01  8.50000000E-01  8.50000000E-01  8.50000000E-01
  8.50000000E-01  8.50000000E-01  8.50000000E-01  8.50000000E-01  8.50000000E-01
  8.50000000E-01  7.20000000E-01  7.20000000E-01  7.20000000E-01  7.20000000E-01
  8.50000000E-01  8.50000000E-01  8.50000000E-01  7.20000000E-01  8.50000000E-01
  7.20000000E-01  8.50000000E-01  7.20000000E-01  8.50000000E-01  8.50000000E-01
  7.90000000E-01  7.20000000E-01  7.20000000E-01  7.20000000E-01  7.20000000E-01
  7.20000000E-01  7.20000000E-01  7.20000000E-01  8.50000000E-01  7.20000000E-01
  8.50000000E-01  7.20000000E-01  8.50000000E-01  7.20000000E-01  8.50000000E-01
  7.20000000E-01  7.20000000E-01  8.50000000E-01  7.20000000E-01  8.50000000E-01
  8.50000000E-01  7.20000000E-01  7.20000000E-01  7.20000000E-01  7.20000000E-01
  8.50000000E-01  7.20000000E-01  7.20000000E-01  7.20000000E-01  7.20000000E-01
  7.20000000E-01  7.20000000E-01  7.20000000E-01  7.20000000E-01  8.50000000E-01
  7.20000000E-01  8.50000000E-01  7.20000000E-01  8.50000000E-01  7.20000000E-01
  8.50000000E-01  7.20000000E-01  7.20000000E-01  8.50000000E-01  8.50000000E-01
  8.50000000E-01  8.50000000E-01  7.90000000E-01  7.90000000E-01  7.20000000E-01
  8.50000000E-01  7.90000000E-01  7.20000000E-01  8.50000000E-01  7.20000000E-01
  7.20000000E-01  7.20000000E-01  7.20000000E-01  8.50000000E-01  7.20000000E-01
  7.20000000E-01  8.50000000E-01  7.20000000E-01  7.20000000E-01  7.20000000E-01
  7.20000000E-01  7.20000000E-01  7.20000000E-01  7.20000000E-01  7.20000000E-01
  7.20000000E-01  7.20000000E-01  7.20000000E-01  7.20000000E-01  7.20000000E-01
  8.50000000E-01  7.20000000E-01  8.50000000E-01  8.50000000E-01  7.20000000E-01
  8.50000000E-01  7.20000000E-01  7.20000000E-01  8.50000000E-01  7.20000000E-01
  8.50000000E-01  7.20000000E-01  8.50000000E-01  7.20000000E-01  8.50000000E-01
  7.20000000E-01  8.50000000E-01  7.20000000E-01  8.50000000E-01  7.20000000E-01
  8.50000000E-01  7.20000000E-01  8.50000000E-01  7.20000000E-01  8.50000000E-01
  8.50000000E-01  7.20000000E-01  8.50000000E-01  8.50000000E-01  8.50000000E-01
  7.20000000E-01  8.50000000E-01  7.20000000E-01  8.50000000E-01  8.50000000E-01
  7.20000000E-01  8.50000000E-01  8.50000000E-01  7.20000000E-01  8.50000000E-01
  8.50000000E-01  8.50000000E-01  8.50000000E-01  8.50000000E-01  8.50000000E-01
  8.50000000E-01  8.50000000E-01  7.20000000E-01  7.20000000E-01  7.20000000E-01
  7.20000000E-01  7.20000000E-01  7.20000000E-01  8.50000000E-01  8.50000000E-01
  8.50000000E-01  8.50000000E-01  8.50000000E-01  8.50000000E-01  8.50000000E-01
  8.50000000E-01  8.50000000E-01  8.50000000E-01  8.50000000E-01  8.50000000E-01
  8.50000000E-01  8.50000000E-01  8.50000000E-01  8.50000000E-01  8.50000000E-01
  8.50000000E-01  8.50000000E-01  7.20000000E-01  7.20000000E-01  7.20000000E-01
  7.20000000E-01  8.50000000E-01  8.50000000E-01  8.50000000E-01  7.20000000E-01
  8.50000000E-01  7.20000000E-01  8.50000000E-01  7.20000000E-01  8.50000000E-01
  8.50000000E-01  7.90000000E-01  7.20000000E-01  7.20000000E-01  7.20000000E-01
  7.20000000E-01  7.20000000E-01  7.20000000E-01  7.20000000E-01  8.50000000E-01
  7.20000000E-01  8.50000000E-01  7.20000000E-01  8.50000000E-01  7.20000000E-01
  8.50000000E-01  7.20000000E-01  7.20000000E-01  8.50000000E-01  7.20000000E-01
  8.50000000E-01  8.50000000E-01  7.20000000E-01  7.20000000E-01  7.20000000E-01
  7.20000000E-01  8.50000000E-01  7.20000000E-01  7.20000000E-01  7.20000000E-01
  7.20000000E-01  7.20000000E-01  7.20000000E-01  7.20000000E-01  7.20000000E-01
  8.50000000E-01  7.20000000E-01  8.50000000E-01  7.20000000E-01  8.50000000E-01
  7.20000000E-01  8.50000000E-01  7.20000000E-01  7.20000000E-01  8.50000000E-01
  8.50000000E-01  8.50000000E-01  8.50000000E-01  7.90000000E-01  7.90000000E-01
  7.20000000E-01  8.50000000E-01  7.90000000E-01  7.20000000E-01  8.50000000E-01
  7.20000000E-01  7.20000000E-01  7.20000000E-01  7.20000000E-01  8.50000000E-01
  7.20000000E-01  7.20000000E-01  8.50000000E-01  7.20000000E-01  7.20000000E-01
  7.20000000E-01  7.20000000E-01  7.20000000E-01  7.20000000E-01  7.20000000E-01
  7.20000000E-01  7.20000000E-01  7.20000000E-01  7.20000000E-01  7.20000000E-01
  7.20000000E-01  8.50000000E-01  7.20000000E-01  8.50000000E-01  8.50000000E-01
  7.20000000E-01  8.50000000E-01  7.20000000E-01  7.20000000E-01  8.50000000E-01
  7.20000000E-01  8.50000000E-01  7.20000000E-01  8.50000000E-01  7.20000000E-01
  8.50000000E-01  7.20000000E-01  8.50000000E-01  7.20000000E-01  8.50000000E-01
  7.20000000E-01  8.50000000E-01  7.20000000E-01  8.50000000E-01  7.20000000E-01
  8.50000000E-01  8.50000000E-01  7.20000000E-01  8.50000000E-01  8.50000000E-01
  8.50000000E-01  7.20000000E-01  8.50000000E-01  7.20000000E-01  8.50000000E-01
  8.50000000E-01  7.20000000E-01  8.50000000E-01  8.50000000E-01  7.20000000E-01
  8.50000000E-01  8.50000000E-01  8.50000000E-01  8.50000000E-01  8.50000000E-01
  8.50000000E-01  8.50000000E-01  8.50000000E-01  7.20000000E-01  7.20000000E-01
  7.20000000E-01  7.20000000E-01  7.20000000E-01  7.20000000E-01  8.50000000E-01
  8.50000000E-01  8.50000000E-01  8.50000000E-01  8.50000000E-01  8.50000000E-01
  8.50000000E-01  8.50000000E-01  8.50000000E-01  8.50000000E-01  8.50000000E-01
  8.50000000E-01  8.50000000E-01  8.50000000E-01  8.50000000E-01  8.50000000E-01
  8.50000000E-01  8.50000000E-01  8.50000000E-01  7.20000000E-01  7.20000000E-01
  7.20000000E-01  7.20000000E-01  8.50000000E-01  8.50000000E-01  8.50000000E-01
  7.20000000E-01  8.50000000E-01  7.20000000E-01  8.50000000E-01  7.20000000E-01
  8.50000000E-01  8.50000000E-01  7.90000000E-01  7.20000000E-01  7.20000000E-01
  7.20000000E-01  7.20000000E-01  7.20000000E-01  7.20000000E-01  7.20000000E-01
  8.50000000E-01  7.20000000E-01  8.50000000E-01  7.20000000E-01  8.50000000E-01
  7.20000000E-01  8.50000000E-01  7.20000000E-01  7.20000000E-01  8.50000000E-01
  7.20000000E-01  8.50000000E-01  8.50000000E-01  7.20000000E-01  7.20000000E-01
  7.20000000E-01  7.20000000E-01  8.50000000E-01  7.20000000E-01  7.20000000E-01
  7.20000000E-01  7.20000000E-01  7.20000000E-01  7.20000000E-01  7.20000000E-01
  7.20000000E-01  8.50000000E-01  7.20000000E-01  8.50000000E-01  7.20000000E-01
  8.50000000E-01  7.20000000E-01  8.50000000E-01  7.20000000E-01  7.20000000E-01
  8.50000000E-01  8.50000000E-01  8.50000000E-01  8.50000000E-01  7.90000000E-01
  7.90000000E-01  7.20000000E-01  8.50000000E-01  7.90000000E-01  7.20000000E-01
  8.50000000E-01  7.20000000E-01  7.20000000E-01  7.20000000E-01  7.20000000E-01
  8.50000000E-01  7.20000000E-01  7.20000000E-01  8.50000000E-01  7.20000000E-01
  7.20000000E-01  7.20000000E-01  7.20000000E-01  7.20000000E-01  7.20000000E-01
  7.20000000E-01  7.20000000E-01  7.20000000E-01  7.20000000E-01  7.20000000E-01
  7.20000000E-01  7.20000000E-01  8.50000000E-01  7.20000000E-01  8.50000000E-01
  8.50000000E-01  7.20000000E-01  8.50000000E-01  7.20000000E-01  7.20000000E-01
  8.50000000E-01  7.20000000E-01  8.50000000E-01  7.20000000E-01  8.50000000E-01
  7.20000000E-01  8.50000000E-01  7.20000000E-01  8.50000000E-01  7.20000000E-01
  8.50000000E-01  7.20000000E-01  8.50000000E-01  7.20000000E-01  8.50000000E-01
  7.20000000E-01  8.50000000E-01  8.50000000E-01  7.20000000E-01  8.50000000E-01
  8.50000000E-01  8.50000000E-01  7.20000000E-01  8.50000000E-01  7.20000000E-01
  8.50000000E-01  8.50000000E-01  7.20000000E-01  8.50000000E-01  8.50000000E-01
  7.20000000E-01  8.50000000E-01  8.50000000E-01  8.50000000E-01  8.50000000E-01
  8.50000000E-01  8.50000000E-01  8.50000000E-01  8.50000000E-01  7.20000000E-01
  7.20000000E-01  7.20000000E-01  7.20000000E-01  7.20000000E-01  7.20000000E-01
  8.50000000E-01  8.50000000E-01  8.50000000E-01  8.50000000E-01  8.50000000E-01
  8.50000000E-01  8.50000000E-01  8.50000000E-01  8.50000000E-01  8.50000000E-01
  8.50000000E-01  8.50000000E-01  8.50000000E-01  8.50000000E-01  8.50000000E-01
  8.50000000E-01  8.50000000E-01  8.50000000E-01  8.50000000E-01  7.20000000E-01
  7.20000000E-01  7.20000000E-01  7.20000000E-01  8.50000000E-01  8.50000000E-01
  8.50000000E-01  7.20000000E-01  8.50000000E-01  7.20000000E-01  8.50000000E-01
  7.20000000E-01  8.50000000E-01  8.50000000E-01  7.90000000E-01  7.20000000E-01
  7.20000000E-01  7.20000000E-01  7.20000000E-01  7.20000000E-01  7.20000000E-01
  7.20000000E-01  8.50000000E-01  7.20000000E-01  8.50000000E-01  7.20000000E-01
  8.50000000E-01  7.20000000E-01  8.50000000E-01  7.20000000E-01  7.20000000E-01
  8.50000000E-01  7.20000000E-01  8.50000000E-01  8.50000000E-01  7.20000000E-01
  7.20000000E-01  7.20000000E-01  7.20000000E-01  8.50000000E-01  7.20000000E-01
  7.20000000E-01  7.20000000E-01  7.20000000E-01  7.20000000E-01  7.20000000E-01
  7.20000000E-01  7.20000000E-01  8.50000000E-01  7.20000000E-01  8.50000000E-01
  7.20000000E-01  8.50000000E-01  7.20000000E-01  8.50000000E-01  7.20000000E-01
  7.20000000E-01  8.50000000E-01  8.50000000E-01  8.50000000E-01  8.50000000E-01
  7.90000000E-01  7.90000000E-01  7.20000000E-01  8.50000000E-01  7.90000000E-01
  7.20000000E-01  8.50000000E-01  7.20000000E-01  7.20000000E-01  7.20000000E-01
  7.20000000E-01  8.50000000E-01  7.20000000E-01  7.20000000E-01  8.50000000E-01
  7.20000000E-01  7.20000000E-01  7.20000000E-01  7.20000000E-01  7.20000000E-01
  7.20000000E-01  7.20000000E-01  7.20000000E-01  7.20000000E-01  7.20000000E-01
  7.20000000E-01  7.20000000E-01  7.20000000E-01  8.50000000E-01  7.20000000E-01
  8.50000000E-01  8.50000000E-01  7.20000000E-01  8.50000000E-01  7.20000000E-01
  7.20000000E-01  8.50000000E-01  7.20000000E-01  8.50000000E-01  7.20000000E-01
  8.50000000E-01  7.20000000E-01  8.50000000E-01  7.20000000E-01  8.50000000E-01
  7.20000000E-01  8.50000000E-01  7.20000000E-01  8.50000000E-01  7.20000000E-01
  8.50000000E-01  7.20000000E-01  8.50000000E-01  8.50000000E-01  7.20000000E-01
  8.50000000E-01  8.50000000E-01  8.50000000E-01  7.20000000E-01  8.50000000E-01
  7.20000000E-01  8.50000000E-01  8.50000000E-01  7.20000000E-01  8.50000000E-01
  8.50000000E-01  7.20000000E-01  8.50000000E-01  8.50000000E-01  8.50000000E-01
  8.50000000E-01  8.50000000E-01  8.50000000E-01  8.50000000E-01  8.50000000E-01
  7.20000000E-01  7.20000000E-01  7.20000000E-01  7.20000000E-01  7.20000000E-01
  7.20000000E-01  8.50000000E-01  8.50000000E-01  8.50000000E-01  8.50000000E-01
  8.50000000E-01  8.50000000E-01  8.50000000E-01  8.50000000E-01  8.50000000E-01
  8.50000000E-01  8.50000000E-01  8.50000000E-01  8.50000000E-01  8.50000000E-01
  8.50000000E-01  8.50000000E-01  8.50000000E-01  8.50000000E-01  8.50000000E-01
  7.20000000E-01  7.20000000E-01  7.20000000E-01  7.20000000E-01  8.50000000E-01
  8.50000000E-01  8.50000000E-01  7.20000000E-01  8.50000000E-01  7.20000000E-01
  8.50000000E-01  7.20000000E-01  8.50000000E-01  8.50000000E-01  7.90000000E-01
  7.20000000E-01  7.20000000E-01  7.20000000E-01  7.20000000E-01  7.20000000E-01
  7.20000000E-01  7.20000000E-01  8.50000000E-01  7.20000000E-01  8.50000000E-01
  7.20000000E-01  8.50000000E-01  7.20000000E-01  8.50000000E-01  7.20000000E-01
  7.20000000E-01  8.50000000E-01  7.20000000E-01  8.50000000E-01  8.50000000E-01
  7.20000000E-01  7.20000000E-01  7.20000000E-01  7.20000000E-01  8.50000000E-01
  7.20000000E-01  7.20000000E-01  7.20000000E-01  7.20000000E-01  7.20000000E-01
  7.20000000E-01  7.20000000E-01  7.20000000E-01  8.50000000E-01  7.20000000E-01
  8.50000000E-01  7.20000000E-01  8.50000000E-01  7.20000000E-01  8.50000000E-01
  7.20000000E-01  7.20000000E-01  8.50000000E-01  8.50000000E-01  8.50000000E-01
  8.50000000E-01  7.90000000E-01  7.90000000E-01  7.20000000E-01  8.50000000E-01
  7.90000000E-01  7.20000000E-01  8.50000000E-01  7.20000000E-01  7.20000000E-01
  7.20000000E-01  7.20000000E-01  8.50000000E-01  7.20000000E-01  7.20000000E-01
  8.50000000E-01  7.20000000E-01  7.20000000E-01  7.20000000E-01  7.20000000E-01
  7.20000000E-01  7.20000000E-01  7.20000000E-01  7.20000000E-01  7.20000000E-01
  7.20000000E-01  7.20000000E-01  7.20000000E-01  7.20000000E-01  8.50000000E-01
  7.20000000E-01  8.50000000E-01  8.50000000E-01  7.20000000E-01  8.50000000E-01
  7.20000000E-01  7.20000000E-01  8.50000000E-01  7.20000000E-01  8.50000000E-01
  7.20000000E-01  8.50000000E-01  7.20000000E-01  8.50000000E-01  7.20000000E-01
  8.50000000E-01  7.20000000E-01  8.50000000E-01  7.20000000E-01  8.50000000E-01
  7.20000000E-01  8.50000000E-01  7.20000000E-01  8.50000000E-01  8.50000000E-01
  7.20000000E-01  8.50000000E-01  8.50000000E-01  8.50000000E-01  7.20000000E-01
  8.50000000E-01  7.20000000E-01  8.50000000E-01  8.50000000E-01  7.20000000E-01
  8.50000000E-01  8.50000000E-01  7.20000000E-01  8.50000000E-01  8.50000000E-01
  8.50000000E-01  8.50000000E-01  8.50000000E-01  8.50000000E-01  8.50000000E-01
  8.50000000E-01  7.20000000E-01  7.20000000E-01  7.20000000E-01  7.20000000E-01
  7.20000000E-01  7.20000000E-01  8.50000000E-01  8.50000000E-01  8.50000000E-01
  8.50000000E-01  8.50000000E-01  8.50000000E-01  8.50000000E-01  8.50000000E-01
  8.50000000E-01  8.50000000E-01  8.50000000E-01  8.50000000E-01  8.50000000E-01
  8.50000000E-01  8.50000000E-01  8.50000000E-01  8.50000000E-01  8.50000000E-01
  8.50000000E-01  7.20000000E-01  7.20000000E-01  7.20000000E-01  7.20000000E-01
  8.50000000E-01  8.50000000E-01  8.50000000E-01  7.20000000E-01  8.50000000E-01
  7.20000000E-01  8.50000000E-01  7.20000000E-01  8.50000000E-01  8.50000000E-01
  7.90000000E-01  7.20000000E-01  7.20000000E-01  7.20000000E-01  7.20000000E-01
  7.20000000E-01  7.20000000E-01  7.20000000E-01  8.50000000E-01  7.20000000E-01
  8.50000000E-01  7.20000000E-01  8.50000000E-01  7.20000000E-01  8.50000000E-01
  7.20000000E-01  7.20000000E-01  8.50000000E-01  7.20000000E-01  8.50000000E-01
  8.50000000E-01  7.20000000E-01  7.20000000E-01  7.20000000E-01  7.20000000E-01
  8.50000000E-01  7.20000000E-01  7.20000000E-01  7.20000000E-01  7.20000000E-01
  7.20000000E-01  7.20000000E-01  7.20000000E-01  7.20000000E-01  8.50000000E-01
  7.20000000E-01  8.50000000E-01  7.20000000E-01  8.50000000E-01  7.20000000E-01
  8.50000000E-01  7.20000000E-01  7.20000000E-01  8.50000000E-01  8.50000000E-01
  8.50000000E-01  8.50000000E-01  7.90000000E-01  7.90000000E-01  7.20000000E-01
  8.50000000E-01  7.90000000E-01  7.20000000E-01  8.50000000E-01  7.20000000E-01
  7.20000000E-01  7.20000000E-01  7.20000000E-01  8.50000000E-01  7.20000000E-01
  7.20000000E-01  8.50000000E-01  7.20000000E-01  7.20000000E-01  7.20000000E-01
  7.20000000E-01  7.20000000E-01  7.20000000E-01  7.20000000E-01  7.20000000E-01
  7.20000000E-01  7.20000000E-01  7.20000000E-01  7.20000000E-01  7.20000000E-01
  8.50000000E-01  7.20000000E-01  8.50000000E-01  8.50000000E-01  7.20000000E-01
  8.50000000E-01  7.20000000E-01  7.20000000E-01  8.50000000E-01  7.20000000E-01
  8.50000000E-01  7.20000000E-01  8.50000000E-01  7.20000000E-01  8.50000000E-01
  7.20000000E-01  8.50000000E-01  7.20000000E-01  8.50000000E-01  7.20000000E-01
  8.50000000E-01  7.20000000E-01  8.50000000E-01  7.20000000E-01  8.50000000E-01
  8.50000000E-01  7.20000000E-01  8.50000000E-01  8.50000000E-01  8.50000000E-01
  7.20000000E-01  8.50000000E-01  7.20000000E-01  8.50000000E-01  8.50000000E-01
  7.20000000E-01  8.50000000E-01  8.50000000E-01  7.20000000E-01  8.50000000E-01
  8.50000000E-01  8.50000000E-01  8.50000000E-01  8.50000000E-01  8.50000000E-01
  8.50000000E-01  8.50000000E-01  7.20000000E-01  7.20000000E-01  7.20000000E-01
  7.20000000E-01  7.20000000E-01  7.20000000E-01  8.50000000E-01  8.50000000E-01
  8.50000000E-01  8.50000000E-01  8.50000000E-01  8.50000000E-01  8.50000000E-01
  8.50000000E-01  8.50000000E-01  8.50000000E-01  8.50000000E-01  8.50000000E-01
  8.50000000E-01  8.50000000E-01  8.50000000E-01  8.50000000E-01  8.50000000E-01
  8.50000000E-01  8.50000000E-01  7.20000000E-01  7.20000000E-01  7.20000000E-01
  7.20000000E-01  8.50000000E-01  8.50000000E-01  8.50000000E-01  7.20000000E-01
  8.50000000E-01  7.20000000E-01  8.50000000E-01  7.20000000E-01  8.50000000E-01
  8.50000000E-01  7.90000000E-01  7.20000000E-01  7.20000000E-01  7.20000000E-01
  7.20000000E-01  7.20000000E-01  7.20000000E-01  7.20000000E-01  8.50000000E-01
  7.20000000E-01  8.50000000E-01  7.20000000E-01  8.50000000E-01  7.20000000E-01
  8.50000000E-01  7.20000000E-01  7.20000000E-01  8.50000000E-01  7.20000000E-01
  8.50000000E-01  8.50000000E-01  7.20000000E-01  7.20000000E-01  7.20000000E-01
  7.20000000E-01  8.50000000E-01  7.20000000E-01  7.20000000E-01  7.20000000E-01
  7.20000000E-01  7.20000000E-01  7.20000000E-01  7.20000000E-01  7.20000000E-01
  8.50000000E-01  7.20000000E-01  8.50000000E-01  7.20000000E-01  8.50000000E-01
  7.20000000E-01  8.50000000E-01  7.20000000E-01  7.20000000E-01  8.50000000E-01
  8.50000000E-01  8.50000000E-01  8.50000000E-01  7.90000000E-01  7.90000000E-01
  7.20000000E-01  8.50000000E-01  7.90000000E-01  7.20000000E-01  8.50000000E-01
  7.20000000E-01  7.20000000E-01  7.20000000E-01  7.20000000E-01  8.50000000E-01
  7.20000000E-01  7.20000000E-01  8.50000000E-01  7.20000000E-01  7.20000000E-01
  7.20000000E-01  7.20000000E-01  7.20000000E-01  7.20000000E-01  7.20000000E-01
  7.20000000E-01  7.20000000E-01  7.20000000E-01  7.20000000E-01  7.20000000E-01
  7.20000000E-01  8.50000000E-01  7.20000000E-01  8.50000000E-01  8.50000000E-01
  7.20000000E-01  8.50000000E-01  7.20000000E-01  7.20000000E-01  8.50000000E-01
  7.20000000E-01  8.50000000E-01  7.20000000E-01  8.50000000E-01  7.20000000E-01
  8.50000000E-01  7.20000000E-01  8.50000000E-01  7.20000000E-01  8.50000000E-01
  7.20000000E-01  8.50000000E-01  7.20000000E-01  8.50000000E-01  7.20000000E-01
  8.50000000E-01  8.50000000E-01  7.20000000E-01  8.50000000E-01  8.50000000E-01
  8.50000000E-01  7.20000000E-01  8.50000000E-01  7.20000000E-01  8.50000000E-01
  8.50000000E-01  7.20000000E-01  8.50000000E-01  8.50000000E-01  7.20000000E-01
  8.50000000E-01  8.50000000E-01  8.50000000E-01  8.50000000E-01  8.50000000E-01
  8.50000000E-01  8.50000000E-01  8.50000000E-01  7.20000000E-01  7.20000000E-01
  7.20000000E-01  7.20000000E-01  7.20000000E-01  7.20000000E-01  8.50000000E-01
  8.50000000E-01  8.50000000E-01  8.50000000E-01  8.50000000E-01  8.50000000E-01
  8.50000000E-01  8.50000000E-01  8.50000000E-01  8.50000000E-01  8.50000000E-01
  8.50000000E-01  8.50000000E-01  8.50000000E-01  8.50000000E-01  8.50000000E-01
  8.50000000E-01  8.50000000E-01  8.50000000E-01  7.20000000E-01  7.20000000E-01
  7.20000000E-01  7.20000000E-01  8.50000000E-01  8.50000000E-01  8.50000000E-01
  7.20000000E-01  8.50000000E-01  7.20000000E-01  8.50000000E-01  7.20000000E-01
  8.50000000E-01  8.50000000E-01  7.90000000E-01  7.20000000E-01  7.20000000E-01
  7.20000000E-01  7.20000000E-01  7.20000000E-01  7.20000000E-01  7.20000000E-01
  8.50000000E-01  7.20000000E-01  8.50000000E-01  7.20000000E-01  8.50000000E-01
  7.20000000E-01  8.50000000E-01  7.20000000E-01  7.20000000E-01  8.50000000E-01
  7.20000000E-01  8.50000000E-01  8.50000000E-01  7.20000000E-01  7.20000000E-01
  7.20000000E-01  7.20000000E-01  8.50000000E-01  7.20000000E-01  7.20000000E-01
  7.20000000E-01  7.20000000E-01  7.20000000E-01  7.20000000E-01  7.20000000E-01
  7.20000000E-01  8.50000000E-01  7.20000000E-01  8.50000000E-01  7.20000000E-01
  8.50000000E-01  7.20000000E-01  8.50000000E-01  7.20000000E-01  7.20000000E-01
  8.50000000E-01  8.50000000E-01  8.50000000E-01  8.50000000E-01  7.90000000E-01
  7.90000000E-01  7.20000000E-01  8.50000000E-01  7.90000000E-01  7.20000000E-01
  8.50000000E-01  7.20000000E-01  7.20000000E-01  7.20000000E-01  7.20000000E-01
  8.50000000E-01  7.20000000E-01  7.20000000E-01  8.50000000E-01  7.20000000E-01
  7.20000000E-01  7.20000000E-01  7.20000000E-01  7.20000000E-01  7.20000000E-01
  7.20000000E-01  7.20000000E-01  7.20000000E-01  7.20000000E-01  7.20000000E-01
  7.20000000E-01  7.20000000E-01  8.50000000E-01  7.20000000E-01  8.50000000E-01
  8.50000000E-01  7.20000000E-01  8.50000000E-01  7.20000000E-01  7.20000000E-01
  8.50000000E-01  7.20000000E-01  8.50000000E-01  7.20000000E-01  8.50000000E-01
  7.20000000E-01  8.50000000E-01  7.20000000E-01  8.50000000E-01  7.20000000E-01
  8.50000000E-01  7.20000000E-01  8.50000000E-01  7.20000000E-01  8.50000000E-01
  7.20000000E-01  8.50000000E-01  8.50000000E-01  7.20000000E-01  8.50000000E-01
  8.50000000E-01  8.50000000E-01  7.20000000E-01  8.50000000E-01  7.20000000E-01
  8.50000000E-01  8.50000000E-01  7.20000000E-01  8.50000000E-01  8.50000000E-01
  7.20000000E-01  8.50000000E-01  8.50000000E-01  8.50000000E-01  8.50000000E-01
  8.50000000E-01  8.50000000E-01  8.50000000E-01  8.50000000E-01  7.20000000E-01
  7.20000000E-01  7.20000000E-01  7.20000000E-01  7.20000000E-01  7.20000000E-01
  8.50000000E-01  8.50000000E-01  8.50000000E-01  8.50000000E-01  8.50000000E-01
  8.50000000E-01  8.50000000E-01  8.50000000E-01  8.50000000E-01  8.50000000E-01
  8.50000000E-01  8.50000000E-01  8.50000000E-01  8.50000000E-01  8.50000000E-01
  8.50000000E-01  8.50000000E-01  8.50000000E-01  8.50000000E-01  7.20000000E-01
  7.20000000E-01  7.20000000E-01  7.20000000E-01  8.50000000E-01  8.50000000E-01
  8.50000000E-01  7.20000000E-01  8.50000000E-01  7.20000000E-01  8.50000000E-01
  7.20000000E-01  8.50000000E-01  8.50000000E-01  7.90000000E-01  7.20000000E-01
  7.20000000E-01  7.20000000E-01  7.20000000E-01  7.20000000E-01  7.20000000E-01
  7.20000000E-01  8.50000000E-01  7.20000000E-01  8.50000000E-01  7.20000000E-01
  8.50000000E-01  7.20000000E-01  8.50000000E-01  7.20000000E-01  7.20000000E-01
  8.50000000E-01  7.20000000E-01  8.50000000E-01  8.50000000E-01  7.20000000E-01
  7.20000000E-01  7.20000000E-01  7.20000000E-01  8.50000000E-01  7.20000000E-01
  7.20000000E-01  7.20000000E-01  7.20000000E-01  7.20000000E-01  7.20000000E-01
  7.20000000E-01  7.20000000E-01  8.50000000E-01  7.20000000E-01  8.50000000E-01
  7.20000000E-01  8.50000000E-01  7.20000000E-01  8.50000000E-01  7.20000000E-01
  7.20000000E-01  8.50000000E-01  8.50000000E-01  8.50000000E-01  8.50000000E-01
  7.90000000E-01  7.90000000E-01  7.20000000E-01  8.50000000E-01  7.90000000E-01
  7.20000000E-01  8.50000000E-01  7.20000000E-01  7.20000000E-01  7.20000000E-01
  7.20000000E-01  8.50000000E-01  7.20000000E-01  7.20000000E-01  8.50000000E-01
  7.20000000E-01  7.20000000E-01  7.20000000E-01  7.20000000E-01  7.20000000E-01
  7.20000000E-01  7.20000000E-01  7.20000000E-01  7.20000000E-01  7.20000000E-01
  7.20000000E-01  7.20000000E-01  7.20000000E-01  8.50000000E-01  7.20000000E-01
  8.50000000E-01  8.50000000E-01  7.20000000E-01  8.50000000E-01  7.20000000E-01
  7.20000000E-01  8.50000000E-01  7.20000000E-01  8.50000000E-01  7.20000000E-01
  8.50000000E-01  7.20000000E-01  8.50000000E-01  7.20000000E-01  8.50000000E-01
  7.20000000E-01  8.50000000E-01  7.20000000E-01  8.50000000E-01  7.20000000E-01
  8.50000000E-01  7.20000000E-01  8.50000000E-01  8.50000000E-01  7.20000000E-01
  8.50000000E-01  8.50000000E-01  8.50000000E-01  7.20000000E-01  8.50000000E-01
  7.20000000E-01  8.50000000E-01  8.50000000E-01  7.20000000E-01  8.50000000E-01
  8.50000000E-01  7.20000000E-01  8.50000000E-01  8.50000000E-01  8.50000000E-01
  8.50000000E-01  8.50000000E-01  8.50000000E-01  8.50000000E-01  8.50000000E-01
  7.20000000E-01  7.20000000E-01  7.20000000E-01  7.20000000E-01  7.20000000E-01
  7.20000000E-01  8.50000000E-01  8.50000000E-01  8.50000000E-01  8.50000000E-01
  8.50000000E-01  8.50000000E-01  8.50000000E-01  8.50000000E-01  8.50000000E-01
  8.50000000E-01  8.50000000E-01  8.50000000E-01  8.50000000E-01  8.50000000E-01
  8.50000000E-01  8.50000000E-01  8.50000000E-01  8.50000000E-01  8.50000000E-01
  7.20000000E-01  7.20000000E-01  7.20000000E-01  7.20000000E-01  8.50000000E-01
  8.50000000E-01  8.50000000E-01  7.20000000E-01  8.50000000E-01  7.20000000E-01
  8.50000000E-01  7.20000000E-01  8.50000000E-01  8.50000000E-01  7.90000000E-01
  7.20000000E-01  7.20000000E-01  7.20000000E-01  7.20000000E-01  7.20000000E-01
  7.20000000E-01  7.20000000E-01  8.50000000E-01  7.20000000E-01  8.50000000E-01
  7.20000000E-01  8.50000000E-01  7.20000000E-01  8.50000000E-01  7.20000000E-01
  7.20000000E-01  8.50000000E-01  7.20000000E-01  8.50000000E-01  8.50000000E-01
  7.20000000E-01  7.20000000E-01  7.20000000E-01  7.20000000E-01  8.50000000E-01
  7.20000000E-01  7.20000000E-01  7.20000000E-01  7.20000000E-01  7.20000000E-01
  7.20000000E-01  7.20000000E-01  7.20000000E-01  8.50000000E-01  7.20000000E-01
  8.50000000E-01  7.20000000E-01  8.50000000E-01  7.20000000E-01  8.50000000E-01
  7.20000000E-01  7.20000000E-01  8.50000000E-01  8.50000000E-01  8.50000000E-01
  8.50000000E-01  7.90000000E-01  7.90000000E-01  7.20000000E-01  8.50000000E-01
  7.90000000E-01  7.20000000E-01  8.50000000E-01  7.20000000E-01  7.20000000E-01
  7.20000000E-01  7.20000000E-01  8.50000000E-01  7.20000000E-01  7.20000000E-01
  8.50000000E-01  7.20000000E-01  7.20000000E-01  7.20000000E-01  7.20000000E-01
  7.20000000E-01  7.20000000E-01  7.20000000E-01  7.20000000E-01  7.20000000E-01
  7.20000000E-01  7.20000000E-01  7.20000000E-01  7.20000000E-01  8.50000000E-01
  7.20000000E-01  8.50000000E-01  8.50000000E-01  7.20000000E-01  8.50000000E-01
  7.20000000E-01  7.20000000E-01  8.50000000E-01  7.20000000E-01  8.50000000E-01
  7.20000000E-01  8.50000000E-01  7.20000000E-01  8.50000000E-01  7.20000000E-01
  8.50000000E-01  7.20000000E-01  8.50000000E-01  7.20000000E-01  8.50000000E-01
  7.20000000E-01  8.50000000E-01  7.20000000E-01  8.50000000E-01  8.50000000E-01
  7.20000000E-01  8.50000000E-01  8.50000000E-01  8.50000000E-01  7.20000000E-01
  8.50000000E-01  7.20000000E-01  8.50000000E-01  8.50000000E-01  7.20000000E-01
  8.50000000E-01  8.50000000E-01  7.20000000E-01  8.50000000E-01  8.50000000E-01
  8.50000000E-01  8.50000000E-01  8.50000000E-01  8.50000000E-01  8.50000000E-01
  8.50000000E-01  7.20000000E-01  7.20000000E-01  7.20000000E-01  7.20000000E-01
  7.20000000E-01  7.20000000E-01  8.50000000E-01  8.50000000E-01  8.50000000E-01
  8.50000000E-01  8.50000000E-01  8.50000000E-01  8.50000000E-01  8.50000000E-01
  8.50000000E-01  8.50000000E-01  8.50000000E-01  8.50000000E-01  8.50000000E-01
  8.50000000E-01  8.50000000E-01  8.50000000E-01  8.50000000E-01  8.50000000E-01
%FLAG IPOL                                                                      
%FORMAT(1I8)                                                                    
       0
