
;
; GENERATED BY LigParGen Server
; Jorgensen Lab @ Yale University 
;
[ atomtypes ]
  opls_827  C827    12.0110     0.000    A    3.55000E-01   2.92880E-01
  opls_829  C829    12.0110     0.000    A    3.55000E-01   2.92880E-01
  opls_802  C802    12.0110     0.000    A    3.50000E-01   3.34720E-01
  opls_816  C816    12.0110     0.000    A    3.55000E-01   2.92880E-01
  opls_834  H834     1.0080     0.000    A    2.42000E-01   1.25520E-01
  opls_833  H833     1.0080     0.000    A    2.42000E-01   1.25520E-01
  opls_811  C811    12.0110     0.000    A    3.50000E-01   3.34720E-01
  opls_823  H823     1.0080     0.000    A    2.42000E-01   1.25520E-01
  opls_808  C808    12.0110     0.000    A    3.50000E-01   3.34720E-01
  opls_821  H821     1.0080     0.000    A    2.42000E-01   1.25520E-01
  opls_835  H835     1.0080     0.000    A    2.42000E-01   1.25520E-01
  opls_818  C818    12.0110     0.000    A    3.55000E-01   2.92880E-01
  opls_804  C804    12.0110     0.000    A    3.50000E-01   3.34720E-01
  opls_817  H817     1.0080     0.000    A    2.42000E-01   1.25520E-01
  opls_812  H812     1.0080     0.000    A    2.42000E-01   1.25520E-01
  opls_801  C801    12.0110     0.000    A    3.55000E-01   2.92880E-01
  opls_814  C814    12.0110     0.000    A    3.50000E-01   3.34720E-01
  opls_809  H809     1.0080     0.000    A    2.42000E-01   1.25520E-01
  opls_819  C819    12.0110     0.000    A    3.55000E-01   2.92880E-01
  opls_810  C810    12.0110     0.000    A    3.55000E-01   2.92880E-01
  opls_820  C820    12.0110     0.000    A    3.50000E-01   3.34720E-01
  opls_831  H831     1.0080     0.000    A    2.42000E-01   1.25520E-01
  opls_806  C806    12.0110     0.000    A    3.55000E-01   2.92880E-01
  opls_832  C832    12.0110     0.000    A    3.55000E-01   2.92880E-01
  opls_824  H824     1.0080     0.000    A    2.42000E-01   1.25520E-01
  opls_815  C815    12.0110     0.000    A    3.55000E-01   2.92880E-01
  opls_828  H828     1.0080     0.000    A    2.42000E-01   1.25520E-01
  opls_830  C830    12.0110     0.000    A    3.55000E-01   2.92880E-01
  opls_813  H813     1.0080     0.000    A    2.42000E-01   1.25520E-01
  opls_803  C803    12.0110     0.000    A    3.55000E-01   2.92880E-01
  opls_807  C807    12.0110     0.000    A    3.55000E-01   2.92880E-01
  opls_826  C826    12.0110     0.000    A    3.50000E-01   3.34720E-01
  opls_825  H825     1.0080     0.000    A    2.42000E-01   1.25520E-01
  opls_822  C822    12.0110     0.000    A    3.55000E-01   2.92880E-01
  opls_800  C800    12.0110     0.000    A    3.50000E-01   3.34720E-01
  opls_805  H805     1.0080     0.000    A    2.42000E-01   1.25520E-01
[ moleculetype ]
; Name               nrexcl
MOL                   3
[ atoms ]
;   nr       type  resnr residue  atom   cgnr     charge       mass  
     1   opls_800      1    MOL   C00      1    -0.0403    12.0110 
     2   opls_801      1    MOL   C01      1    -0.1017    12.0110 
     3   opls_802      1    MOL   C02      1    -0.0362    12.0110 
     4   opls_803      1    MOL   C03      1    -0.1018    12.0110 
     5   opls_804      1    MOL   C04      1    -0.0416    12.0110 
     6   opls_805      1    MOL   H05      1     0.1378     1.0080 
     7   opls_806      1    MOL   C06      1    -0.1011    12.0110 
     8   opls_807      1    MOL   C07      1    -0.1018    12.0110 
     9   opls_808      1    MOL   C08      1    -0.0362    12.0110 
    10   opls_809      1    MOL   H09      1     0.1368     1.0080 
    11   opls_810      1    MOL   C0A      1    -0.1172    12.0110 
    12   opls_811      1    MOL   C0B      1    -0.0401    12.0110 
    13   opls_812      1    MOL   H0C      1     0.1377     1.0080 
    14   opls_813      1    MOL   H0D      1     0.1372     1.0080 
    15   opls_814      1    MOL   C0E      1    -0.0400    12.0110 
    16   opls_815      1    MOL   C0F      1    -0.1011    12.0110 
    17   opls_816      1    MOL   C0G      1    -0.1294    12.0110 
    18   opls_817      1    MOL   H0H      1     0.1358     1.0080 
    19   opls_818      1    MOL   C0I      1    -0.1174    12.0110 
    20   opls_819      1    MOL   C0J      1    -0.1019    12.0110 
    21   opls_820      1    MOL   C0K      1    -0.0402    12.0110 
    22   opls_821      1    MOL   H0M      1     0.1379     1.0080 
    23   opls_822      1    MOL   C0N      1    -0.1287    12.0110 
    24   opls_823      1    MOL   H0O      1     0.1357     1.0080 
    25   opls_824      1    MOL   H0P      1     0.1345     1.0080 
    26   opls_825      1    MOL   H0Q      1     0.1380     1.0080 
    27   opls_826      1    MOL   C0R      1    -0.0414    12.0110 
    28   opls_827      1    MOL   C0S      1    -0.1174    12.0110 
    29   opls_828      1    MOL   H0T      1     0.1366     1.0080 
    30   opls_829      1    MOL   C0U      1    -0.1175    12.0110 
    31   opls_830      1    MOL   C0V      1    -0.1285    12.0110 
    32   opls_831      1    MOL   H0W      1     0.1347     1.0080 
    33   opls_832      1    MOL   C0X      2    -0.1296    12.0110 
    34   opls_833      1    MOL   H0Y      2     0.1359     1.0080 
    35   opls_834      1    MOL   H0Z      2     0.1371     1.0080 
    36   opls_835      1    MOL   H10      2     0.1356     1.0080 
[ bonds ]
    2     1     1      0.1404 392459.200
    3     1     1      0.1370 435136.000
    4     1     1      0.1404 392459.200
    5     2     1      0.1404 392459.200
    6     2     1      0.1080 307105.600
    7     3     1      0.1404 392459.200
    8     3     1      0.1404 392459.200
    9     4     1      0.1404 392459.200
   10     4     1      0.1080 307105.600
   11     5     1      0.1404 392459.200
   12     5     1      0.1370 435136.000
   13     7     1      0.1080 307105.600
   14     8     1      0.1080 307105.600
   15     8     1      0.1404 392459.200
   16     9     1      0.1404 392459.200
   17    11     1      0.1400 392459.200
   18    11     1      0.1080 307105.600
   19    12     1      0.1404 392459.200
   20    15     1      0.1404 392459.200
   21    16     1      0.1404 392459.200
   22    16     1      0.1080 307105.600
   23    17     1      0.1400 392459.200
   24    17     1      0.1080 307105.600
   25    19     1      0.1080 307105.600
   26    20     1      0.1080 307105.600
   27    20     1      0.1404 392459.200
   28    21     1      0.1404 392459.200
   29    23     1      0.1080 307105.600
   30    27     1      0.1404 392459.200
   31    28     1      0.1400 392459.200
   32    28     1      0.1080 307105.600
   33    30     1      0.1400 392459.200
   34    30     1      0.1080 307105.600
   35    31     1      0.1080 307105.600
   36    33     1      0.1080 307105.600
   12     7     1      0.1404 392459.200
   15     9     1      0.1370 435136.000
   23    19     1      0.1400 392459.200
   27    21     1      0.1370 435136.000
   33    31     1      0.1400 392459.200

[ angles ]
;  ai    aj    ak funct            c0            c1            c2            c3 
    2     1     3     1    117.300    711.280
    2     1     4     1    134.900    711.280
    1     2     5     1    120.000    527.184
    1     2     6     1    120.000    292.880
    1     3     7     1    117.300    711.280
    1     3     8     1    117.300    711.280
    1     4     9     1    120.000    527.184
    1     4    10     1    120.000    292.880
    2     5    11     1    134.900    711.280
    2     5    12     1    117.300    711.280
    3     7    13     1    120.000    292.880
    3     8    14     1    120.000    292.880
    3     8    15     1    120.000    527.184
    4     9    16     1    134.900    711.280
    5    11    17     1    120.000    527.184
    5    11    18     1    120.000    292.880
    5    12    19     1    117.300    711.280
    8    15    20     1    134.900    711.280
    9    16    21     1    120.000    527.184
    9    16    22     1    120.000    292.880
   11    17    23     1    120.000    527.184
   11    17    24     1    120.000    292.880
   12    19    25     1    120.000    292.880
   15    20    26     1    120.000    292.880
   15    20    27     1    120.000    527.184
   16    21    28     1    134.900    711.280
   17    23    29     1    120.000    292.880
   20    27    30     1    134.900    711.280
   21    28    31     1    120.000    527.184
   21    28    32     1    120.000    292.880
   27    30    33     1    120.000    527.184
   27    30    34     1    120.000    292.880
   28    31    35     1    120.000    292.880
   30    33    36     1    120.000    292.880
   20    27    21     1    117.300    711.280
   12    19    23     1    120.000    527.184
    5    12     7     1    117.300    711.280
   21    16    22     1    120.000    292.880
   28    31    33     1    120.000    527.184
   17    23    19     1    120.000    527.184
   15     9    16     1    117.300    711.280
   23    19    25     1    120.000    292.880
    3     1     4     1    117.300    711.280
    9     4    10     1    120.000    292.880
   33    30    34     1    120.000    292.880
    8    15     9     1    117.300    711.280
    7     3     8     1    134.900    711.280
   19    23    29     1    120.000    292.880
   21    27    30     1    117.300    711.280
    9    15    20     1    117.300    711.280
   26    20    27     1    120.000    292.880
   31    28    32     1    120.000    292.880
   17    11    18     1    120.000    292.880
   31    33    36     1    120.000    292.880
    5     2     6     1    120.000    292.880
   27    21    28     1    117.300    711.280
   16    21    27     1    117.300    711.280
   14     8    15     1    120.000    292.880
   11     5    12     1    117.300    711.280
   33    31    35     1    120.000    292.880
   30    33    31     1    120.000    527.184
    4     9    15     1    117.300    711.280
    3     7    12     1    120.000    527.184
    7    12    19     1    134.900    711.280
   12     7    13     1    120.000    292.880
   23    17    24     1    120.000    292.880

[ dihedrals ]
; IMPROPER DIHEDRAL ANGLES 
;  ai    aj    ak    al funct            c0            c1            c2            c3            c4            c5
     4     1     2     3    4        180.000     10.460     2  
    30    27    20    21    4        180.000     10.460     2  
    28    21    16    27    4        180.000     10.460     2  
    16     9     4    15    4        180.000     10.460     2  
    20    15     8     9    4        180.000     10.460     2  
    19    12     5     7    4        180.000     10.460     2  
     8     3     1     7    4        180.000     10.460     2  
    27    20    15    26    4        180.000     10.460     2  
    15     8     3    14    4        180.000     10.460     2  
    12     5     2    11    4        180.000     10.460     2  
    24    17    11    23    4        180.000     10.460     2  
    29    23    17    19    4        180.000     10.460     2  
    36    33    30    31    4        180.000     10.460     2  
    35    31    28    33    4        180.000     10.460     2  
    25    19    12    23    4        180.000     10.460     2  
    32    28    21    31    4        180.000     10.460     2  
    34    30    27    33    4        180.000     10.460     2  
    18    11     5    17    4        180.000     10.460     2  
    22    16     9    21    4        180.000     10.460     2  
     6     2     1     5    4        180.000     10.460     2  
    13     7     3    12    4        180.000     10.460     2  
    10     4     1     9    4        180.000     10.460     2  

[ dihedrals ]
; PROPER DIHEDRAL ANGLES
;  ai    aj    ak    al funct            c0            c1            c2            c3            c4            c5
   30   33   31   28        3      30.334   0.000  -30.334  -0.000  -0.000   0.000
   19   23   17   11        3      30.334   0.000  -30.334  -0.000  -0.000   0.000
   33   31   28   21        3      30.334   0.000  -30.334  -0.000  -0.000   0.000
   31   33   30   27        3      30.334   0.000  -30.334  -0.000  -0.000   0.000
   23   17   11    5        3      30.334   0.000  -30.334  -0.000  -0.000   0.000
   17   23   19   12        3      30.334   0.000  -30.334  -0.000  -0.000   0.000
   33   31   28   32        3      30.334   0.000  -30.334  -0.000  -0.000   0.000
   23   17   11   18        3      30.334   0.000  -30.334  -0.000  -0.000   0.000
   31   28   21   16        3      29.288   0.000  -29.288  -0.000  -0.000   0.000
   17   11    5    2        3      29.288   0.000  -29.288  -0.000  -0.000   0.000
   23   19   12    7        3      29.288   0.000  -29.288  -0.000  -0.000   0.000
   33   30   27   20        3      29.288   0.000  -29.288  -0.000  -0.000   0.000
   31   28   21   27        3      29.288   0.000  -29.288  -0.000  -0.000   0.000
   17   11    5   12        3      29.288   0.000  -29.288  -0.000  -0.000   0.000
   33   30   27   21        3      29.288   0.000  -29.288  -0.000  -0.000   0.000
   23   19   12    5        3      29.288   0.000  -29.288  -0.000  -0.000   0.000
   20   15    8    3        3      29.288   0.000  -29.288  -0.000  -0.000   0.000
   30   27   20   15        3      29.288   0.000  -29.288  -0.000  -0.000   0.000
   19   12    7    3        3      29.288   0.000  -29.288  -0.000  -0.000   0.000
   28   21   16    9        3      29.288   0.000  -29.288  -0.000  -0.000   0.000
   16    9    4    1        3      29.288   0.000  -29.288  -0.000  -0.000   0.000
   11    5    2    1        3      29.288   0.000  -29.288  -0.000  -0.000   0.000
   11    5    2    6        3      30.334   0.000  -30.334  -0.000  -0.000   0.000
   20   15    8   14        3      30.334   0.000  -30.334  -0.000  -0.000   0.000
   30   27   20   26        3      30.334   0.000  -30.334  -0.000  -0.000   0.000
   16    9    4   10        3      30.334   0.000  -30.334  -0.000  -0.000   0.000
   28   21   16   22        3      30.334   0.000  -30.334  -0.000  -0.000   0.000
   19   12    7   13        3      30.334   0.000  -30.334  -0.000  -0.000   0.000
    7   12    5    2        3      30.334   0.000  -30.334  -0.000  -0.000   0.000
   19   12    5   11        3      30.334   0.000  -30.334  -0.000  -0.000   0.000
   20   15    9   16        3      30.334   0.000  -30.334  -0.000  -0.000   0.000
    8    3    1    4        3      30.334   0.000  -30.334  -0.000  -0.000   0.000
   28   21   27   20        3      30.334   0.000  -30.334  -0.000  -0.000   0.000
   30   27   21   28        3      30.334   0.000  -30.334  -0.000  -0.000   0.000
   30   27   21   16        3      30.334   0.000  -30.334  -0.000  -0.000   0.000
   20   15    9    4        3      30.334   0.000  -30.334  -0.000  -0.000   0.000
    7    3    1    2        3      30.334   0.000  -30.334  -0.000  -0.000   0.000
   20   27   21   16        3      30.334   0.000  -30.334  -0.000  -0.000   0.000
   11    5   12    7        3      30.334   0.000  -30.334  -0.000  -0.000   0.000
    7    3    1    4        3      30.334   0.000  -30.334  -0.000  -0.000   0.000
    8    3    1    2        3      30.334   0.000  -30.334  -0.000  -0.000   0.000
    8   15    9    4        3      30.334   0.000  -30.334  -0.000  -0.000   0.000
   19   12    5    2        3      30.334   0.000  -30.334  -0.000  -0.000   0.000
   16    9   15    8        3      30.334   0.000  -30.334  -0.000  -0.000   0.000
   15    8    3    7        3      29.288   0.000  -29.288  -0.000  -0.000   0.000
   12    7    3    8        3      29.288   0.000  -29.288  -0.000  -0.000   0.000
    9    4    1    2        3      29.288   0.000  -29.288  -0.000  -0.000   0.000
    5    2    1    4        3      29.288   0.000  -29.288  -0.000  -0.000   0.000
   27   20   15    8        3      29.288   0.000  -29.288  -0.000  -0.000   0.000
   21   16    9    4        3      29.288   0.000  -29.288  -0.000  -0.000   0.000
    5    2    1    3        3      29.288   0.000  -29.288  -0.000  -0.000   0.000
   21   16    9   15        3      29.288   0.000  -29.288  -0.000  -0.000   0.000
   12    7    3    1        3      29.288   0.000  -29.288  -0.000  -0.000   0.000
   27   20   15    9        3      29.288   0.000  -29.288  -0.000  -0.000   0.000
   15    8    3    1        3      29.288   0.000  -29.288  -0.000  -0.000   0.000
    9    4    1    3        3      29.288   0.000  -29.288  -0.000  -0.000   0.000
   12    5    2    1        3      29.288   0.000  -29.288  -0.000  -0.000   0.000
    9   15    8    3        3      29.288   0.000  -29.288  -0.000  -0.000   0.000
   27   21   16    9        3      29.288   0.000  -29.288  -0.000  -0.000   0.000
   15    9    4    1        3      29.288   0.000  -29.288  -0.000  -0.000   0.000
    5   12    7    3        3      29.288   0.000  -29.288  -0.000  -0.000   0.000
   21   27   20   15        3      29.288   0.000  -29.288  -0.000  -0.000   0.000
   27   21   16   22        3      30.334   0.000  -30.334  -0.000  -0.000   0.000
   12    5    2    6        3      30.334   0.000  -30.334  -0.000  -0.000   0.000
   15    9    4   10        3      30.334   0.000  -30.334  -0.000  -0.000   0.000
   25   19   23   17        3      30.334   0.000  -30.334  -0.000  -0.000   0.000
   34   30   33   31        3      30.334   0.000  -30.334  -0.000  -0.000   0.000
   36   33   31   28        3      30.334   0.000  -30.334  -0.000  -0.000   0.000
   35   31   33   30        3      30.334   0.000  -30.334  -0.000  -0.000   0.000
   29   23   17   11        3      30.334   0.000  -30.334  -0.000  -0.000   0.000
   24   17   23   19        3      30.334   0.000  -30.334  -0.000  -0.000   0.000
   36   33   30   27        3      30.334   0.000  -30.334  -0.000  -0.000   0.000
   24   17   11    5        3      30.334   0.000  -30.334  -0.000  -0.000   0.000
   29   23   19   12        3      30.334   0.000  -30.334  -0.000  -0.000   0.000
   35   31   28   21        3      30.334   0.000  -30.334  -0.000  -0.000   0.000
   36   33   31   35        3      30.334   0.000  -30.334  -0.000  -0.000   0.000
   35   31   28   32        3      30.334   0.000  -30.334  -0.000  -0.000   0.000
   29   23   19   25        3      30.334   0.000  -30.334  -0.000  -0.000   0.000
   29   23   17   24        3      30.334   0.000  -30.334  -0.000  -0.000   0.000
   36   33   30   34        3      30.334   0.000  -30.334  -0.000  -0.000   0.000
   24   17   11   18        3      30.334   0.000  -30.334  -0.000  -0.000   0.000
   34   30   27   20        3      30.334   0.000  -30.334  -0.000  -0.000   0.000
   32   28   21   16        3      30.334   0.000  -30.334  -0.000  -0.000   0.000
   26   20   15    8        3      30.334   0.000  -30.334  -0.000  -0.000   0.000
   10    4    1    2        3      30.334   0.000  -30.334  -0.000  -0.000   0.000
    6    2    1    4        3      30.334   0.000  -30.334  -0.000  -0.000   0.000
   22   16    9    4        3      30.334   0.000  -30.334  -0.000  -0.000   0.000
   14    8    3    7        3      30.334   0.000  -30.334  -0.000  -0.000   0.000
   18   11    5    2        3      30.334   0.000  -30.334  -0.000  -0.000   0.000
   13    7    3    8        3      30.334   0.000  -30.334  -0.000  -0.000   0.000
   25   19   12    7        3      30.334   0.000  -30.334  -0.000  -0.000   0.000
   14    8   15    9        3      30.334   0.000  -30.334  -0.000  -0.000   0.000
   32   28   21   27        3      30.334   0.000  -30.334  -0.000  -0.000   0.000
   18   11    5   12        3      30.334   0.000  -30.334  -0.000  -0.000   0.000
   14    8    3    1        3      30.334   0.000  -30.334  -0.000  -0.000   0.000
   26   20   15    9        3      30.334   0.000  -30.334  -0.000  -0.000   0.000
   25   19   12    5        3      30.334   0.000  -30.334  -0.000  -0.000   0.000
   22   16    9   15        3      30.334   0.000  -30.334  -0.000  -0.000   0.000
   13    7   12    5        3      30.334   0.000  -30.334  -0.000  -0.000   0.000
   10    4    1    3        3      30.334   0.000  -30.334  -0.000  -0.000   0.000
   26   20   27   21        3      30.334   0.000  -30.334  -0.000  -0.000   0.000
    6    2    1    3        3      30.334   0.000  -30.334  -0.000  -0.000   0.000
   34   30   27   21        3      30.334   0.000  -30.334  -0.000  -0.000   0.000
   13    7    3    1        3      30.334   0.000  -30.334  -0.000  -0.000   0.000

[ pairs ]
     3     5    1
     4     5    1
     3     6    1
     2     7    1
     4     6    1
     2     8    1
     4     7    1
     2     9    1
     4     8    1
     3     9    1
     2    10    1
     1    11    1
     3    10    1
     1    12    1
     1    13    1
     1    14    1
     1    15    1
     6    11    1
     1    16    1
     7    11    1
     6    12    1
     5    13    1
     2    17    1
     8    12    1
     2    18    1
     8    13    1
     7    14    1
     2    19    1
     7    15    1
     3    19    1
     9    14    1
     3    20    1
     8    16    1
     4    20    1
    10    15    1
     4    21    1
    10    16    1
     4    22    1
     5    23    1
    12    17    1
     5    24    1
    12    18    1
    11    19    1
     7    23    1
     5    25    1
    13    19    1
     7    25    1
    14    20    1
     8    26    1
     9    26    1
     8    27    1
    16    20    1
    15    21    1
     9    27    1
    15    22    1
     9    28    1
    11    29    1
    18    23    1
    12    29    1
    18    24    1
    17    25    1
    19    24    1
    15    30    1
    16    30    1
    21    26    1
    16    31    1
    20    28    1
    16    32    1
    22    27    1
    22    28    1
    24    29    1
    20    33    1
    25    29    1
    21    33    1
    20    34    1
    21    34    1
    26    30    1
    21    35    1
    28    30    1
    27    31    1
    27    32    1
    27    36    1
    28    36    1
    32    33    1
    31    34    1
    30    35    1
    32    35    1
    34    36    1
    35    36    1

